Title
81343
    1CHL1    C3    1   2.630   2.296  10.198  0.2064 -0.0365  0.0506
    1CHL1    H3    2   2.720   2.275  10.137  0.2001  0.9307 -0.3102
    1CHL1    O3    3   2.678   2.320  10.336 -0.1626 -1.0482  0.5244
    1CHL1   H3'    4   2.600   2.343  10.388 -0.5007  0.8957 -0.7576
    1CHL1    C4    5   2.568   2.423  10.139 -0.5495 -0.4295  0.2290
    1CHL1   H4A    6   2.489   2.451  10.212 -0.4299  0.2701  0.0984
    1CHL1   H4B    7   2.646   2.502  10.144 -1.7350  0.9441 -1.7852
    1CHL1    C5    8   2.515   2.411  10.002 -0.4557 -0.0327  0.0222
    1CHL1    C6    9   2.538   2.503   9.903 -0.7007 -0.4620  1.0519
    1CHL1    H6   10   2.593   2.597   9.914  1.4298 -1.4401 -0.4159
    1CHL1    C7   11   2.489   2.486   9.760  0.1627 -0.7550 -0.4091
    1CHL1   H7A   12   2.452   2.583   9.720 -0.3866 -0.7638  0.0817
    1CHL1   H7B   13   2.578   2.454   9.701  1.3632  0.3034  0.7656
    1CHL1    C8   14   2.386   2.376   9.733 -0.2065  0.0617 -0.0824
    1CHL1    H8   15   2.287   2.424   9.742  0.8967  2.5495 -0.2983
    1CHL1   C14   16   2.398   2.328   9.596 -1.4811  0.1848 -0.0580
    1CHL1   H14   17   2.495   2.276   9.586 -2.0626 -1.3052  1.5551
    1CHL1   C15   18   2.403   2.434   9.479 -0.2097 -0.3490  0.6288
    1CHL1  H15A   19   2.328   2.512   9.506 -0.8574  0.3901 -2.7319
    1CHL1  H15B   20   2.507   2.473   9.475 -0.7928  1.2349 -0.2108
    1CHL1   C16   21   2.367   2.349   9.357 -0.0626  0.0482  0.0014
    1CHL1  H16A   22   2.282   2.403   9.309  0.8513  0.1155 -1.5909
    1CHL1  H16B   23   2.456   2.348   9.291 -0.1288 -0.9546 -0.0855
    1CHL1   C17   24   2.325   2.206   9.404 -0.3274 -0.0431 -0.5183
    1CHL1   H17   25   2.422   2.153   9.401  0.0435  0.5678  0.2513
    1CHL1   C13   26   2.290   2.221   9.554  0.4191 -0.9439  0.4339
    1CHL1   C18   27   2.149   2.277   9.562  0.2592  0.5462 -0.0019
    1CHL1  H18A   28   2.126   2.361   9.494 -0.8422 -0.1427 -0.5054
    1CHL1  H18B   29   2.072   2.208   9.523  0.4970  1.2378 -1.7537
    1CHL1  H18C   30   2.124   2.312   9.665 -0.2862  1.4859 -0.4462
    1CHL1   C12   31   2.304   2.106   9.647  0.6001  0.0472 -0.8596
    1CHL1  H12A   32   2.239   2.016   9.654  1.1571 -0.2226  1.3667
    1CHL1  H12B   33   2.404   2.059   9.637 -0.0490 -1.7230  0.4797
    1CHL1   C11   34   2.301   2.149   9.794 -0.4731 -0.0237  0.1525
    1CHL1  H11A   35   2.203   2.198   9.811 -0.8298 -0.0392 -1.6387
    1CHL1  H11B   36   2.299   2.059   9.859 -0.1682  0.1136  0.3549
    1CHL1    C9   37   2.404   2.257   9.824 -0.7915 -0.1622  0.2585
    1CHL1    H9   38   2.500   2.212   9.789 -0.7032  2.1196 -2.9702
    1CHL1   C10   39   2.426   2.280   9.974  0.0062 -0.6413  0.6782
    1CHL1   C19   40   2.292   2.301  10.045  0.2222 -1.1047  0.4624
    1CHL1  H19A   41   2.298   2.335  10.151 -1.1389  1.5767 -0.2337
    1CHL1  H19B   42   2.227   2.374   9.992 -1.3344 -2.5242  0.3240
    1CHL1  H19C   43   2.238   2.205  10.060  1.3315 -1.6324  1.2376
    1CHL1    C1   44   2.496   2.163  10.036 -0.7932  0.3774  0.3912
    1CHL1   H1A   45   2.427   2.076  10.026 -1.5390  1.0771 -0.6785
    1CHL1   H1B   46   2.588   2.144   9.977 -0.5785  0.0054  0.8401
    1CHL1    C2   47   2.543   2.172  10.182 -0.3714 -0.0360 -0.2317
    1CHL1   H2A   48   2.598   2.079  10.205  0.3290  0.7754  1.5610
    1CHL1   H2B   49   2.460   2.174  10.256  0.4991 -0.5067  0.7852
    1CHL1   C20   50   2.220   2.136   9.310 -0.8587  0.4367  0.8479
    1CHL1   H20   51   2.131   2.202   9.300 -0.2488  0.9310 -2.1298
    1CHL1   C21   52   2.184   1.994   9.363 -0.3860  0.4746  0.0628
    1CHL1  H21A   53   2.277   1.936   9.382  0.4762  2.6733  3.2833
    1CHL1  H21B   54   2.121   1.947   9.285 -0.3995  0.5461  0.0304
    1CHL1  H21C   55   2.137   2.004   9.463 -0.9360  0.6601 -0.2102
    1CHL1   C22   56   2.270   2.125   9.165  0.4386  0.0191  0.3918
    1CHL1  H22A   57   2.364   2.182   9.146  0.0146  0.1424 -1.4447
    1CHL1  H22B   58   2.291   2.019   9.141 -0.0720 -0.2749  1.2126
    1CHL1   C23   59   2.162   2.173   9.068  0.0950 -0.1483  0.2202
    1CHL1  H23A   60   2.062   2.158   9.113 -1.1760  0.7930 -2.1043
    1CHL1  H23B   61   2.184   2.279   9.042 -0.3829 -0.6290 -2.3657
    1CHL1   C24   62   2.180   2.094   8.937 -0.6059 -0.6634  0.4577
    1CHL1  H24A   63   2.285   2.095   8.899 -1.3216  4.4697 -2.2337
    1CHL1  H24B   64   2.141   1.990   8.941  0.5858 -1.1799 -0.5417
    1CHL1   C25   65   2.119   2.167   8.816 -0.3426 -0.3056 -0.2567
    1CHL1   H25   66   2.172   2.263   8.798 -2.2225  0.6807 -0.8057
    1CHL1   C26   67   2.150   2.094   8.681  1.0831  0.2937 -0.3922
    1CHL1  H26A   68   2.258   2.113   8.662  0.9095  1.2503 -0.4423
    1CHL1  H26B   69   2.125   1.986   8.691 -1.5935  0.8258 -0.6026
    1CHL1  H26C   70   2.088   2.130   8.597 -1.1537 -3.4386 -0.5659
    1CHL1   C27   71   1.969   2.201   8.836 -0.1642 -0.6717  0.7222
    1CHL1  H27A   72   1.920   2.238   8.744  0.7293  0.9977  0.8751
    1CHL1  H27B   73   1.915   2.109   8.864 -2.1405  0.6307  1.4231
    1CHL1  H27C   74   1.956   2.274   8.919 -0.8896 -0.2695  0.2654
    2CHL1    C3   75   3.959   0.423  10.008  0.2147  0.5789  0.3682
    2CHL1    H3   76   4.008   0.523  10.012 -2.2936  2.0366 -2.1096
    2CHL1    O3   77   3.942   0.370  10.139 -0.2493 -0.5100 -0.4705
    2CHL1   H3'   78   3.898   0.287  10.119  2.7878 -1.7808 -2.4537
    2CHL1    C4   79   3.817   0.450   9.947 -0.2886  0.1492 -0.0837
    2CHL1   H4A   80   3.752   0.363   9.974 -1.1062  1.1718  1.3611
    2CHL1   H4B   81   3.769   0.533  10.002 -0.9177  0.2159 -0.7225
    2CHL1    C5   82   3.822   0.496   9.798 -0.0780  0.4462 -0.4515
    2CHL1    C6   83   3.768   0.618   9.761 -0.8403 -0.8918 -0.5152
    2CHL1    H6   84   3.722   0.691   9.830 -0.5891  0.8716 -2.1127
    2CHL1    C7   85   3.777   0.662   9.620  0.9148 -0.1994 -0.1147
    2CHL1   H7A   86   3.678   0.707   9.597  1.3971  0.8207 -0.2307
    2CHL1   H7B   87   3.853   0.740   9.600  0.6587  0.3783  1.0950
    2CHL1    C8   88   3.806   0.559   9.507  0.3138 -0.0543 -0.2763
    2CHL1    H8   89   3.719   0.492   9.495  1.2999 -1.1845 -1.4505
    2CHL1   C14   90   3.841   0.613   9.370  0.7691  0.8396  0.1124
    2CHL1   H14   91   3.934   0.674   9.381  1.5531 -0.3665  0.3778
    2CHL1   C15   92   3.749   0.722   9.299  0.5799 -0.1590 -0.4709
    2CHL1  H15A   93   3.642   0.691   9.297  1.1720 -2.5239 -3.9274
    2CHL1  H15B   94   3.762   0.828   9.327 -2.4515  0.0938  0.4228
    2CHL1   C16   95   3.794   0.713   9.152 -0.5619 -0.3190 -0.8106
    2CHL1  H16A   96   3.703   0.693   9.091 -0.5937 -0.2056 -0.8002
    2CHL1  H16B   97   3.833   0.814   9.129  1.7895 -0.4582  1.9497
    2CHL1   C17   98   3.899   0.595   9.142  0.2591 -1.0834 -0.3000
    2CHL1   H17   99   3.993   0.646   9.172 -1.1877  1.4423  0.2197
    2CHL1   C13  100   3.875   0.503   9.264 -0.0731 -0.6171 -0.9740
    2CHL1   C18  101   3.746   0.424   9.233  0.6040 -0.2707 -0.6248
    2CHL1  H18A  102   3.701   0.376   9.322 -1.5110  1.0946 -0.8692
    2CHL1  H18B  103   3.673   0.492   9.183  1.1927  1.1006  0.3278
    2CHL1  H18C  104   3.773   0.343   9.163  1.8931 -0.6100  0.2307
    2CHL1   C12  105   3.997   0.425   9.319  0.8061 -0.1279 -0.1898
    2CHL1  H12A  106   4.027   0.346   9.248  1.9824  0.1865 -0.0570
    2CHL1  H12B  107   4.070   0.509   9.324 -0.5477  1.0353  1.2238
    2CHL1   C11  108   3.962   0.363   9.456 -0.4678  0.3381  0.1226
    2CHL1  H11A  109   3.887   0.281   9.445  0.4206 -0.4498 -0.2120
    2CHL1  H11B  110   4.046   0.307   9.501  0.6840 -0.4291 -2.7721
    2CHL1    C9  111   3.909   0.466   9.561 -0.2142 -0.6329 -0.2032
    2CHL1    H9  112   3.996   0.531   9.584  0.1398 -0.3763 -2.0690
    2CHL1   C10  113   3.885   0.399   9.704 -0.7147  0.6190  0.0767
    2CHL1   C19  114   3.789   0.280   9.689  0.3235 -0.0946  0.3627
    2CHL1  H19A  115   3.840   0.203   9.627  0.3780  1.8581 -2.1718
    2CHL1  H19B  116   3.754   0.234   9.783  2.9508 -1.4958  0.7612
    2CHL1  H19C  117   3.692   0.302   9.640  0.3255 -0.1335  0.3413
    2CHL1    C1  118   4.023   0.352   9.766  0.0550  0.1787  0.9942
    2CHL1   H1A  119   4.064   0.263   9.713 -0.8638  0.8678 -0.9744
    2CHL1   H1B  120   4.093   0.437   9.753  1.8375 -1.1610  1.3024
    2CHL1    C2  121   4.030   0.325   9.920 -0.5437  0.4355 -0.1363
    2CHL1   H2A  122   4.139   0.316   9.940 -0.5291  1.5187  0.3658
    2CHL1   H2B  123   3.982   0.227   9.941  1.8907 -0.6340  0.8793
    2CHL1   C20  124   3.910   0.523   9.005  0.5778  0.1212  0.2328
    2CHL1   H20  125   3.923   0.415   9.026  0.0666 -0.0383 -0.2508
    2CHL1   C21  126   4.046   0.562   8.944  0.6537 -0.2593 -0.2147
    2CHL1  H21A  127   4.071   0.502   8.855  0.4034 -1.5163  0.5340
    2CHL1  H21B  128   4.128   0.548   9.018  1.2348 -0.6626 -0.9324
    2CHL1  H21C  129   4.056   0.666   8.905 -1.7040 -0.8930 -2.7843
    2CHL1   C22  130   3.783   0.534   8.913 -0.2925  0.4035  0.4015
    2CHL1  H22A  131   3.688   0.519   8.970 -1.9207  2.1613 -1.6767
    2CHL1  H22B  132   3.775   0.637   8.873 -1.2643 -0.6070 -2.2755
    2CHL1   C23  133   3.777   0.448   8.782 -0.0457 -0.2417 -0.1606
    2CHL1  H23A  134   3.684   0.470   8.726  0.1730 -2.2003 -1.3774
    2CHL1  H23B  135   3.881   0.457   8.743  0.4442  2.5681  1.4667
    2CHL1   C24  136   3.750   0.298   8.808 -0.0945 -0.5154 -0.5846
    2CHL1  H24A  137   3.843   0.250   8.846  0.1322  0.2716 -0.1277
    2CHL1  H24B  138   3.675   0.295   8.890  1.7716  2.0490  1.3770
    2CHL1   C25  139   3.692   0.224   8.686  0.5254  0.0422 -0.7827
    2CHL1   H25  140   3.592   0.270   8.667 -0.9604 -1.3906  2.7740
    2CHL1   C26  141   3.785   0.229   8.560  0.2661  0.4734 -0.0324
    2CHL1  H26A  142   3.792   0.335   8.526  2.7748  0.1258 -0.7944
    2CHL1  H26B  143   3.888   0.201   8.589 -0.0068 -0.6848 -0.1217
    2CHL1  H26C  144   3.738   0.171   8.478 -0.3920 -2.0623  2.0175
    2CHL1   C27  145   3.648   0.086   8.718 -0.7664  0.0529  0.5317
    2CHL1  H27A  146   3.737   0.022   8.735 -0.8251  0.0292  0.7621
    2CHL1  H27B  147   3.593   0.071   8.814  1.1759 -1.6242  1.4537
    2CHL1  H27C  148   3.585   0.058   8.631 -0.6724  2.9969 -0.6067
    3CHL1    C3  149   5.386   6.474  10.284  0.0335 -0.5281  0.6683
    3CHL1    H3  150   5.489   6.517  10.289  0.6296 -1.8259 -0.1047
    3CHL1    O3  151   5.329   6.486  10.408 -0.0328  0.0328 -0.0523
    3CHL1   H3'  152   5.279   6.404  10.411 -0.7420  0.4180 -0.9999
    3CHL1    C4  153   5.305   6.528  10.168  0.9222 -0.0365  0.3658
    3CHL1   H4A  154   5.201   6.488  10.172  1.8026 -2.5483  0.1651
    3CHL1   H4B  155   5.282   6.634  10.189  1.0313  0.3206 -1.1801
    3CHL1    C5  156   5.363   6.510  10.033  0.3238 -0.8813 -0.4191
    3CHL1    C6  157   5.366   6.614   9.945 -0.1681 -0.3698 -0.1497
    3CHL1    H6  158   5.325   6.713   9.971  2.5092  0.7391  0.2240
    3CHL1    C7  159   5.421   6.602   9.806  0.1391 -0.3351 -0.5835
    3CHL1   H7A  160   5.362   6.645   9.723  1.1136 -1.8045 -2.0876
    3CHL1   H7B  161   5.523   6.646   9.800  0.8114 -1.7925 -0.2768
    3CHL1    C8  162   5.430   6.448   9.764  0.0233  0.1049 -0.0183
    3CHL1    H8  163   5.323   6.422   9.749 -1.0836  2.9465  2.0276
    3CHL1   C14  164   5.512   6.427   9.635  0.9464  0.2527 -1.0908
    3CHL1   H14  165   5.615   6.451   9.666  2.1563 -4.0406 -1.2143
    3CHL1   C15  166   5.476   6.521   9.517  0.3138  0.7354  0.5729
    3CHL1  H15A  167   5.366   6.534   9.516 -0.0611 -1.9632  0.6940
    3CHL1  H15B  168   5.516   6.621   9.544 -0.6212  0.8778  1.5006
    3CHL1   C16  169   5.540   6.449   9.395  0.0881  0.2638  0.4404
    3CHL1  H16A  170   5.458   6.422   9.325  1.3671  0.2421 -1.1102
    3CHL1  H16B  171   5.622   6.505   9.344  0.0662 -0.7515 -0.7525
    3CHL1   C17  172   5.610   6.322   9.452 -0.4574 -0.4844  0.4252
    3CHL1   H17  173   5.713   6.348   9.485  0.1191 -0.5825 -1.2494
    3CHL1   C13  174   5.527   6.284   9.575  0.6432 -0.3073 -0.1436
    3CHL1   C18  175   5.386   6.233   9.536  0.9084  0.6153  0.2715
    3CHL1  H18A  176   5.339   6.302   9.462 -0.2275 -0.5568 -0.1227
    3CHL1  H18B  177   5.395   6.129   9.499  0.3581  0.1324  1.4545
    3CHL1  H18C  178   5.317   6.236   9.622 -1.2165 -0.8834 -1.2787
    3CHL1   C12  179   5.598   6.202   9.690  0.3153  0.1469  0.4125
    3CHL1  H12A  180   5.615   6.095   9.666  0.0216  0.2838 -0.4457
    3CHL1  H12B  181   5.693   6.256   9.711 -0.5953  2.7123 -1.4916
    3CHL1   C11  182   5.518   6.213   9.823  0.3266  0.3593 -0.1987
    3CHL1  H11A  183   5.417   6.170   9.804  0.4553 -0.9152  1.7096
    3CHL1  H11B  184   5.562   6.163   9.912 -0.2878  1.7153  0.8929
    3CHL1    C9  185   5.488   6.360   9.879  0.2032 -0.1035  0.5029
    3CHL1    H9  186   5.592   6.399   9.889  0.4993 -0.5498 -0.6139
    3CHL1   C10  187   5.411   6.366  10.003  0.7114 -0.8278 -0.3682
    3CHL1   C19  188   5.281   6.280   9.991 -0.0309 -0.6107 -0.7951
    3CHL1  H19A  189   5.233   6.287   9.891 -0.6105  0.9280 -0.4412
    3CHL1  H19B  190   5.301   6.175  10.023 -0.4859  0.3551  3.1466
    3CHL1  H19C  191   5.195   6.318  10.050 -0.6180  1.2278 -2.7262
    3CHL1    C1  192   5.494   6.313  10.120  0.2385  0.0364 -0.1783
    3CHL1   H1A  193   5.506   6.205  10.097 -1.7540  0.1936 -2.2698
    3CHL1   H1B  194   5.592   6.366  10.118 -0.4928  1.5188  0.8983
    3CHL1    C2  195   5.421   6.327  10.255 -0.2646  0.5114 -0.0638
    3CHL1   H2A  196   5.487   6.287  10.334 -1.3843  0.7167  1.0066
    3CHL1   H2B  197   5.326   6.270  10.252 -1.4131  2.3599 -1.7477
    3CHL1   C20  198   5.638   6.222   9.334  0.3803  0.2632 -0.7872
    3CHL1   H20  199   5.538   6.178   9.314  0.0355  0.6750  0.0201
    3CHL1   C21  200   5.727   6.103   9.380  0.0542 -0.0647  0.8615
    3CHL1  H21A  201   5.671   6.050   9.461 -0.4050  1.3127  1.4800
    3CHL1  H21B  202   5.831   6.134   9.403  0.7487 -0.5834 -1.3671
    3CHL1  H21C  203   5.736   6.027   9.299  1.9370 -1.1488  2.0110
    3CHL1   C22  204   5.690   6.295   9.213  0.0090  0.0912 -0.3135
    3CHL1  H22A  205   5.617   6.371   9.176 -0.2091  0.9114  1.6994
    3CHL1  H22B  206   5.773   6.357   9.254  0.1417 -0.4138  0.1882
    3CHL1   C23  207   5.731   6.196   9.109 -0.2840  0.6297  0.7800
    3CHL1  H23A  208   5.820   6.137   9.137  1.1151  2.3347  0.1624
    3CHL1  H23B  209   5.644   6.127   9.104 -1.1587  1.7424 -2.3121
    3CHL1   C24  210   5.746   6.260   8.974 -0.7664  0.3448  0.2682
    3CHL1  H24A  211   5.666   6.335   8.959  1.4087  2.5569 -0.8571
    3CHL1  H24B  212   5.844   6.313   8.978 -0.5139 -0.1790  2.4266
    3CHL1   C25  213   5.740   6.172   8.849  1.1822  0.8903 -0.0894
    3CHL1   H25  214   5.828   6.105   8.864  1.4456  0.9055 -1.4386
    3CHL1   C26  215   5.613   6.075   8.832 -0.6132  0.1356  0.3089
    3CHL1  H26A  216   5.600   5.996   8.909 -2.8794 -2.4914 -2.4763
    3CHL1  H26B  217   5.518   6.130   8.812 -0.1561 -0.1571 -3.2892
    3CHL1  H26C  218   5.629   6.023   8.735 -1.6649 -0.6121  0.5142
    3CHL1   C27  219   5.780   6.260   8.727 -0.0452  0.2740 -0.3888
    3CHL1  H27A  220   5.782   6.185   8.644  2.3381 -0.9993  0.7008
    3CHL1  H27B  221   5.724   6.353   8.706 -0.0261  0.0954 -1.2687
    3CHL1  H27C  222   5.888   6.288   8.729 -0.2004  0.8508  0.5811
    4CHL1    C3  223   2.805   1.720  10.587 -0.1261  0.2004  0.0794
    4CHL1    H3  224   2.906   1.696  10.546 -0.7455 -3.0492  0.1356
    4CHL1    O3  225   2.789   1.738  10.727 -0.3222  0.4239 -0.1645
    4CHL1   H3'  226   2.716   1.798  10.743 -1.3089 -0.6346 -0.5575
    4CHL1    C4  227   2.764   1.849  10.520 -0.5312 -0.3246  0.6481
    4CHL1   H4A  228   2.663   1.879  10.556 -0.5260 -1.4681  1.6833
    4CHL1   H4B  229   2.840   1.927  10.547  0.8720 -0.9874 -1.1599
    4CHL1    C5  230   2.756   1.847  10.367  0.0663  0.3112 -0.2306
    4CHL1    C6  231   2.820   1.939  10.290 -0.0438 -0.3362 -0.8852
    4CHL1    H6  232   2.884   2.018  10.331 -0.8311 -0.2871  0.2898
    4CHL1    C7  233   2.809   1.941  10.143 -0.9462  0.2784 -0.3263
    4CHL1   H7A  234   2.792   2.040  10.098 -1.2421 -0.0392 -0.9218
    4CHL1   H7B  235   2.904   1.916  10.092 -0.6385 -0.3294  0.5056
    4CHL1    C8  236   2.699   1.839  10.078  0.8233 -0.4734 -0.0787
    4CHL1    H8  237   2.608   1.903  10.086  0.6687 -0.6094 -0.6970
    4CHL1   C14  238   2.727   1.807   9.926 -0.0734 -0.4644 -0.4313
    4CHL1   H14  239   2.805   1.730   9.946 -0.2304 -0.2262  1.3164
    4CHL1   C15  240   2.770   1.919   9.833  0.3466 -0.0049 -0.3582
    4CHL1  H15A  241   2.697   2.002   9.843 -0.0398 -0.2229 -1.3062
    4CHL1  H15B  242   2.876   1.954   9.842 -0.6396  3.1439  0.3572
    4CHL1   C16  243   2.722   1.863   9.695 -0.4400  0.1399 -0.1664
    4CHL1  H16A  244   2.647   1.935   9.656 -1.1970  1.2839  3.1423
    4CHL1  H16B  245   2.804   1.854   9.620  1.5303  2.0064  1.6411
    4CHL1   C17  246   2.653   1.728   9.717 -0.0531  0.1310 -0.2761
    4CHL1   H17  247   2.733   1.651   9.710 -1.2422 -1.1689 -0.0311
    4CHL1   C13  248   2.609   1.733   9.864 -0.4448  0.1417  0.2638
    4CHL1   C18  249   2.481   1.818   9.862  1.2509 -0.5225 -0.1227
    4CHL1  H18A  250   2.399   1.777   9.799  1.3084 -2.5162  1.0043
    4CHL1  H18B  251   2.446   1.828   9.967 -0.7078  1.2081 -0.8753
    4CHL1  H18C  252   2.505   1.922   9.830  0.2715  0.1102  1.1496
    4CHL1   C12  253   2.597   1.599   9.944  0.5200  0.2770  0.7976
    4CHL1  H12A  254   2.514   1.537   9.904  0.9274  0.9019 -1.1462
    4CHL1  H12B  255   2.694   1.548   9.931  0.9294  1.3110 -0.4715
    4CHL1   C11  256   2.574   1.614  10.095 -0.1740 -0.0077 -0.5953
    4CHL1  H11A  257   2.469   1.645  10.115 -0.9667 -1.1031 -2.6589
    4CHL1  H11B  258   2.579   1.512  10.138 -1.9744  0.0110 -0.2602
    4CHL1    C9  259   2.677   1.710  10.158 -0.6751 -0.3881 -0.4662
    4CHL1    H9  260   2.770   1.650  10.148 -0.1155 -0.1731  2.6162
    4CHL1   C10  261   2.663   1.739  10.310  0.1525  0.3010 -0.1827
    4CHL1   C19  262   2.516   1.782  10.329 -0.2115  0.1598  0.8333
    4CHL1  H19A  263   2.497   1.873  10.268 -0.5125 -1.6351 -1.9482
    4CHL1  H19B  264   2.452   1.698  10.295  0.4737 -0.8116  1.8827
    4CHL1  H19C  265   2.499   1.800  10.437 -1.0779  0.9003  0.5877
    4CHL1    C1  266   2.699   1.604  10.388 -0.1860  0.5806  0.4702
    4CHL1   H1A  267   2.632   1.519  10.362  0.1642  0.4828 -0.1317
    4CHL1   H1B  268   2.802   1.578  10.353 -1.0519  1.1671 -2.9057
    4CHL1    C2  269   2.704   1.615  10.543  0.6382  0.3827 -0.2067
    4CHL1   H2A  270   2.725   1.523  10.602 -0.9430 -1.7555 -2.7325
    4CHL1   H2B  271   2.602   1.648  10.573  0.9284  0.9181  0.1965
    4CHL1   C20  272   2.554   1.681   9.602  0.2273  0.1876  0.7770
    4CHL1   H20  273   2.467   1.751   9.606  0.1717  0.4031 -2.1686
    4CHL1   C21  274   2.517   1.534   9.624 -0.6322 -0.1584 -0.0754
    4CHL1  H21A  275   2.478   1.485   9.533 -1.3235  1.9181 -0.9461
    4CHL1  H21B  276   2.419   1.539   9.677 -2.0816 -1.7171 -2.4101
    4CHL1  H21C  277   2.594   1.477   9.681  0.7718 -0.3636 -2.0905
    4CHL1   C22  278   2.613   1.706   9.459 -0.5263  0.2753 -0.2560
    4CHL1  H22A  279   2.651   1.810   9.452  0.0458  0.0877 -0.0443
    4CHL1  H22B  280   2.702   1.644   9.435 -0.4564  0.6812 -1.0870
    4CHL1   C23  281   2.516   1.661   9.345 -0.7980 -0.1275 -0.6399
    4CHL1  H23A  282   2.539   1.553   9.330 -0.0020  0.2925 -2.9165
    4CHL1  H23B  283   2.410   1.680   9.372 -1.5120 -0.8944 -2.6723
    4CHL1   C24  284   2.545   1.741   9.217  0.0748 -0.6391 -0.0230
    4CHL1  H24A  285   2.490   1.835   9.234 -0.4487 -0.4074 -2.5197
    4CHL1  H24B  286   2.656   1.749   9.208  0.3231 -0.7509  2.3468
    4CHL1   C25  287   2.476   1.678   9.089 -0.2204 -0.2469 -1.0753
    4CHL1   H25  288   2.536   1.587   9.071  1.2637 -0.4452  3.4895
    4CHL1   C26  289   2.328   1.639   9.119  0.2224  0.1476 -0.3097
    4CHL1  H26A  290   2.283   1.628   9.019 -0.8613  1.8423 -0.0501
    4CHL1  H26B  291   2.321   1.537   9.162 -1.2938  0.1600 -0.5051
    4CHL1  H26C  292   2.280   1.712   9.187 -4.3616 -2.9497  0.1572
    4CHL1   C27  293   2.480   1.787   8.975  0.7562  0.2323  0.6031
    4CHL1  H27A  294   2.420   1.878   8.997 -0.0282 -0.3616  0.9488
    4CHL1  H27B  295   2.585   1.823   8.968  1.3530 -1.5738 -0.3611
    4CHL1  H27C  296   2.447   1.748   8.877  2.2687 -0.3254  0.2793
    5CHL1    C3  297   4.335   6.294  10.080 -0.3165  0.0090 -0.1104
    5CHL1    H3  298   4.357   6.186  10.072  1.8621  0.3968 -0.0540
    5CHL1    O3  299   4.332   6.316  10.219  0.2047  0.0656  0.2141
    5CHL1   H3'  300   4.255   6.269  10.252 -0.3439  1.6675  1.3538
    5CHL1    C4  301   4.444   6.369  10.015 -0.2866 -0.8671 -0.6043
    5CHL1   H4A  302   4.425   6.474  10.045 -0.8329 -0.9067 -0.7959
    5CHL1   H4B  303   4.537   6.336  10.068  0.7202 -0.7462 -2.2221
    5CHL1    C5  304   4.448   6.345   9.873  0.2000  0.1677  0.5433
    5CHL1    C6  305   4.561   6.313   9.809 -0.7875  0.8314  0.6968
    5CHL1    H6  306   4.651   6.302   9.871  0.0384  0.1055 -0.5853
    5CHL1    C7  307   4.577   6.291   9.661  0.1991  0.3797 -0.6942
    5CHL1   H7A  308   4.671   6.343   9.633  0.2475  0.7675  0.1556
    5CHL1   H7B  309   4.582   6.185   9.628  0.4249  0.4850 -0.9983
    5CHL1    C8  310   4.460   6.353   9.586  0.1634 -0.3452  0.1658
    5CHL1    H8  311   4.478   6.462   9.575  0.1198 -0.4011 -0.5066
    5CHL1   C14  312   4.456   6.286   9.452 -0.1199  0.0892 -0.1708
    5CHL1   H14  313   4.432   6.178   9.466 -1.7177  0.4298  0.0097
    5CHL1   C15  314   4.582   6.288   9.365 -0.5893  0.2561 -0.2139
    5CHL1  H15A  315   4.628   6.389   9.369  3.1609 -1.3403  1.2650
    5CHL1  H15B  316   4.663   6.217   9.391  0.2164  1.5856  1.0664
    5CHL1   C16  317   4.528   6.261   9.221 -0.1283 -0.2430 -0.6809
    5CHL1  H16A  318   4.556   6.349   9.160 -0.3429  0.6035  0.4115
    5CHL1  H16B  319   4.561   6.162   9.183  0.0370  0.0365 -1.2695
    5CHL1   C17  320   4.372   6.269   9.228 -0.2586 -0.2810  1.0832
    5CHL1   H17  321   4.333   6.170   9.262  0.5445 -0.7244  0.7346
    5CHL1   C13  322   4.347   6.346   9.363 -0.2139 -0.4568 -0.0893
    5CHL1   C18  323   4.374   6.498   9.330  0.3321  0.0315  0.2256
    5CHL1  H18A  324   4.471   6.509   9.277 -0.2094 -0.6240 -0.9608
    5CHL1  H18B  325   4.293   6.548   9.272  1.8766  0.2299 -1.9090
    5CHL1  H18C  326   4.398   6.564   9.415  0.1025  2.0513 -1.1919
    5CHL1   C12  327   4.209   6.327   9.422 -0.1319 -0.1938 -0.1504
    5CHL1  H12A  328   4.140   6.396   9.368  0.5525  0.2792 -0.4318
    5CHL1  H12B  329   4.170   6.223   9.412  0.8958 -0.5919 -0.1202
    5CHL1   C11  330   4.204   6.376   9.565 -0.0603 -0.2389 -1.1381
    5CHL1  H11A  331   4.219   6.486   9.561  0.1155 -0.0609  1.8325
    5CHL1  H11B  332   4.110   6.348   9.617  0.1343  1.7654  0.4218
    5CHL1    C9  333   4.321   6.315   9.654 -0.5880  0.3268 -0.4636
    5CHL1    H9  334   4.306   6.205   9.657 -0.3742  0.3185  1.4352
    5CHL1   C10  335   4.314   6.378   9.798  0.2353 -0.0082  0.3663
    5CHL1   C19  336   4.312   6.537   9.788  0.2077 -0.3983  0.0732
    5CHL1  H19A  337   4.299   6.572   9.893  2.0774  1.1658 -0.1756
    5CHL1  H19B  338   4.404   6.571   9.738 -0.3284 -0.1216 -0.7396
    5CHL1  H19C  339   4.220   6.564   9.732  1.9478 -2.0590 -4.0027
    5CHL1    C1  340   4.193   6.316   9.880  0.3137  0.0035 -0.0918
    5CHL1   H1A  341   4.098   6.359   9.842  0.0540  0.6419  1.2261
    5CHL1   H1B  342   4.183   6.206   9.864 -0.1453 -0.0537  0.5394
    5CHL1    C2  343   4.194   6.339  10.032  0.6434 -0.1001  0.3826
    5CHL1   H2A  344   4.112   6.278  10.076  2.0892 -1.8525  0.7985
    5CHL1   H2B  345   4.178   6.448  10.045 -0.7759 -0.0787 -1.2354
    5CHL1   C20  346   4.308   6.317   9.096  0.3805  0.1946  0.0884
    5CHL1   H20  347   4.317   6.428   9.095 -2.2465  0.5121  1.6282
    5CHL1   C21  348   4.159   6.281   9.100  0.1436 -0.4528  0.2389
    5CHL1  H21A  349   4.113   6.293   9.000  0.3375 -0.7127  0.1153
    5CHL1  H21B  350   4.091   6.339   9.165  0.4090  1.3347 -0.9877
    5CHL1  H21C  351   4.141   6.176   9.130 -2.3876 -0.7451 -1.9287
    5CHL1   C22  352   4.387   6.264   8.971  0.7298 -0.6554 -0.3135
    5CHL1  H22A  353   4.492   6.298   8.984  0.6669 -0.6087  0.0837
    5CHL1  H22B  354   4.383   6.155   8.995  1.8172 -0.7319 -0.4222
    5CHL1   C23  355   4.323   6.301   8.829 -0.0163  0.2152 -0.5840
    5CHL1  H23A  356   4.224   6.251   8.826  1.7177 -3.9170  1.9023
    5CHL1  H23B  357   4.296   6.408   8.816 -1.1607 -0.1963 -1.7538
    5CHL1   C24  358   4.403   6.248   8.712 -0.4593  0.8588  0.2818
    5CHL1  H24A  359   4.506   6.262   8.751 -0.2678  0.3690 -0.0367
    5CHL1  H24B  360   4.384   6.140   8.693 -1.1415  0.7256  1.6002
    5CHL1   C25  361   4.382   6.337   8.583 -0.0183 -0.1484 -0.5579
    5CHL1   H25  362   4.391   6.443   8.613 -0.5680 -0.1875 -0.2456
    5CHL1   C26  363   4.476   6.307   8.468 -0.0601 -0.0912 -0.7456
    5CHL1  H26A  364   4.474   6.205   8.424 -0.4385  0.4229 -1.9864
    5CHL1  H26B  365   4.455   6.389   8.396 -1.2086 -0.3277 -0.6855
    5CHL1  H26C  366   4.580   6.325   8.503 -0.4079  2.3698 -0.7727
    5CHL1   C27  367   4.238   6.310   8.530  0.0673 -0.3270 -0.5081
    5CHL1  H27A  368   4.165   6.365   8.594 -0.7704 -1.1703 -0.7214
    5CHL1  H27B  369   4.213   6.363   8.436 -1.5820 -0.8593 -0.4088
    5CHL1  H27C  370   4.200   6.206   8.527 -1.1869 -0.0929  2.8151
    6CHL1    C3  371   2.712   3.672  10.379  0.4549 -0.3411 -0.4975
    6CHL1    H3  372   2.708   3.561  10.385  4.0909 -0.5340  1.1466
    6CHL1    O3  373   2.697   3.734  10.506 -0.6665  0.2018  0.0121
    6CHL1   H3'  374   2.753   3.678  10.560 -2.3509 -0.3881  1.2504
    6CHL1    C4  375   2.831   3.727  10.309 -0.1924 -0.0644 -0.5657
    6CHL1   H4A  376   2.828   3.835  10.338  2.5712 -0.1869  0.4880
    6CHL1   H4B  377   2.925   3.695  10.360  0.6652  3.0529  0.0820
    6CHL1    C5  378   2.841   3.722  10.163 -0.6325  0.4521 -0.4063
    6CHL1    C6  379   2.953   3.673  10.106  0.6481  0.0533  0.6485
    6CHL1    H6  380   3.035   3.642  10.172  0.9385  1.2136  0.8685
    6CHL1    C7  381   2.978   3.650   9.959 -0.1585  0.2807 -0.0598
    6CHL1   H7A  382   3.081   3.683   9.934 -0.6911  0.7367 -1.7780
    6CHL1   H7B  383   2.988   3.544   9.926 -0.3509 -0.4408  2.0594
    6CHL1    C8  384   2.868   3.727   9.878  0.6054 -0.7845 -0.1212
    6CHL1    H8  385   2.891   3.836   9.882  2.1839 -1.1160  0.7530
    6CHL1   C14  386   2.868   3.698   9.727  0.0517  0.0522 -0.2480
    6CHL1   H14  387   2.844   3.590   9.727  2.0192 -0.4675 -2.3872
    6CHL1   C15  388   3.000   3.689   9.643 -0.7922 -0.0203 -0.4796
    6CHL1  H15A  389   3.073   3.761   9.685  1.3392 -2.1243 -0.4077
    6CHL1  H15B  390   3.059   3.597   9.663 -0.4803  0.8003  2.9635
    6CHL1   C16  391   2.966   3.703   9.503  0.7176  0.0084 -0.9293
    6CHL1  H16A  392   3.015   3.793   9.460  3.8812 -1.4363 -0.6637
    6CHL1  H16B  393   3.005   3.625   9.434  4.7400  2.1944 -1.4231
    6CHL1   C17  394   2.805   3.710   9.499  0.1859 -0.0701 -0.0182
    6CHL1   H17  395   2.759   3.611   9.481  0.7580 -0.0245 -1.9942
    6CHL1   C13  396   2.761   3.770   9.637  0.1073  0.5511  0.1375
    6CHL1   C18  397   2.780   3.921   9.652  0.0279  0.5982  0.0927
    6CHL1  H18A  398   2.704   3.979   9.595 -1.0860 -0.9291 -0.0582
    6CHL1  H18B  399   2.766   3.955   9.757 -1.0138  0.0786  0.1387
    6CHL1  H18C  400   2.883   3.947   9.623 -0.7123  4.1165  0.2131
    6CHL1   C12  401   2.620   3.729   9.691  0.5657 -0.5737 -0.1260
    6CHL1  H12A  402   2.540   3.789   9.644 -0.8874 -1.5512  1.0039
    6CHL1  H12B  403   2.607   3.619   9.680  3.0249 -0.8554 -0.9149
    6CHL1   C11  404   2.609   3.761   9.843  0.3236 -0.1791 -0.6526
    6CHL1  H11A  405   2.593   3.870   9.860 -2.8403 -0.7604  0.7023
    6CHL1  H11B  406   2.511   3.717   9.869  1.0145 -1.9214 -0.8616
    6CHL1    C9  407   2.717   3.710   9.940  0.0810 -0.3282 -0.4321
    6CHL1    H9  408   2.729   3.600   9.941  2.6879 -0.1631 -2.7292
    6CHL1   C10  409   2.710   3.758  10.086  0.2182 -0.7808  0.1149
    6CHL1   C19  410   2.692   3.917  10.082 -0.1650 -0.2853 -0.1827
    6CHL1  H19A  411   2.592   3.951  10.048 -0.3742  1.0994  1.6829
    6CHL1  H19B  412   2.712   3.963  10.181 -2.0765  1.6904 -0.6431
    6CHL1  H19C  413   2.765   3.961  10.010  0.6583 -0.3770  0.5806
    6CHL1    C1  414   2.586   3.693  10.150  0.5442 -0.2473  0.3437
    6CHL1   H1A  415   2.495   3.741  10.108  0.1326 -0.1002  1.3482
    6CHL1   H1B  416   2.576   3.583  10.137 -0.6145 -0.2416  1.0119
    6CHL1    C2  417   2.583   3.714  10.304  1.4826 -0.4768 -0.0474
    6CHL1   H2A  418   2.493   3.660  10.341  0.9708 -1.9852 -3.1981
    6CHL1   H2B  419   2.566   3.821  10.330 -0.2388 -0.4874 -1.0067
    6CHL1   C20  420   2.764   3.788   9.368 -0.1329  0.1947 -0.7706
    6CHL1   H20  421   2.817   3.886   9.363 -0.7165  0.6660  1.1531
    6CHL1   C21  422   2.615   3.809   9.355 -0.4004 -0.0444  0.1331
    6CHL1  H21A  423   2.574   3.882   9.428 -2.8809 -1.2294  0.0453
    6CHL1  H21B  424   2.565   3.710   9.366 -0.4589  0.0620  0.8627
    6CHL1  H21C  425   2.590   3.848   9.254 -1.0505  1.0292  0.6906
    6CHL1   C22  426   2.827   3.724   9.247  1.1574 -0.1163 -0.4338
    6CHL1  H22A  427   2.772   3.774   9.163 -0.1207 -2.4304 -1.0760
    6CHL1  H22B  428   2.932   3.758   9.239  1.4043 -0.6464  0.4574
    6CHL1   C23  429   2.807   3.572   9.231 -0.0442 -0.2668  1.1091
    6CHL1  H23A  430   2.866   3.517   9.307  1.3696  2.4061  2.1105
    6CHL1  H23B  431   2.700   3.552   9.250 -0.3472  1.6580  1.6979
    6CHL1   C24  432   2.845   3.521   9.089  0.3730  0.1353 -0.1424
    6CHL1  H24A  433   2.814   3.415   9.083 -0.6967  0.4635 -0.6401
    6CHL1  H24B  434   2.772   3.572   9.023  1.8847 -1.7810 -3.5907
    6CHL1   C25  435   2.990   3.520   9.040  0.1137 -0.3808  0.7278
    6CHL1   H25  436   3.029   3.624   9.046  0.8714 -0.6806  1.1758
    6CHL1   C26  437   3.071   3.448   9.153 -0.1373 -0.0122  0.2750
    6CHL1  H26A  438   3.035   3.344   9.165 -0.0091  0.0726  1.5461
    6CHL1  H26B  439   3.176   3.436   9.119 -0.0312  2.7982 -0.6630
    6CHL1  H26C  440   3.079   3.502   9.250  0.6440  0.3443  0.0151
    6CHL1   C27  441   3.008   3.458   8.901 -0.3229  0.0016 -0.0701
    6CHL1  H27A  442   2.945   3.517   8.831  0.0836 -1.0711 -1.3752
    6CHL1  H27B  443   3.117   3.468   8.880  0.1172  3.2300  2.7159
    6CHL1  H27C  444   2.977   3.352   8.908  1.0304 -0.3951  0.1526
    7CHL1    C3  445   5.490   0.381  10.285  0.0737  0.8316 -0.5795
    7CHL1    H3  446   5.601   0.381  10.289  0.1008 -0.3687 -0.8797
    7CHL1    O3  447   5.446   0.400  10.422 -0.8392  0.4386  0.1798
    7CHL1   H3'  448   5.353   0.376  10.429 -0.4788 -1.4338 -0.8172
    7CHL1    C4  449   5.443   0.502  10.200 -0.0558 -0.5944  0.1644
    7CHL1   H4A  450   5.333   0.501  10.218 -0.5749 -1.3833 -2.5454
    7CHL1   H4B  451   5.473   0.600  10.242 -0.9203 -0.5828  0.7861
    7CHL1    C5  452   5.459   0.484  10.053 -0.5171 -0.3704  0.7795
    7CHL1    C6  453   5.519   0.581   9.979 -0.3089 -0.3674  0.0927
    7CHL1    H6  454   5.546   0.676  10.026  1.8142 -0.3947 -0.9230
    7CHL1    C7  455   5.549   0.557   9.830  0.6040 -0.3646 -0.3010
    7CHL1   H7A  456   5.551   0.654   9.775  0.0641 -0.6844 -0.8954
    7CHL1   H7B  457   5.651   0.514   9.826  0.8201  0.2276 -1.3487
    7CHL1    C8  458   5.460   0.444   9.761  0.5419  0.9875  0.2366
    7CHL1    H8  459   5.361   0.493   9.746  0.2327 -0.1257 -1.6041
    7CHL1   C14  460   5.515   0.409   9.622  0.2713  0.0898 -0.4457
    7CHL1   H14  461   5.610   0.359   9.647 -0.2726 -0.0708  1.5102
    7CHL1   C15  462   5.523   0.523   9.521  0.3754 -0.1808  0.3002
    7CHL1  H15A  463   5.446   0.599   9.548 -1.1085 -1.5210 -0.0347
    7CHL1  H15B  464   5.622   0.570   9.540 -0.4540  1.3730  0.9712
    7CHL1   C16  465   5.498   0.460   9.383  0.4788  0.6742  0.0631
    7CHL1  H16A  466   5.403   0.495   9.337  1.3258  0.7751 -1.6785
    7CHL1  H16B  467   5.581   0.479   9.312  0.8181 -3.9271 -1.0835
    7CHL1   C17  468   5.495   0.307   9.410  0.5381 -0.2504 -0.5748
    7CHL1   H17  469   5.601   0.285   9.436  0.7624  0.1314 -1.1430
    7CHL1   C13  470   5.425   0.307   9.544  0.3069 -0.3523 -0.4903
    7CHL1   C18  471   5.280   0.361   9.528 -0.2319 -0.2690 -0.8939
    7CHL1  H18A  472   5.231   0.301   9.448  2.6956 -2.2179 -1.4047
    7CHL1  H18B  473   5.214   0.345   9.616 -0.4860 -0.3580 -1.0987
    7CHL1  H18C  474   5.275   0.468   9.500 -1.5356 -0.2435 -0.6316
    7CHL1   C12  475   5.429   0.183   9.628 -0.5205  0.2619  0.0544
    7CHL1  H12A  476   5.370   0.096   9.592  0.1816 -0.4185  0.5265
    7CHL1  H12B  477   5.534   0.147   9.618 -0.5022  0.3927 -0.2422
    7CHL1   C11  478   5.387   0.198   9.778 -0.0231 -0.3435  0.3088
    7CHL1  H11A  479   5.279   0.222   9.767  0.2930  0.5892 -0.8701
    7CHL1  H11B  480   5.397   0.107   9.841  0.2581 -0.1955  0.4805
    7CHL1    C9  481   5.453   0.317   9.850 -0.1378 -0.2133 -0.3636
    7CHL1    H9  482   5.560   0.290   9.862 -0.6401 -1.6416  1.2040
    7CHL1   C10  483   5.407   0.347   9.996  0.5205  0.2061 -0.5857
    7CHL1   C19  484   5.247   0.359   9.984 -0.4751  0.0184  0.0382
    7CHL1  H19A  485   5.219   0.410   9.889  1.2307  0.4025 -0.2837
    7CHL1  H19B  486   5.210   0.255   9.976  0.7030 -0.4323  0.2408
    7CHL1  H19C  487   5.200   0.399  10.076  0.4263 -1.0052  0.9760
    7CHL1    C1  488   5.449   0.235  10.089  0.0788 -0.8518 -0.9685
    7CHL1   H1A  489   5.398   0.140  10.064 -0.6280 -0.7108 -0.0992
    7CHL1   H1B  490   5.559   0.228  10.074  0.3796  0.4127  0.3936
    7CHL1    C2  491   5.425   0.259  10.236 -0.0590  0.3612  0.4175
    7CHL1   H2A  492   5.464   0.168  10.286  0.3551 -1.1406 -2.4383
    7CHL1   H2B  493   5.316   0.251  10.258 -0.0006 -0.4219  0.4177
    7CHL1   C20  494   5.430   0.197   9.304  0.0746  0.4998 -0.6098
    7CHL1   H20  495   5.344   0.161   9.364  1.3034  1.1991  1.6950
    7CHL1   C21  496   5.544   0.096   9.283 -0.5568 -0.3593  0.9600
    7CHL1  H21A  497   5.634   0.150   9.246 -0.7022  1.9961  3.6931
    7CHL1  H21B  498   5.500   0.018   9.217 -0.1810  0.3980 -0.1972
    7CHL1  H21C  499   5.567   0.041   9.378  3.3850 -0.2874  0.2135
    7CHL1   C22  500   5.375   0.252   9.175  0.4985  0.0021  0.9041
    7CHL1  H22A  501   5.304   0.337   9.186  3.4652  3.1242 -1.5625
    7CHL1  H22B  502   5.471   0.286   9.129  1.9667 -3.7698  0.8578
    7CHL1   C23  503   5.321   0.143   9.081 -0.0988  0.5167 -0.3234
    7CHL1  H23A  504   5.411   0.088   9.046  1.6266  1.6918  1.9771
    7CHL1  H23B  505   5.271   0.065   9.142 -0.0741  1.3449  0.7843
    7CHL1   C24  506   5.240   0.202   8.971 -0.0764 -0.4581 -0.3452
    7CHL1  H24A  507   5.141   0.247   8.996  1.7478  3.6540  0.2801
    7CHL1  H24B  508   5.304   0.287   8.939  0.7041 -1.0935 -0.5213
    7CHL1   C25  509   5.238   0.108   8.846  0.2380  0.2834  0.2571
    7CHL1   H25  510   5.343   0.086   8.821  0.6194 -1.3472  2.9224
    7CHL1   C26  511   5.159  -0.022   8.861  0.7076  0.3911 -0.5727
    7CHL1  H26A  512   5.195  -0.079   8.950 -0.4175 -0.7537 -0.8130
    7CHL1  H26B  513   5.049  -0.011   8.851  0.7513 -0.0422 -1.7013
    7CHL1  H26C  514   5.173  -0.088   8.773 -2.3299 -4.3047  1.9849
    7CHL1   C27  515   5.181   0.200   8.737  1.3090 -1.5371  0.7265
    7CHL1  H27A  516   5.237   0.296   8.735 -3.1950  1.4190  1.5058
    7CHL1  H27B  517   5.182   0.169   8.630 -0.0608  0.5641  0.0528
    7CHL1  H27C  518   5.077   0.231   8.756  1.6462  0.1560 -0.0023
    8CHL1    C3  519   6.608   1.972  10.495 -1.0894 -0.4118  0.1205
    8CHL1    H3  520   6.667   1.879  10.497 -0.5329 -0.0727 -0.3148
    8CHL1    O3  521   6.566   1.990  10.632  0.0264  0.0771 -0.7901
    8CHL1   H3'  522   6.515   2.071  10.632  1.4823  1.0264 -0.2568
    8CHL1    C4  523   6.681   2.098  10.443 -0.0108  0.2323  1.0125
    8CHL1   H4A  524   6.607   2.178  10.465 -0.6847 -0.2095  0.4068
    8CHL1   H4B  525   6.765   2.137  10.503  1.0905  1.0651 -0.9772
    8CHL1    C5  526   6.697   2.095  10.294 -0.0857  0.3981  0.7195
    8CHL1    C6  527   6.822   2.117  10.243  0.0041  0.2759 -0.3526
    8CHL1    H6  528   6.909   2.136  10.308 -0.8110  1.7258  0.3664
    8CHL1    C7  529   6.854   2.115  10.097 -0.0815  0.3360  0.8712
    8CHL1   H7A  530   6.932   2.190  10.071  0.6847 -0.3277  1.2026
    8CHL1   H7B  531   6.888   2.017  10.056 -1.0209  0.6758 -0.7966
    8CHL1    C8  532   6.728   2.115  10.005  0.1586  0.5868  0.3125
    8CHL1    H8  533   6.686   2.217   9.995  0.7447  0.9704  1.5496
    8CHL1   C14  534   6.763   2.066   9.863  0.8611  0.5092  0.5770
    8CHL1   H14  535   6.785   1.957   9.864 -0.0764  0.2314 -1.8376
    8CHL1   C15  536   6.860   2.146   9.783 -0.4500  0.5481  0.1593
    8CHL1  H15A  537   6.836   2.254   9.785 -2.0410  0.2088  0.3753
    8CHL1  H15B  538   6.953   2.117   9.836 -0.1008 -0.2438 -0.8422
    8CHL1   C16  539   6.866   2.091   9.641  1.1400 -0.6560  0.7099
    8CHL1  H16A  540   6.890   2.170   9.567 -0.4477 -0.4133  0.4110
    8CHL1  H16B  541   6.945   2.013   9.635  2.5489  0.8216 -1.3452
    8CHL1   C17  542   6.722   2.025   9.631  0.7928  0.3880  0.3163
    8CHL1   H17  543   6.731   1.915   9.641  1.3496  0.3981  0.0148
    8CHL1   C13  544   6.647   2.064   9.759  0.2385 -0.2074 -0.0839
    8CHL1   C18  545   6.597   2.212   9.735  0.7495 -0.0806 -0.7087
    8CHL1  H18A  546   6.664   2.293   9.697 -0.3193  1.2329  0.1181
    8CHL1  H18B  547   6.502   2.217   9.679 -0.8640  1.1088  1.9494
    8CHL1  H18C  548   6.551   2.246   9.830 -0.7290 -1.1607 -1.0074
    8CHL1   C12  549   6.553   1.962   9.818  0.7911 -0.4049  0.2846
    8CHL1  H12A  550   6.462   1.935   9.759  1.1418 -1.9276  0.4006
    8CHL1  H12B  551   6.605   1.865   9.827 -0.6568 -1.1584  0.9118
    8CHL1   C11  552   6.499   2.010   9.960 -0.3436 -0.5527  0.1859
    8CHL1  H11A  553   6.430   2.097   9.960 -0.3854 -0.5737 -0.8091
    8CHL1  H11B  554   6.439   1.921   9.990 -1.0580 -1.0587 -2.5199
    8CHL1    C9  555   6.620   2.026  10.060  0.2240 -0.2300 -0.5654
    8CHL1    H9  556   6.665   1.925  10.064 -1.1089 -0.8032  1.2485
    8CHL1   C10  557   6.578   2.057  10.202 -0.3830  0.2375 -0.1521
    8CHL1   C19  558   6.477   2.181  10.194  0.3461  0.4162 -0.6654
    8CHL1  H19A  559   6.423   2.199  10.290 -0.8046  0.0715 -1.2326
    8CHL1  H19B  560   6.527   2.275  10.164  1.6173 -0.1097 -0.2607
    8CHL1  H19C  561   6.386   2.155  10.135  1.7801  1.5907 -3.5655
    8CHL1    C1  562   6.507   1.931  10.267  0.2547  0.4014  0.0398
    8CHL1   H1A  563   6.408   1.905  10.225 -0.5548 -0.0232  2.0836
    8CHL1   H1B  564   6.558   1.833  10.259 -2.0513 -1.1497  2.8406
    8CHL1    C2  565   6.478   1.945  10.417  0.0334  0.2540 -0.0678
    8CHL1   H2A  566   6.439   1.846  10.449  2.2123 -0.6046  0.1710
    8CHL1   H2B  567   6.404   2.025  10.439  1.6503  1.7735  0.0661
    8CHL1   C20  568   6.647   2.059   9.500 -0.1312 -0.4024  0.3876
    8CHL1   H20  569   6.642   2.170   9.489  1.0968 -0.2429  1.2662
    8CHL1   C21  570   6.507   2.002   9.498 -0.9138  0.2855 -0.3609
    8CHL1  H21A  571   6.519   1.898   9.533 -0.4522  0.6651  0.6405
    8CHL1  H21B  572   6.466   2.000   9.395 -2.0161  0.0228  0.0695
    8CHL1  H21C  573   6.437   2.071   9.550  0.2018  0.7802  0.5309
    8CHL1   C22  574   6.732   2.018   9.380  0.7121 -0.6948 -0.6711
    8CHL1  H22A  575   6.830   2.070   9.382  0.1112  0.5352 -1.8087
    8CHL1  H22B  576   6.754   1.909   9.382  0.1406 -0.8062  1.1325
    8CHL1   C23  577   6.671   2.047   9.238 -0.2667 -0.2558 -0.6260
    8CHL1  H23A  578   6.581   1.983   9.225 -0.8430  0.4796 -0.3571
    8CHL1  H23B  579   6.626   2.149   9.238 -2.1490 -1.0348 -0.1819
    8CHL1   C24  580   6.768   2.026   9.121 -0.4614 -0.3406 -0.6589
    8CHL1  H24A  581   6.864   2.081   9.136  0.6445 -2.3075 -0.1600
    8CHL1  H24B  582   6.812   1.924   9.123  0.2159 -0.0595  1.1410
    8CHL1   C25  583   6.703   2.057   8.988 -0.1937  0.2320  0.0747
    8CHL1   H25  584   6.657   2.158   8.995 -3.1702 -1.0880  1.1961
    8CHL1   C26  585   6.815   2.050   8.879  0.2398  0.4209  0.6330
    8CHL1  H26A  586   6.846   1.943   8.882 -0.1688  0.3112  1.1729
    8CHL1  H26B  587   6.776   2.078   8.779 -2.2601 -0.9479  1.1131
    8CHL1  H26C  588   6.906   2.105   8.909  1.1801 -1.2801  1.0558
    8CHL1   C27  589   6.591   1.960   8.960 -0.4481 -0.5148  0.3346
    8CHL1  H27A  590   6.540   1.966   8.862  0.0920 -0.3783  0.0560
    8CHL1  H27B  591   6.635   1.858   8.966  2.0582  0.4598 -0.0061
    8CHL1  H27C  592   6.507   1.964   9.032 -1.4153  1.9701 -0.8293
    9CHL1    C3  593   1.718   6.455  10.055 -0.1192  0.3762 -0.1196
    9CHL1    H3  594   1.814   6.400  10.067  0.5488  1.4403 -0.4469
    9CHL1    O3  595   1.650   6.446  10.181  0.0318  0.0842 -0.1658
    9CHL1   H3'  596   1.609   6.360  10.183  2.8211 -1.3620  0.5993
    9CHL1    C4  597   1.752   6.598  10.010  0.6977  0.2383  0.6417
    9CHL1   H4A  598   1.652   6.647  10.003 -0.9863 -3.0314  0.0471
    9CHL1   H4B  599   1.805   6.645  10.096  2.2336  0.5470 -0.4410
    9CHL1    C5  600   1.823   6.610   9.874 -0.4984  0.7705 -0.5169
    9CHL1    C6  601   1.947   6.660   9.867 -0.1848 -0.0930  0.6588
    9CHL1    H6  602   1.989   6.699   9.961 -0.9489 -1.1314  1.4503
    9CHL1    C7  603   2.030   6.656   9.744 -0.2711  0.0850  0.2681
    9CHL1   H7A  604   2.096   6.746   9.738  0.1160 -0.2381 -0.4291
    9CHL1   H7B  605   2.098   6.568   9.745  0.0072  0.2935  0.0497
    9CHL1    C8  606   1.942   6.645   9.615 -0.1259 -0.0203 -0.3800
    9CHL1    H8  607   1.878   6.735   9.605 -1.8567 -1.2273 -0.6924
    9CHL1   C14  608   2.025   6.621   9.487 -0.8758  0.3952  0.5110
    9CHL1   H14  609   2.086   6.530   9.503 -1.9789 -0.4817 -0.1028
    9CHL1   C15  610   2.132   6.731   9.469 -0.0203 -0.1619  0.1572
    9CHL1  H15A  611   2.095   6.824   9.518 -1.6606 -2.7534  4.3727
    9CHL1  H15B  612   2.223   6.702   9.526  0.1064  1.1172  0.6385
    9CHL1   C16  613   2.163   6.733   9.320 -0.7659  0.0377 -0.0251
    9CHL1  H16A  614   2.142   6.832   9.275 -0.7161 -0.2372 -0.6700
    9CHL1  H16B  615   2.271   6.711   9.303 -0.5060  1.2888 -0.0720
    9CHL1   C17  616   2.069   6.623   9.250  0.2049 -0.0099 -0.3965
    9CHL1   H17  617   2.120   6.525   9.267 -1.2940 -0.9724 -1.2464
    9CHL1   C13  618   1.951   6.613   9.353  0.0512  0.6902  0.6096
    9CHL1   C18  619   1.854   6.731   9.330  1.0909  0.2902 -0.4622
    9CHL1  H18A  620   1.791   6.705   9.242 -0.6359 -2.4898  1.3950
    9CHL1  H18B  621   1.790   6.735   9.421 -0.7147 -0.2327 -1.6616
    9CHL1  H18C  622   1.903   6.826   9.301  0.8073 -0.0480 -2.1557
    9CHL1   C12  623   1.871   6.481   9.371  0.0817  0.3718  0.4830
    9CHL1  H12A  624   1.803   6.463   9.284 -1.0770  0.2895  1.3858
    9CHL1  H12B  625   1.947   6.401   9.366 -0.8490 -0.4904 -1.9667
    9CHL1   C11  626   1.787   6.482   9.501  0.7200 -0.0185 -0.0958
    9CHL1  H11A  627   1.703   6.553   9.480 -0.6090 -0.7940  2.2447
    9CHL1  H11B  628   1.742   6.384   9.526  2.1363 -0.2022  1.8879
    9CHL1    C9  629   1.853   6.525   9.636  0.8486 -0.3274 -0.3695
    9CHL1    H9  630   1.927   6.444   9.653  1.9662  0.8569  0.6246
    9CHL1   C10  631   1.759   6.536   9.762  0.0837  0.8697 -0.7440
    9CHL1   C19  632   1.637   6.625   9.729  0.8999  0.0749  0.6540
    9CHL1  H19A  633   1.558   6.644   9.805  1.0401  0.8813  0.6142
    9CHL1  H19B  634   1.665   6.721   9.679  0.6071 -0.1649  0.0157
    9CHL1  H19C  635   1.583   6.566   9.652  0.0713  2.0741 -0.3970
    9CHL1    C1  636   1.705   6.397   9.800  0.0353  0.1216 -0.5210
    9CHL1   H1A  637   1.647   6.349   9.718 -1.6101  0.7063  0.2621
    9CHL1   H1B  638   1.800   6.341   9.810  1.3703  2.4464  0.6597
    9CHL1    C2  639   1.642   6.383   9.933  0.4390  0.0799 -0.5999
    9CHL1   H2A  640   1.626   6.277   9.962 -1.7358  0.0818 -1.5401
    9CHL1   H2B  641   1.546   6.439   9.922  0.3389 -0.2245 -1.3374
    9CHL1   C20  642   2.025   6.636   9.108 -0.0144  0.4532 -0.0486
    9CHL1   H20  643   1.955   6.722   9.106  1.7034  1.8921  0.1386
    9CHL1   C21  644   1.954   6.508   9.051 -1.3269 -0.3005  0.3202
    9CHL1  H21A  645   1.845   6.498   9.070 -1.6416 -1.6598 -1.8191
    9CHL1  H21B  646   2.004   6.413   9.079  0.8777  0.9147  0.7554
    9CHL1  H21C  647   1.968   6.503   8.941  0.9841  0.3522  0.5245
    9CHL1   C22  648   2.140   6.678   9.012  0.3464  0.1045 -0.7406
    9CHL1  H22A  649   2.201   6.758   9.059 -2.3525  1.2231  1.1256
    9CHL1  H22B  650   2.202   6.587   8.995  2.2803  1.2164  0.0716
    9CHL1   C23  651   2.101   6.730   8.874 -0.3632  0.0073 -0.2548
    9CHL1  H23A  652   2.060   6.646   8.814 -2.1944 -0.4522  1.5170
    9CHL1  H23B  653   2.026   6.811   8.888 -2.5730 -1.9522 -0.2166
    9CHL1   C24  654   2.231   6.784   8.816 -0.1032 -0.0022  0.0872
    9CHL1  H24A  655   2.268   6.870   8.876  0.3688  1.5049 -2.2259
    9CHL1  H24B  656   2.317   6.715   8.802  0.1568  0.6726 -2.0073
    9CHL1   C25  657   2.209   6.833   8.675 -0.2749 -0.0443  0.2882
    9CHL1   H25  658   2.165   6.754   8.611 -1.3344 -0.1960  1.1823
    9CHL1   C26  659   2.115   6.948   8.662 -0.3354  0.0867 -0.8088
    9CHL1  H26A  660   2.111   6.989   8.559 -1.0045 -0.2242 -0.9152
    9CHL1  H26B  661   2.009   6.916   8.676 -0.0888 -0.5767 -0.4137
    9CHL1  H26C  662   2.140   7.029   8.734 -0.1079  0.6039 -1.4666
    9CHL1   C27  663   2.350   6.879   8.625  0.2741 -0.3930 -0.3383
    9CHL1  H27A  664   2.430   6.805   8.642  1.4429  0.5983 -1.3513
    9CHL1  H27B  665   2.343   6.914   8.520  0.5525 -1.3112 -0.6696
    9CHL1  H27C  666   2.391   6.966   8.681  1.2695 -2.0292  1.5802
   10CHL1    C3  667   1.155   3.565  10.185 -0.0091  0.1900  0.2829
   10CHL1    H3  668   1.119   3.667  10.163 -1.0759 -0.0122  1.0390
   10CHL1    O3  669   1.095   3.514  10.303 -0.2737 -0.5770  0.1181
   10CHL1   H3'  670   1.003   3.502  10.278 -0.2800  1.0941 -0.8128
   10CHL1    C4  671   1.128   3.469  10.068  0.0502  0.6542  0.2498
   10CHL1   H4A  672   1.176   3.373  10.097  0.5784  0.6497 -0.6019
   10CHL1   H4B  673   1.020   3.457  10.048  0.1330 -0.3216  0.3343
   10CHL1    C5  674   1.192   3.510   9.941 -0.3397  0.1107  0.3109
   10CHL1    C6  675   1.115   3.510   9.825 -0.6642  0.0401  0.6268
   10CHL1    H6  676   1.012   3.474   9.820  0.3375 -3.1108  0.8862
   10CHL1    C7  677   1.171   3.545   9.692 -0.1833  0.4290  0.5105
   10CHL1   H7A  678   1.138   3.457   9.632 -1.7579 -0.8187  3.0062
   10CHL1   H7B  679   1.131   3.640   9.649  2.0478  2.1860  2.0890
   10CHL1    C8  680   1.319   3.550   9.687 -0.6300 -0.0471 -0.0058
   10CHL1    H8  681   1.350   3.443   9.682 -2.0548 -0.4480 -0.9998
   10CHL1   C14  682   1.374   3.630   9.570  0.3654  0.6692 -0.1788
   10CHL1   H14  683   1.360   3.739   9.586 -0.9758  0.4892 -0.0147
   10CHL1   C15  684   1.304   3.605   9.431  0.7645  0.1955 -0.2741
   10CHL1  H15A  685   1.288   3.495   9.426  0.7250  0.1602  0.5221
   10CHL1  H15B  686   1.207   3.659   9.425 -0.2714 -1.6257 -0.4639
   10CHL1   C16  687   1.407   3.649   9.333  0.1689  0.0305  0.2213
   10CHL1  H16A  688   1.427   3.561   9.269 -0.8021 -1.7547  2.2818
   10CHL1  H16B  689   1.360   3.729   9.271 -0.0343 -0.7220 -0.6051
   10CHL1   C17  690   1.538   3.693   9.408 -0.0134 -0.2498 -0.4891
   10CHL1   H17  691   1.526   3.800   9.433 -0.9774 -0.2170 -1.0736
   10CHL1   C13  692   1.524   3.618   9.549 -0.5129  0.4243  0.7136
   10CHL1   C18  693   1.565   3.468   9.514 -0.4736  0.0074 -1.0088
   10CHL1  H18A  694   1.556   3.405   9.605  0.9484  1.1734 -0.0156
   10CHL1  H18B  695   1.506   3.423   9.431 -0.5839 -0.6608 -0.5699
   10CHL1  H18C  696   1.671   3.461   9.480  1.4511  2.5309  3.6241
   10CHL1   C12  697   1.599   3.669   9.676 -0.4685  0.1932  0.0344
   10CHL1  H12A  698   1.709   3.655   9.670 -0.6504 -0.9337 -1.0878
   10CHL1  H12B  699   1.574   3.776   9.690  1.1559  0.6513 -0.3591
   10CHL1   C11  700   1.540   3.601   9.815 -0.3650 -0.6534  1.0125
   10CHL1  H11A  701   1.581   3.498   9.807  0.1408 -0.3472 -1.1789
   10CHL1  H11B  702   1.584   3.658   9.899  2.6434 -0.8030 -0.3276
   10CHL1    C9  703   1.390   3.603   9.818 -0.1165  0.0749  0.3151
   10CHL1    H9  704   1.358   3.710   9.825  0.2136  0.1709  0.3754
   10CHL1   C10  705   1.342   3.535   9.950 -0.0142  0.2147  0.2121
   10CHL1   C19  706   1.416   3.401   9.974 -0.4298  0.0475 -0.1879
   10CHL1  H19A  707   1.381   3.341  10.061 -1.6296 -1.4429 -1.6219
   10CHL1  H19B  708   1.411   3.338   9.882 -0.3500 -0.1893 -0.0326
   10CHL1  H19C  709   1.523   3.409  10.003  0.0914  0.5490 -2.0935
   10CHL1    C1  710   1.363   3.625  10.074  0.3155  0.1469 -0.3654
   10CHL1   H1A  711   1.472   3.642  10.087  0.2817  1.4146 -1.5093
   10CHL1   H1B  712   1.315   3.722  10.050 -3.0187 -1.2380  0.2439
   10CHL1    C2  713   1.298   3.583  10.205 -0.2325 -0.5377  1.0032
   10CHL1   H2A  714   1.312   3.669  10.274  0.8453  0.0332  0.1020
   10CHL1   H2B  715   1.340   3.489  10.249 -1.6851 -0.3534  2.9065
   10CHL1   C20  716   1.668   3.682   9.321  0.0403 -0.5422  0.3330
   10CHL1   H20  717   1.680   3.577   9.290  3.3370 -0.2133  0.1584
   10CHL1   C21  718   1.793   3.725   9.410  0.3102 -0.0519  0.1919
   10CHL1  H21A  719   1.808   3.647   9.487 -2.4530 -2.2976 -1.3036
   10CHL1  H21B  720   1.756   3.819   9.455 -0.9821  0.2266 -1.3412
   10CHL1  H21C  721   1.889   3.747   9.359  1.1764 -4.8964 -0.7722
   10CHL1   C22  722   1.656   3.756   9.187  0.0845  0.0591  0.0439
   10CHL1  H22A  723   1.554   3.741   9.146  0.3484 -0.5131 -0.4108
   10CHL1  H22B  724   1.665   3.864   9.210  1.0760  0.1284 -0.6342
   10CHL1   C23  725   1.758   3.700   9.088 -0.7960  0.8987  0.3057
   10CHL1  H23A  726   1.854   3.756   9.102 -0.7491  0.9606 -0.2406
   10CHL1  H23B  727   1.773   3.595   9.121  0.2043  1.5322  2.0153
   10CHL1   C24  728   1.699   3.694   8.949 -0.1524  0.1769 -0.1116
   10CHL1  H24A  729   1.757   3.624   8.886  0.0859 -0.8269  1.1947
   10CHL1  H24B  730   1.599   3.647   8.961  0.0141 -0.3474 -0.7506
   10CHL1   C25  731   1.695   3.834   8.887  0.7422 -0.8539 -0.2218
   10CHL1   H25  732   1.645   3.899   8.961  0.2634 -1.9099  0.4028
   10CHL1   C26  733   1.830   3.906   8.863  0.5274 -0.3906 -0.2037
   10CHL1  H26A  734   1.807   4.005   8.817  1.6867 -0.0200 -0.0069
   10CHL1  H26B  735   1.885   3.928   8.956 -1.1669 -2.6717  1.4435
   10CHL1  H26C  736   1.897   3.863   8.785  1.5221  0.9856 -0.1320
   10CHL1   C27  737   1.611   3.843   8.758 -0.3285 -0.0332  0.5263
   10CHL1  H27A  738   1.653   3.791   8.669 -2.2283  0.7140 -0.8867
   10CHL1  H27B  739   1.508   3.807   8.777  0.1263 -0.0110  3.6040
   10CHL1  H27C  740   1.596   3.951   8.736 -1.7122 -0.2648  0.2586
   11CHL1    C3  741   3.637   6.008  10.085  0.2684  0.4999 -0.2267
   11CHL1    H3  742   3.542   5.954  10.066  0.4976  0.1453 -0.3804
   11CHL1    O3  743   3.667   5.988  10.222 -0.3408 -0.2807  0.3005
   11CHL1   H3'  744   3.757   6.016  10.239  0.1184 -0.6740 -1.3561
   11CHL1    C4  745   3.756   5.943  10.010 -0.5310 -0.2168  0.1516
   11CHL1   H4A  746   3.854   5.983  10.043 -0.5841  0.7296 -0.8159
   11CHL1   H4B  747   3.755   5.833  10.029  0.7952  0.0576  2.2002
   11CHL1    C5  748   3.744   5.970   9.862 -0.1266  0.1130  0.4000
   11CHL1    C6  749   3.733   5.873   9.773 -0.3533 -0.2307  0.2303
   11CHL1    H6  750   3.727   5.769   9.807 -0.8598 -0.0569  0.6767
   11CHL1    C7  751   3.709   5.896   9.628  0.1185  0.2591  1.1455
   11CHL1   H7A  752   3.766   5.820   9.570 -0.2514 -0.4119  1.6520
   11CHL1   H7B  753   3.603   5.891   9.597  0.5883  1.5176 -0.8856
   11CHL1    C8  754   3.757   6.032   9.580  1.2033 -0.4426  0.6829
   11CHL1    H8  755   3.867   6.039   9.589  1.5098 -0.4426 -2.2244
   11CHL1   C14  756   3.698   6.058   9.436  0.3219  0.6962 -0.0003
   11CHL1   H14  757   3.587   6.050   9.431  0.0841  2.6265  1.0789
   11CHL1   C15  758   3.747   5.954   9.331 -0.5353  0.1105 -0.7183
   11CHL1  H15A  759   3.853   5.938   9.361 -1.4109 -0.1436  2.6725
   11CHL1  H15B  760   3.699   5.854   9.346 -0.2575  0.2632  1.4657
   11CHL1   C16  761   3.728   6.029   9.197 -0.0996  0.5169 -0.4297
   11CHL1  H16A  762   3.823   6.020   9.140  1.0690  3.6740  0.8377
   11CHL1  H16B  763   3.649   5.979   9.137 -0.3596  1.8858 -1.2693
   11CHL1   C17  764   3.682   6.173   9.228  0.2985  0.0383 -0.3726
   11CHL1   H17  765   3.571   6.174   9.229  0.2783  2.2226  0.2933
   11CHL1   C13  766   3.727   6.198   9.375 -0.1881 -0.4587  0.0575
   11CHL1   C18  767   3.879   6.221   9.383 -0.6630 -0.0429  0.2904
   11CHL1  H18A  768   3.902   6.313   9.326 -1.1735 -1.5465 -2.5577
   11CHL1  H18B  769   3.905   6.227   9.491  2.2794 -0.9311 -0.2957
   11CHL1  H18C  770   3.936   6.135   9.341 -1.0788 -1.6883  2.8573
   11CHL1   C12  771   3.644   6.297   9.460 -0.1290  0.1679 -0.4849
   11CHL1  H12A  772   3.664   6.402   9.427 -1.1679  0.4224 -0.3169
   11CHL1  H12B  773   3.534   6.291   9.456 -0.3280  1.6266  1.3688
   11CHL1   C11  774   3.677   6.288   9.612 -0.2185  0.1519 -0.5677
   11CHL1  H11A  775   3.778   6.329   9.633 -0.8335  1.8528 -0.7962
   11CHL1  H11B  776   3.613   6.344   9.684  2.7099 -0.8000  3.0999
   11CHL1    C9  777   3.691   6.143   9.672 -0.2755  0.9199  0.8487
   11CHL1    H9  778   3.583   6.119   9.664  0.1394 -0.5273 -1.2679
   11CHL1   C10  779   3.727   6.121   9.823  0.4727  0.3793  0.3467
   11CHL1   C19  780   3.860   6.199   9.842  0.0793 -0.1309 -0.5370
   11CHL1  H19A  781   3.932   6.169   9.763 -0.6563  3.0925 -2.6170
   11CHL1  H19B  782   3.854   6.309   9.833  2.3087  0.0717 -0.2335
   11CHL1  H19C  783   3.891   6.168   9.944 -2.0426  1.2451  0.6038
   11CHL1    C1  784   3.611   6.181   9.908  0.1607  0.1167  0.1204
   11CHL1   H1A  785   3.620   6.292   9.903 -3.6098  0.6188  1.0863
   11CHL1   H1B  786   3.510   6.150   9.874 -0.1917 -0.8035  1.8734
   11CHL1    C2  787   3.615   6.159  10.057  0.2141 -0.0112  0.3635
   11CHL1   H2A  788   3.523   6.201  10.102  1.0006  0.3683  1.6837
   11CHL1   H2B  789   3.700   6.212  10.105 -0.1231 -1.6917  3.0729
   11CHL1   C20  790   3.713   6.270   9.119  0.2915 -0.2820 -0.2463
   11CHL1   H20  791   3.811   6.316   9.145 -1.3239  2.5347  1.4110
   11CHL1   C21  792   3.627   6.400   9.133 -0.1420 -0.4042 -0.0021
   11CHL1  H21A  793   3.518   6.385   9.116 -0.3032 -0.5376  1.0885
   11CHL1  H21B  794   3.664   6.473   9.058 -1.0023 -1.3313 -1.3759
   11CHL1  H21C  795   3.630   6.456   9.228  1.0520  1.1245 -0.8856
   11CHL1   C22  796   3.707   6.204   8.977  0.5882 -0.1714 -0.4541
   11CHL1  H22A  797   3.795   6.137   8.978  1.5276  1.0421 -0.1813
   11CHL1  H22B  798   3.609   6.152   8.965 -0.0938  0.6700  1.0774
   11CHL1   C23  799   3.734   6.301   8.865  0.4051 -0.0133  0.2094
   11CHL1  H23A  800   3.643   6.364   8.849  0.3403 -0.2792 -0.4986
   11CHL1  H23B  801   3.825   6.362   8.884  0.1404  0.9192 -1.3437
   11CHL1   C24  802   3.765   6.210   8.741 -1.0466 -0.3902  0.2109
   11CHL1  H24A  803   3.868   6.170   8.755 -1.0605 -2.0712 -3.4122
   11CHL1  H24B  804   3.701   6.120   8.735 -2.0537  0.1337  2.1319
   11CHL1   C25  805   3.768   6.295   8.610  0.6615  0.7149  0.6629
   11CHL1   H25  806   3.664   6.329   8.589  0.4614 -1.1374 -1.7362
   11CHL1   C26  807   3.858   6.425   8.610  0.6410  0.4599  0.4695
   11CHL1  H26A  808   3.800   6.496   8.674 -1.6352 -0.9425  0.0873
   11CHL1  H26B  809   3.952   6.398   8.663  0.1565  0.2196  1.2361
   11CHL1  H26C  810   3.870   6.470   8.509 -0.3586  1.2722  0.6939
   11CHL1   C27  811   3.808   6.196   8.502 -0.3732 -0.2569 -0.3167
   11CHL1  H27A  812   3.749   6.102   8.503  0.0887 -0.5554 -0.6589
   11CHL1  H27B  813   3.803   6.242   8.400 -0.0014  1.7291  0.5177
   11CHL1  H27C  814   3.914   6.165   8.518 -0.0749  0.9809  0.2129
   12CHL1    C3  815   0.193   1.795  10.404 -0.5434  0.3451 -0.0070
   12CHL1    H3  816   0.135   1.888  10.387  1.1096  1.5861  0.8853
   12CHL1    O3  817   0.195   1.780  10.546 -0.0034 -0.3397  0.1821
   12CHL1   H3'  818   0.221   1.871  10.563 -1.1881  0.5713 -2.3629
   12CHL1    C4  819   0.118   1.675  10.351  0.0440  0.5936 -0.3022
   12CHL1   H4A  820   0.170   1.582  10.381 -0.1003  1.1417  1.8434
   12CHL1   H4B  821   0.018   1.668  10.399  0.3389 -0.0515  0.2180
   12CHL1    C5  822   0.108   1.673  10.205 -0.1631  0.9285  0.1212
   12CHL1    C6  823  -0.004   1.650  10.141  0.3302  0.3083  0.8579
   12CHL1    H6  824  -0.096   1.640  10.200 -0.2703  0.8352  0.0408
   12CHL1    C7  825  -0.014   1.637   9.987 -0.4976 -0.1594  0.2433
   12CHL1   H7A  826  -0.067   1.542   9.964  0.1194 -0.0744 -1.7599
   12CHL1   H7B  827  -0.067   1.723   9.941  0.0042 -0.1957 -0.4275
   12CHL1    C8  828   0.128   1.629   9.922  0.5311  0.2100  0.5994
   12CHL1    H8  829   0.163   1.523   9.928 -1.0245 -0.2448  2.5385
   12CHL1   C14  830   0.111   1.655   9.769  0.0436 -0.0125  0.8637
   12CHL1   H14  831   0.078   1.761   9.765  1.5868  0.5151  1.1256
   12CHL1   C15  832   0.011   1.577   9.682  0.1692  0.5071 -0.6838
   12CHL1  H15A  833   0.031   1.476   9.723 -0.0993  0.9290  0.5150
   12CHL1  H15B  834  -0.094   1.599   9.712 -0.2499 -1.3768 -0.6431
   12CHL1   C16  835   0.049   1.608   9.533 -0.3854  0.1793 -0.6172
   12CHL1  H16A  836   0.056   1.506   9.490  2.9241  0.5054 -1.1438
   12CHL1  H16B  837  -0.023   1.674   9.480  0.3857  1.4187 -0.1744
   12CHL1   C17  838   0.186   1.681   9.545 -0.4047  0.3199 -0.8761
   12CHL1   H17  839   0.161   1.789   9.558 -2.8839 -0.3845  1.0436
   12CHL1   C13  840   0.241   1.650   9.693  0.1024 -0.3859  0.5142
   12CHL1   C18  841   0.297   1.504   9.693  0.0123  0.6540  0.2572
   12CHL1  H18A  842   0.340   1.474   9.791  1.3975 -0.0939 -0.5429
   12CHL1  H18B  843   0.217   1.428   9.678 -0.7172  1.7093 -1.4644
   12CHL1  H18C  844   0.369   1.485   9.611  0.7506  0.5962  0.9112
   12CHL1   C12  845   0.342   1.747   9.754 -0.0377 -0.6678  0.9060
   12CHL1  H12A  846   0.435   1.729   9.697 -0.9045  2.4474 -1.7549
   12CHL1  H12B  847   0.317   1.851   9.725  1.2357 -0.5568  0.1514
   12CHL1   C11  848   0.364   1.728   9.900  0.7724  0.7595 -1.0412
   12CHL1  H11A  849   0.427   1.637   9.913  1.3937  0.9339 -2.5608
   12CHL1  H11B  850   0.418   1.815   9.944 -0.0146  0.1619  1.1883
   12CHL1    C9  851   0.231   1.720   9.985 -0.4620 -0.4677 -0.1789
   12CHL1    H9  852   0.200   1.826   9.969  2.1923  0.0267 -2.9779
   12CHL1   C10  853   0.244   1.694  10.132  0.2797 -0.5346  0.0486
   12CHL1   C19  854   0.331   1.562  10.156  0.5522 -0.9810 -0.6331
   12CHL1  H19A  855   0.352   1.561  10.265  1.0671 -0.4318 -0.7260
   12CHL1  H19B  856   0.271   1.471  10.135 -1.6839  0.3310 -0.2261
   12CHL1  H19C  857   0.422   1.561  10.092  0.9736  0.7816 -0.1005
   12CHL1    C1  858   0.326   1.810  10.195 -0.1301 -0.1936 -0.0185
   12CHL1   H1A  859   0.430   1.812  10.157 -0.1417  0.9352 -0.0297
   12CHL1   H1B  860   0.286   1.910  10.166 -1.7809 -0.2610  1.8364
   12CHL1    C2  861   0.332   1.812  10.351 -0.4156 -0.0892 -0.1537
   12CHL1   H2A  862   0.375   1.910  10.381 -1.3137  0.5463 -0.8893
   12CHL1   H2B  863   0.395   1.726  10.383 -0.3364  0.4869  1.3166
   12CHL1   C20  864   0.282   1.663   9.419 -0.6836 -0.1086 -0.1430
   12CHL1   H20  865   0.389   1.673   9.445 -1.1947 -1.0432  2.5839
   12CHL1   C21  866   0.239   1.778   9.315 -0.4845 -0.4350  0.0593
   12CHL1  H21A  867   0.262   1.873   9.369 -1.9450 -0.6896  1.1725
   12CHL1  H21B  868   0.136   1.775   9.274 -0.9899 -2.1929  1.3446
   12CHL1  H21C  869   0.297   1.774   9.220 -1.6576  2.6521 -0.9200
   12CHL1   C22  870   0.278   1.523   9.349  0.9273 -0.2030 -0.2517
   12CHL1  H22A  871   0.272   1.443   9.427 -1.4694 -0.9411 -1.0887
   12CHL1  H22B  872   0.183   1.513   9.292  0.2067 -0.7544  0.9913
   12CHL1   C23  873   0.388   1.499   9.248 -0.4758  0.7169  0.5978
   12CHL1  H23A  874   0.370   1.576   9.170  1.3180  0.9083  0.3157
   12CHL1  H23B  875   0.485   1.526   9.296  0.7997 -0.0287 -1.4298
   12CHL1   C24  876   0.388   1.360   9.177 -0.1408 -0.3477 -0.1467
   12CHL1  H24A  877   0.284   1.328   9.153 -0.9176  2.1876 -0.5182
   12CHL1  H24B  878   0.443   1.385   9.084 -0.7364 -1.1966 -0.7334
   12CHL1   C25  879   0.453   1.245   9.248  0.1904 -0.2757  0.7639
   12CHL1   H25  880   0.542   1.286   9.301  0.0178 -1.5887  2.1374
   12CHL1   C26  881   0.359   1.186   9.359 -1.1450 -0.3056 -0.5134
   12CHL1  H26A  882   0.413   1.097   9.396  0.8675  0.7502 -0.7751
   12CHL1  H26B  883   0.349   1.254   9.447 -1.4830 -1.6246  0.5051
   12CHL1  H26C  884   0.256   1.174   9.318 -1.9863  3.6064  0.0545
   12CHL1   C27  885   0.490   1.140   9.145  0.0675  0.2779  1.0449
   12CHL1  H27A  886   0.402   1.117   9.080 -0.1316 -1.0420  1.7342
   12CHL1  H27B  887   0.569   1.173   9.074 -2.6866  0.6789 -2.0981
   12CHL1  H27C  888   0.517   1.043   9.192  0.5006  0.4420  1.1398
   13CHL1    C3  889   6.269   4.362   9.901 -0.1517  0.8488  0.6193
   13CHL1    H3  890   6.360   4.413   9.940 -0.2464 -0.6416  2.9732
   13CHL1    O3  891   6.201   4.315  10.018 -0.4949 -0.2895  0.1949
   13CHL1   H3'  892   6.161   4.230   9.997 -0.8926 -0.3838  1.2697
   13CHL1    C4  893   6.184   4.448   9.817 -0.4528 -0.1249  0.4768
   13CHL1   H4A  894   6.089   4.396   9.796  0.4110 -2.5249  2.1070
   13CHL1   H4B  895   6.166   4.535   9.883  0.9790 -0.6038  1.5492
   13CHL1    C5  896   6.241   4.492   9.684 -0.7223  0.0234  0.9810
   13CHL1    C6  897   6.259   4.615   9.638 -0.1079 -0.2612  0.1563
   13CHL1    H6  898   6.225   4.698   9.702 -0.6222  0.0698 -0.5318
   13CHL1    C7  899   6.305   4.653   9.498  0.0341  0.3735 -0.3025
   13CHL1   H7A  900   6.233   4.717   9.444  1.5648  1.6493 -0.9112
   13CHL1   H7B  901   6.403   4.704   9.495  1.5823 -2.1279  2.0924
   13CHL1    C8  902   6.321   4.527   9.399  0.4841 -0.3529  0.3426
   13CHL1    H8  903   6.222   4.492   9.363  1.6836 -1.2260 -2.4145
   13CHL1   C14  904   6.413   4.563   9.280 -0.1694 -0.0930  0.0997
   13CHL1   H14  905   6.512   4.573   9.330 -0.7413  0.2889  1.1792
   13CHL1   C15  906   6.383   4.693   9.200  0.1612  0.0324  0.1609
   13CHL1  H15A  907   6.274   4.708   9.188  0.1471  0.7210  1.0736
   13CHL1  H15B  908   6.444   4.774   9.244  1.3220 -0.5307 -0.3584
   13CHL1   C16  909   6.442   4.665   9.065 -0.0226  0.2394  0.0302
   13CHL1  H16A  910   6.357   4.665   8.994  0.7543  0.2412 -0.9352
   13CHL1  H16B  911   6.517   4.743   9.040  1.6342 -1.8023 -1.8322
   13CHL1   C17  912   6.509   4.524   9.067  0.1112 -1.1153 -0.2932
   13CHL1   H17  913   6.607   4.533   9.118 -0.4300 -0.3522  0.6527
   13CHL1   C13  914   6.428   4.453   9.182  0.0565 -0.1372 -0.8991
   13CHL1   C18  915   6.291   4.415   9.124  0.4517 -0.6116 -0.0678
   13CHL1  H18A  916   6.242   4.499   9.070  1.0192  0.0654  0.4480
   13CHL1  H18B  917   6.298   4.336   9.047 -0.2797 -0.9967  0.2509
   13CHL1  H18C  918   6.230   4.383   9.211 -2.7187  2.0141 -1.1311
   13CHL1   C12  919   6.507   4.346   9.259  0.1759  0.2053  0.5302
   13CHL1  H12A  920   6.535   4.259   9.196 -0.0983  0.9129 -0.6000
   13CHL1  H12B  921   6.599   4.393   9.301 -0.8989 -0.2807  3.7076
   13CHL1   C11  922   6.432   4.297   9.386  0.0612 -0.2596 -0.4609
   13CHL1  H11A  923   6.339   4.244   9.355 -1.6132  2.0973  0.1610
   13CHL1  H11B  924   6.496   4.227   9.444 -0.3508 -0.6287 -0.4443
   13CHL1    C9  925   6.383   4.412   9.479 -0.2163 -0.5225 -0.4310
   13CHL1    H9  926   6.479   4.449   9.521  0.2002 -1.6486 -0.3803
   13CHL1   C10  927   6.292   4.372   9.600  0.3464  0.1926  0.2672
   13CHL1   C19  928   6.177   4.286   9.551 -0.4335  0.3378 -0.3243
   13CHL1  H19A  929   6.205   4.182   9.523 -0.6868 -0.1231  1.0504
   13CHL1  H19B  930   6.105   4.274   9.635 -0.2517  0.9649 -0.0740
   13CHL1  H19C  931   6.114   4.344   9.479  0.5966  0.7195 -0.9449
   13CHL1    C1  932   6.383   4.269   9.690  0.8277  0.7711 -0.6855
   13CHL1   H1A  933   6.419   4.181   9.633  2.5621  0.6832  0.4732
   13CHL1   H1B  934   6.472   4.332   9.713 -0.5908  2.4997  0.3589
   13CHL1    C2  935   6.300   4.231   9.817 -0.6830  0.0593 -0.6538
   13CHL1   H2A  936   6.356   4.160   9.881 -2.2210  0.8856  1.7563
   13CHL1   H2B  937   6.210   4.176   9.781  1.1732 -3.6055 -0.1644
   13CHL1   C20  938   6.515   4.467   8.925 -0.3588  0.0082 -0.0318
   13CHL1   H20  939   6.410   4.443   8.898 -0.0871 -1.1725 -0.0678
   13CHL1   C21  940   6.587   4.329   8.910 -0.0984 -0.9230 -0.3837
   13CHL1  H21A  941   6.678   4.327   8.974 -1.2917 -3.8002  1.3991
   13CHL1  H21B  942   6.619   4.317   8.804  0.3045  0.3087 -0.4254
   13CHL1  H21C  943   6.530   4.239   8.941  2.8471 -2.1293  2.1009
   13CHL1   C22  944   6.567   4.561   8.820 -0.0295  0.7154  0.5949
   13CHL1  H22A  945   6.538   4.528   8.718  0.1533  3.3055 -0.3445
   13CHL1  H22B  946   6.521   4.661   8.822  1.3288  1.4946 -2.1269
   13CHL1   C23  947   6.724   4.564   8.827 -0.0771  0.1174 -0.5348
   13CHL1  H23A  948   6.761   4.601   8.925 -1.4536 -1.8802  0.8037
   13CHL1  H23B  949   6.766   4.467   8.795 -0.0000  0.6366 -2.1085
   13CHL1   C24  950   6.772   4.662   8.716 -0.4363  0.2195  0.0365
   13CHL1  H24A  951   6.744   4.618   8.618 -2.9692  0.6405  0.5185
   13CHL1  H24B  952   6.716   4.757   8.728  1.7495  1.4665  0.9280
   13CHL1   C25  953   6.922   4.691   8.711 -0.3622  0.0506 -0.3640
   13CHL1   H25  954   6.942   4.736   8.810  1.6859  0.7885 -1.0641
   13CHL1   C26  955   7.014   4.566   8.703 -0.2770 -0.8878  0.3609
   13CHL1  H26A  956   7.000   4.504   8.793 -0.1489  0.6346  1.4632
   13CHL1  H26B  957   6.989   4.514   8.608 -1.1447 -0.1176  0.1450
   13CHL1  H26C  958   7.120   4.597   8.707 -0.7033  0.8683 -0.8076
   13CHL1   C27  959   6.964   4.795   8.607 -0.0461  0.0235 -0.0049
   13CHL1  H27A  960   6.933   4.778   8.502 -0.2883  1.3303 -0.1644
   13CHL1  H27B  961   6.942   4.900   8.640  2.7031  0.6967 -0.0707
   13CHL1  H27C  962   7.075   4.794   8.603 -0.0217 -0.1249  0.5285
   14CHL1    C3  963   4.902   6.564  10.269 -0.1006 -0.3931 -0.4055
   14CHL1    H3  964   5.006   6.532  10.245 -0.2903 -0.2705 -1.4025
   14CHL1    O3  965   4.895   6.545  10.409  0.7041  0.7920 -1.0806
   14CHL1   H3'  966   4.980   6.575  10.443  1.2882 -1.7771 -0.0771
   14CHL1    C4  967   4.880   6.703  10.217 -1.0547 -0.5485  0.8468
   14CHL1   H4A  968   4.777   6.734  10.244 -2.2462 -1.2452 -2.3881
   14CHL1   H4B  969   4.939   6.768  10.285 -0.0691 -0.0305 -0.4476
   14CHL1    C5  970   4.916   6.720  10.072  0.8469 -0.3933 -0.4327
   14CHL1    C6  971   5.010   6.803  10.030 -0.0347 -0.0408 -0.5987
   14CHL1    H6  972   5.063   6.857  10.110 -1.4612  1.9751 -0.9502
   14CHL1    C7  973   5.051   6.814   9.883 -0.1258 -0.8542  0.1500
   14CHL1   H7A  974   5.060   6.919   9.848  2.4031 -0.3339  2.0562
   14CHL1   H7B  975   5.150   6.766   9.873  0.5562  0.3770  0.7908
   14CHL1    C8  976   4.948   6.747   9.784  0.2078 -0.1520 -0.0245
   14CHL1    H8  977   4.853   6.803   9.774  0.2173 -0.3270 -1.2920
   14CHL1   C14  978   5.006   6.730   9.642  0.1542 -0.1549  0.8489
   14CHL1   H14  979   5.100   6.676   9.666 -0.5434 -2.0800 -0.5504
   14CHL1   C15  980   5.034   6.855   9.566  0.5513 -0.6402 -0.3212
   14CHL1  H15A  981   4.944   6.919   9.575  0.7949 -0.4273  0.7092
   14CHL1  H15B  982   5.125   6.905   9.607  0.0504  0.8000 -0.9149
   14CHL1   C16  983   5.049   6.814   9.417  0.1173 -0.1353  0.3967
   14CHL1  H16A  984   4.981   6.877   9.356 -1.5165  0.1873  2.4068
   14CHL1  H16B  985   5.152   6.829   9.378  0.2807 -1.0184  0.4580
   14CHL1   C17  986   5.005   6.665   9.415 -0.2050  0.5582 -0.8209
   14CHL1   H17  987   5.096   6.607   9.442  1.2185  3.4184  0.9891
   14CHL1   C13  988   4.918   6.648   9.543  0.0213 -0.0514  0.4778
   14CHL1   C18  989   4.771   6.697   9.525 -0.1109 -0.0800 -0.9113
   14CHL1  H18A  990   4.725   6.715   9.624 -1.3259 -0.4162 -1.3944
   14CHL1  H18B  991   4.766   6.785   9.458 -2.9188  0.7697  0.3089
   14CHL1  H18C  992   4.714   6.616   9.475 -0.5129 -0.1597 -0.3287
   14CHL1   C12  993   4.928   6.509   9.598  0.8773 -0.0039 -0.4945
   14CHL1  H12A  994   4.864   6.445   9.535 -1.4865  1.7535 -0.0092
   14CHL1  H12B  995   5.027   6.462   9.618  1.8656  2.5018  1.1994
   14CHL1   C11  996   4.857   6.504   9.735  0.0462  0.3907 -0.3257
   14CHL1  H11A  997   4.750   6.532   9.732  0.2301  1.2846  0.6459
   14CHL1  H11B  998   4.883   6.401   9.765 -1.6735  0.0496  0.0566
   14CHL1    C9  999   4.922   6.607   9.842  0.1362  1.0605 -0.6817
   14CHL1    H9 1000   5.025   6.578   9.869  0.5107  2.7931 -0.1161
   14CHL1   C10 1001   4.850   6.617   9.984  0.1741  0.5217  0.0428
   14CHL1   C19 1002   4.702   6.667   9.975  0.1589  0.0348 -0.0914
   14CHL1  H19A 1003   4.700   6.772   9.937  1.4904 -0.1347 -0.6664
   14CHL1  H19B 1004   4.653   6.615   9.889  0.0830 -0.8420  0.4749
   14CHL1  H19C 1005   4.653   6.654  10.073  2.2293  1.8610  1.2784
   14CHL1    C1 1006   4.856   6.477  10.038  0.1886 -0.2143 -0.0364
   14CHL1   H1A 1007   4.804   6.404   9.972 -0.7667  1.4161 -1.1660
   14CHL1   H1B 1008   4.961   6.443  10.031  0.4522  0.7917 -1.3180
   14CHL1    C2 1009   4.816   6.465  10.187 -0.7131  0.5585  1.1409
   14CHL1   H2A 1010   4.813   6.361  10.226 -3.1411  0.5272  1.0458
   14CHL1   H2B 1011   4.714   6.499  10.217 -0.8819 -0.3403  1.6463
   14CHL1   C20 1012   4.956   6.607   9.280  0.1878  0.2662 -0.2846
   14CHL1   H20 1013   4.901   6.512   9.293 -0.8130  0.6472 -1.5867
   14CHL1   C21 1014   5.083   6.549   9.208  0.1984  0.1664  0.1895
   14CHL1  H21A 1015   5.142   6.474   9.265 -0.8588 -0.4617  0.4945
   14CHL1  H21B 1016   5.146   6.633   9.172  2.3744 -1.4697 -0.0176
   14CHL1  H21C 1017   5.036   6.490   9.127  0.4761  0.2912 -0.0607
   14CHL1   C22 1018   4.872   6.709   9.189  0.2630  0.0312 -0.0091
   14CHL1  H22A 1019   4.793   6.757   9.250  0.6377 -0.7062  1.0780
   14CHL1  H22B 1020   4.945   6.790   9.168 -0.1463  0.2772 -0.5005
   14CHL1   C23 1021   4.822   6.648   9.055 -0.5987  0.1557 -0.2381
   14CHL1  H23A 1022   4.907   6.606   8.995  1.5316 -0.6845  3.1050
   14CHL1  H23B 1023   4.762   6.558   9.081 -0.4974  0.5236  1.3581
   14CHL1   C24 1024   4.731   6.744   8.976  0.7364 -0.2682  0.7564
   14CHL1  H24A 1025   4.653   6.793   9.038  1.1104  0.7965  0.4109
   14CHL1  H24B 1026   4.790   6.821   8.922 -4.0403  1.5217 -2.5596
   14CHL1   C25 1027   4.667   6.674   8.843 -0.0332 -0.3365  0.1862
   14CHL1   H25 1028   4.634   6.571   8.871  1.1728 -0.8251 -0.1274
   14CHL1   C26 1029   4.539   6.751   8.785 -0.3022  0.3815  0.0850
   14CHL1  H26A 1030   4.464   6.743   8.867 -1.6188  1.3263 -0.9836
   14CHL1  H26B 1031   4.569   6.858   8.772 -1.8680  0.5982 -2.1858
   14CHL1  H26C 1032   4.514   6.702   8.689  1.3151 -0.3528  0.0042
   14CHL1   C27 1033   4.769   6.649   8.731 -0.4669 -0.3749  0.0118
   14CHL1  H27A 1034   4.858   6.594   8.768 -0.1992  0.1133  0.1048
   14CHL1  H27B 1035   4.724   6.589   8.649 -1.3310 -0.0043  0.2072
   14CHL1  H27C 1036   4.808   6.748   8.698  0.1423 -0.7757 -0.4914
   15CHL1    C3 1037   4.355   5.898  10.224  0.4022 -0.2988  0.6130
   15CHL1    H3 1038   4.337   6.007  10.211  0.1604 -0.6823 -3.8881
   15CHL1    O3 1039   4.342   5.869  10.359  0.0211 -0.3252 -0.7209
   15CHL1   H3' 1040   4.371   5.780  10.378 -1.5675 -0.2725  2.8123
   15CHL1    C4 1041   4.238   5.835  10.147  0.5136 -0.1599 -0.2315
   15CHL1   H4A 1042   4.246   5.729  10.182  2.2246 -0.2763 -0.8523
   15CHL1   H4B 1043   4.143   5.880  10.183  0.8853  1.5392 -1.2804
   15CHL1    C5 1044   4.249   5.855   9.997 -0.1172  0.0035  0.3006
   15CHL1    C6 1045   4.141   5.901   9.933 -0.1702 -0.3581  0.1871
   15CHL1    H6 1046   4.054   5.926   9.994 -0.6491 -0.9585 -0.2362
   15CHL1    C7 1047   4.132   5.916   9.785  0.4479  0.3116 -0.5416
   15CHL1   H7A 1048   4.045   5.857   9.751 -0.4413  0.9498  0.5637
   15CHL1   H7B 1049   4.120   6.023   9.755  0.1292  1.4418  3.1439
   15CHL1    C8 1050   4.251   5.846   9.714  0.1526 -0.1760 -0.0135
   15CHL1    H8 1051   4.243   5.736   9.714 -1.4901 -0.0847 -0.3956
   15CHL1   C14 1052   4.267   5.897   9.567 -0.0218 -0.2724  0.5089
   15CHL1   H14 1053   4.286   6.006   9.570 -2.2044  0.1258  1.9725
   15CHL1   C15 1054   4.144   5.891   9.469 -0.4815 -0.4491  0.6635
   15CHL1  H15A 1055   4.069   5.810   9.485 -1.4973  0.3754  0.1569
   15CHL1  H15B 1056   4.083   5.984   9.472 -0.7139 -0.5048 -1.2134
   15CHL1   C16 1057   4.199   5.879   9.322 -0.4807  0.1488 -0.3123
   15CHL1  H16A 1058   4.165   5.785   9.273  1.3153 -1.2982  1.0641
   15CHL1  H16B 1059   4.165   5.967   9.264  1.0740  0.2244 -1.1412
   15CHL1   C17 1060   4.357   5.889   9.343  0.2457  0.4608  0.4348
   15CHL1   H17 1061   4.383   5.997   9.345  3.9212 -0.3190  1.2773
   15CHL1   C13 1062   4.382   5.833   9.483 -0.7528  0.2182 -0.4217
   15CHL1   C18 1063   4.370   5.678   9.486 -0.7110 -0.0545  0.4181
   15CHL1  H18A 1064   4.383   5.652   9.593 -0.2315  1.0430  0.6379
   15CHL1  H18B 1065   4.271   5.647   9.447 -0.6083  2.8207 -2.6645
   15CHL1  H18C 1066   4.451   5.622   9.434  1.5483  3.1432  0.1910
   15CHL1   C12 1067   4.515   5.875   9.558 -0.4389 -0.7149  0.3080
   15CHL1  H12A 1068   4.602   5.822   9.516  0.9961  1.3790  0.4611
   15CHL1  H12B 1069   4.538   5.983   9.544  1.2174 -1.0932 -0.0055
   15CHL1   C11 1070   4.509   5.836   9.712  0.3789  0.6836 -0.4533
   15CHL1  H11A 1071   4.533   5.728   9.724  0.0082  0.8545  2.6109
   15CHL1  H11B 1072   4.598   5.885   9.757  0.4260  0.2058 -0.0144
   15CHL1    C9 1073   4.379   5.881   9.791 -0.0516  0.6888  0.0233
   15CHL1    H9 1074   4.382   5.990   9.810 -0.0755  0.5654  0.7376
   15CHL1   C10 1075   4.382   5.821   9.933 -0.0973  0.3065  0.2484
   15CHL1   C19 1076   4.393   5.660   9.934  0.1959 -0.4870 -0.7980
   15CHL1  H19A 1077   4.498   5.631   9.952  0.2613 -1.0206 -1.9537
   15CHL1  H19B 1078   4.328   5.615  10.012 -1.1386  0.6432 -1.2079
   15CHL1  H19C 1079   4.362   5.616   9.837 -1.8744 -0.0733 -0.3847
   15CHL1    C1 1080   4.496   5.879  10.015 -0.2091 -0.3161  0.0250
   15CHL1   H1A 1081   4.594   5.836   9.987 -0.4391  0.2721 -1.7686
   15CHL1   H1B 1082   4.483   5.989  10.002 -3.0810 -0.7715 -1.7736
   15CHL1    C2 1083   4.494   5.867  10.169  0.1281  0.0611 -0.8503
   15CHL1   H2A 1084   4.574   5.933  10.209 -0.4343 -1.6681  3.7512
   15CHL1   H2B 1085   4.525   5.765  10.199 -0.1836  0.5127  1.0970
   15CHL1   C20 1086   4.424   5.805   9.221 -0.8815 -1.7541 -0.0127
   15CHL1   H20 1087   4.397   5.697   9.215 -0.8924 -1.7664  0.2386
   15CHL1   C21 1088   4.571   5.810   9.245  0.3104  0.4127 -0.6552
   15CHL1  H21A 1089   4.623   5.748   9.168  0.1190  0.1042 -0.5368
   15CHL1  H21B 1090   4.604   5.757   9.337 -1.6893 -2.3538 -1.4067
   15CHL1  H21C 1091   4.606   5.915   9.254 -2.0799  1.2309 -0.2070
   15CHL1   C22 1092   4.394   5.870   9.081  0.0857  0.2113  0.2442
   15CHL1  H22A 1093   4.377   5.979   9.091 -0.9081  0.3323 -2.0258
   15CHL1  H22B 1094   4.483   5.851   9.016  1.4392 -0.2467  2.1531
   15CHL1   C23 1095   4.282   5.811   8.996  0.2584 -0.6629  0.1208
   15CHL1  H23A 1096   4.311   5.713   8.952  1.3409 -0.1677 -0.3141
   15CHL1  H23B 1097   4.189   5.788   9.053  0.2636  0.7930  0.7682
   15CHL1   C24 1098   4.250   5.906   8.880 -0.7029  0.3541  0.7349
   15CHL1  H24A 1099   4.201   5.993   8.928 -0.7791  1.2823 -0.9589
   15CHL1  H24B 1100   4.349   5.936   8.841 -1.2905 -0.2247 -1.2867
   15CHL1   C25 1101   4.162   5.857   8.764 -0.7931  0.5140 -0.0351
   15CHL1   H25 1102   4.199   5.764   8.715  0.3845  0.7775  0.3308
   15CHL1   C26 1103   4.018   5.826   8.798 -0.3383  0.2461 -0.4623
   15CHL1  H26A 1104   3.971   5.762   8.720 -1.5651 -0.2580  0.6484
   15CHL1  H26B 1105   4.000   5.773   8.894  0.5583  0.9230  0.0975
   15CHL1  H26C 1106   3.961   5.921   8.793 -2.5358 -1.0630 -2.2569
   15CHL1   C27 1107   4.168   5.961   8.648 -0.0878 -0.8268 -0.1666
   15CHL1  H27A 1108   4.103   5.944   8.560 -0.7812  0.3239  0.0982
   15CHL1  H27B 1109   4.136   6.059   8.688 -0.4656 -0.4618 -1.3184
   15CHL1  H27C 1110   4.270   5.980   8.608 -0.3828  1.0863 -0.0762
   16CHL1    C3 1111   5.984   5.210  10.016 -0.0394 -0.0819 -0.0094
   16CHL1    H3 1112   5.959   5.316   9.993  0.0864 -0.7479 -3.6819
   16CHL1    O3 1113   5.970   5.195  10.155  0.1291  0.3683 -0.7437
   16CHL1   H3' 1114   6.052   5.231  10.191  0.6368 -3.2565  2.3858
   16CHL1    C4 1115   5.886   5.113   9.941  0.3023  0.5583 -0.1526
   16CHL1   H4A 1116   5.900   5.009   9.978 -0.9067  1.1533  2.1776
   16CHL1   H4B 1117   5.788   5.138   9.987 -0.3906  1.1918 -1.8667
   16CHL1    C5 1118   5.878   5.121   9.792 -0.2749 -0.2394  0.6607
   16CHL1    C6 1119   5.768   5.141   9.714 -0.1203 -0.9283  0.1235
   16CHL1    H6 1120   5.665   5.134   9.751  0.4497 -2.4233  1.5310
   16CHL1    C7 1121   5.776   5.174   9.568  0.5063 -0.3165  1.0647
   16CHL1   H7A 1122   5.696   5.128   9.507  3.0803 -0.6344 -2.3509
   16CHL1   H7B 1123   5.762   5.282   9.547  1.3260 -0.5006 -0.5830
   16CHL1    C8 1124   5.905   5.111   9.513 -0.0368 -0.2572  0.6977
   16CHL1    H8 1125   5.898   5.000   9.516 -1.6786 -0.1796  0.4009
   16CHL1   C14 1126   5.910   5.145   9.361 -0.1700  0.1344 -0.4390
   16CHL1   H14 1127   5.905   5.256   9.350 -0.1070  0.0660 -1.2227
   16CHL1   C15 1128   5.798   5.090   9.270 -0.9920  0.2624  0.5467
   16CHL1  H15A 1129   5.759   4.993   9.309  0.7245 -0.3042  0.9686
   16CHL1  H15B 1130   5.707   5.153   9.264 -1.5160 -0.3968  1.3040
   16CHL1   C16 1131   5.866   5.091   9.134 -0.4902  0.2598 -0.3652
   16CHL1  H16A 1132   5.860   4.985   9.102  1.3093 -0.0289  0.1815
   16CHL1  H16B 1133   5.805   5.150   9.061 -1.5151  1.8339  1.6524
   16CHL1   C17 1134   6.016   5.123   9.147 -0.8550  0.0460 -0.1643
   16CHL1   H17 1135   6.021   5.234   9.135  2.6162 -0.1131 -1.5480
   16CHL1   C13 1136   6.034   5.092   9.294  0.0180  0.5242 -0.7633
   16CHL1   C18 1137   6.050   4.934   9.308 -0.1213  0.0299 -0.3769
   16CHL1  H18A 1138   5.962   4.884   9.262 -1.0010  0.4906  0.7608
   16CHL1  H18B 1139   6.142   4.911   9.251  0.4080  0.7157  0.1785
   16CHL1  H18C 1140   6.064   4.898   9.412  1.1703 -0.6213 -0.7588
   16CHL1   C12 1141   6.157   5.158   9.364 -0.3717 -0.2793 -0.3063
   16CHL1  H12A 1142   6.254   5.112   9.338  0.4515  1.6295 -0.7920
   16CHL1  H12B 1143   6.156   5.267   9.343 -1.3659 -0.7861 -3.3833
   16CHL1   C11 1144   6.165   5.139   9.519 -0.2603  0.4472  0.6333
   16CHL1  H11A 1145   6.187   5.032   9.541  1.8432  1.0905  1.9637
   16CHL1  H11B 1146   6.252   5.196   9.557 -1.2993  1.9592  0.8625
   16CHL1    C9 1147   6.028   5.162   9.589 -0.6430 -0.1309 -0.0427
   16CHL1    H9 1148   6.019   5.272   9.578  0.2871 -0.1789 -1.5385
   16CHL1   C10 1149   6.023   5.123   9.735 -0.8332 -0.5447 -0.3548
   16CHL1   C19 1150   6.063   4.969   9.750  0.2036  0.7271 -0.6547
   16CHL1  H19A 1151   6.054   4.928   9.852  0.6508  0.2894 -0.7898
   16CHL1  H19B 1152   5.990   4.906   9.695 -0.6155  1.2032 -0.1320
   16CHL1  H19C 1153   6.162   4.938   9.709 -0.5583  0.9871 -2.8610
   16CHL1    C1 1154   6.123   5.207   9.816  0.6412  0.4370  0.0707
   16CHL1   H1A 1155   6.224   5.175   9.781  1.3204 -0.2972  2.4910
   16CHL1   H1B 1156   6.114   5.312   9.783  2.6528  0.2190 -1.3096
   16CHL1    C2 1157   6.130   5.189   9.975  0.5863 -0.0033  0.1551
   16CHL1   H2A 1158   6.205   5.262  10.015  1.4266 -0.3339 -0.7832
   16CHL1   H2B 1159   6.170   5.089  10.002 -1.5031 -0.7183  0.7774
   16CHL1   C20 1160   6.091   5.055   9.034 -0.6319  0.0963 -0.3350
   16CHL1   H20 1161   6.071   4.946   9.032  1.1987 -0.2590 -2.1579
   16CHL1   C21 1162   6.241   5.064   9.053  0.2679 -0.6996 -0.0148
   16CHL1  H21A 1163   6.274   4.989   9.128  0.3116  0.2470  0.9440
   16CHL1  H21B 1164   6.266   5.168   9.084  0.0848 -0.6563 -0.0114
   16CHL1  H21C 1165   6.303   5.048   8.962 -1.0757 -1.7375 -0.7722
   16CHL1   C22 1166   6.061   5.112   8.891  0.9819 -0.0754  0.4376
   16CHL1  H22A 1167   6.011   5.211   8.903  2.8822  0.8791  1.0593
   16CHL1  H22B 1168   6.157   5.125   8.836  0.0469  1.8277 -0.8425
   16CHL1   C23 1169   5.962   5.026   8.803 -0.1245 -1.4922  0.5424
   16CHL1  H23A 1170   6.011   4.927   8.794  1.2580 -0.9372  1.5590
   16CHL1  H23B 1171   5.875   5.006   8.868 -1.3927  1.5044 -0.0330
   16CHL1   C24 1172   5.922   5.091   8.675 -0.3076 -0.4572  0.0984
   16CHL1  H24A 1173   5.844   5.031   8.624 -1.5520  1.3700 -0.2332
   16CHL1  H24B 1174   5.868   5.183   8.704 -2.1099 -1.3617 -0.2436
   16CHL1   C25 1175   6.033   5.124   8.577 -0.6004 -0.6040  0.4256
   16CHL1   H25 1176   6.131   5.150   8.621 -0.3184 -1.0946  0.1028
   16CHL1   C26 1177   6.056   5.006   8.480 -0.0147  0.2233  0.1727
   16CHL1  H26A 1178   5.951   4.971   8.469 -0.4778  1.8969 -1.0841
   16CHL1  H26B 1179   6.100   5.036   8.382 -1.2056  4.8573  0.8048
   16CHL1  H26C 1180   6.119   4.926   8.525 -1.0735 -1.1833 -0.7462
   16CHL1   C27 1181   6.011   5.254   8.490  0.2792 -0.2971  0.5673
   16CHL1  H27A 1182   5.922   5.249   8.424  1.7263  2.1674 -1.7633
   16CHL1  H27B 1183   5.991   5.337   8.561 -2.8658 -1.5413  1.2990
   16CHL1  H27C 1184   6.101   5.267   8.426  0.2498 -1.3338  0.3032
   17CHL1    C3 1185   1.965   3.479  10.233  0.4057 -0.2477 -0.5725
   17CHL1    H3 1186   1.923   3.380  10.206  0.5868 -0.4532 -0.1095
   17CHL1    O3 1187   1.935   3.502  10.369  0.4196 -0.5519  0.4668
   17CHL1   H3' 1188   1.954   3.594  10.392 -0.0670 -0.2770 -0.1728
   17CHL1    C4 1189   2.119   3.491  10.220 -0.3905  0.5825  0.3229
   17CHL1   H4A 1190   2.149   3.597  10.238 -0.8531  0.9754 -1.0811
   17CHL1   H4B 1191   2.170   3.428  10.295 -0.1489 -2.0392 -1.8785
   17CHL1    C5 1192   2.149   3.461  10.075 -0.0329  0.1112 -0.5612
   17CHL1    C6 1193   2.234   3.365  10.044  0.8341 -0.2722  0.8558
   17CHL1    H6 1194   2.273   3.299  10.123  1.9551 -1.3601 -0.5424
   17CHL1    C7 1195   2.273   3.335   9.895  0.6153  0.8820  0.1887
   17CHL1   H7A 1196   2.381   3.315   9.883  0.5235  0.5101 -0.0575
   17CHL1   H7B 1197   2.219   3.245   9.856  0.6326  0.2536  1.5490
   17CHL1    C8 1198   2.246   3.447   9.798 -0.3506 -0.2290 -0.7270
   17CHL1    H8 1199   2.316   3.531   9.816 -0.3743 -0.3183 -0.2015
   17CHL1   C14 1200   2.257   3.408   9.654 -0.8515 -0.1070  0.6657
   17CHL1   H14 1201   2.187   3.321   9.653 -0.6306 -0.2989  1.3451
   17CHL1   C15 1202   2.393   3.352   9.603  0.3451  0.4339 -0.2110
   17CHL1  H15A 1203   2.465   3.430   9.635  0.0593  1.1676 -1.2825
   17CHL1  H15B 1204   2.427   3.253   9.639  0.6304  0.6888  0.2274
   17CHL1   C16 1205   2.373   3.364   9.448 -0.1895  0.9762 -0.7825
   17CHL1  H16A 1206   2.459   3.420   9.406  0.7981 -0.4416 -0.7226
   17CHL1  H16B 1207   2.363   3.269   9.392  0.6173  0.5708 -0.2629
   17CHL1   C17 1208   2.244   3.440   9.425  0.3031  0.5809  0.9480
   17CHL1   H17 1209   2.163   3.363   9.428  0.7170  0.0540 -0.7401
   17CHL1   C13 1210   2.214   3.511   9.553  0.5943  0.6630 -0.1635
   17CHL1   C18 1211   2.305   3.631   9.561  0.1038 -0.7216  0.1812
   17CHL1  H18A 1212   2.318   3.674   9.662  1.6181 -0.7427  0.0130
   17CHL1  H18B 1213   2.403   3.605   9.515  0.4288 -2.5487  1.7688
   17CHL1  H18C 1214   2.264   3.710   9.495  2.4125  0.7585  0.4289
   17CHL1   C12 1215   2.070   3.556   9.576  0.4732  0.1639 -0.4209
   17CHL1  H12A 1216   2.036   3.637   9.507 -3.5005  0.0139  1.1070
   17CHL1  H12B 1217   2.005   3.466   9.565  1.0135 -0.0377 -2.5557
   17CHL1   C11 1218   2.054   3.601   9.717 -0.2791 -0.4333 -0.7326
   17CHL1  H11A 1219   2.118   3.691   9.728 -0.0777 -0.7974  1.7794
   17CHL1  H11B 1220   1.951   3.638   9.737 -0.4322 -1.0783 -0.3045
   17CHL1    C9 1221   2.104   3.498   9.825 -0.1280  0.2930  0.6366
   17CHL1    H9 1222   2.035   3.411   9.829  0.5171 -0.1881  2.0510
   17CHL1   C10 1223   2.081   3.553   9.970  1.1345  0.0878  0.2247
   17CHL1   C19 1224   2.136   3.697   9.987 -0.0568 -0.3166  0.0050
   17CHL1  H19A 1225   2.118   3.749  10.084  2.0028  4.6059 -1.9320
   17CHL1  H19B 1226   2.247   3.699   9.982  0.0450 -1.9261  0.8666
   17CHL1  H19C 1227   2.084   3.759   9.911 -0.5815 -0.5909  0.1291
   17CHL1    C1 1228   1.927   3.562  10.000 -0.7270 -0.8406 -0.1182
   17CHL1   H1A 1229   1.885   3.643   9.936 -0.6058 -0.8416 -0.2004
   17CHL1   H1B 1230   1.882   3.466   9.967 -2.4852  0.0899 -0.5466
   17CHL1    C2 1231   1.890   3.581  10.148 -0.3673 -0.4484 -0.0456
   17CHL1   H2A 1232   1.780   3.563  10.157 -0.2287 -1.7455 -0.7157
   17CHL1   H2B 1233   1.903   3.687  10.179 -0.1228 -0.4393 -0.1776
   17CHL1   C20 1234   2.225   3.512   9.291  0.3150 -0.6592  0.0218
   17CHL1   H20 1235   2.151   3.594   9.301  0.6551 -0.1141 -1.6495
   17CHL1   C21 1236   2.174   3.398   9.198 -0.5469  0.0853  0.1504
   17CHL1  H21A 1237   2.161   3.432   9.093  1.5623 -1.4140 -0.6640
   17CHL1  H21B 1238   2.078   3.358   9.238 -1.1913  0.0649 -1.3589
   17CHL1  H21C 1239   2.237   3.306   9.199 -0.0987  0.3915  0.6052
   17CHL1   C22 1240   2.346   3.579   9.223  0.5677 -0.0074  0.0210
   17CHL1  H22A 1241   2.382   3.658   9.291 -2.3140  1.9645 -0.5271
   17CHL1  H22B 1242   2.426   3.512   9.187  0.3950  1.3404 -3.2783
   17CHL1   C23 1243   2.306   3.667   9.098  0.0898  0.1528  0.4053
   17CHL1  H23A 1244   2.226   3.622   9.036 -0.2150 -0.5768  1.3145
   17CHL1  H23B 1245   2.262   3.758   9.144 -1.2530 -2.1784  4.2257
   17CHL1   C24 1246   2.434   3.683   9.021  0.3809 -0.1887  0.6429
   17CHL1  H24A 1247   2.525   3.694   9.083  0.8069 -1.6440  0.3033
   17CHL1  H24B 1248   2.451   3.591   8.961 -0.2573 -0.9726  1.6439
   17CHL1   C25 1249   2.429   3.799   8.912  1.1070  0.7154  0.3487
   17CHL1   H25 1250   2.428   3.898   8.962  1.4285  0.1540  1.4980
   17CHL1   C26 1251   2.560   3.807   8.834  0.8061  0.3315 -0.1794
   17CHL1  H26A 1252   2.559   3.890   8.760 -0.1207  1.1115  0.6762
   17CHL1  H26B 1253   2.650   3.806   8.900  0.4474  0.3250  0.3143
   17CHL1  H26C 1254   2.574   3.718   8.770  0.7436  0.3825 -0.2648
   17CHL1   C27 1255   2.303   3.797   8.819  0.4390  0.6050  0.2236
   17CHL1  H27A 1256   2.280   3.697   8.777  0.0909  0.1904  1.3556
   17CHL1  H27B 1257   2.210   3.821   8.875 -0.3183  1.1683 -1.2307
   17CHL1  H27C 1258   2.313   3.873   8.739  0.0869  0.9921  0.5397
   18CHL1    C3 1259   1.153   1.983  10.239  0.0021 -0.0528 -0.2205
   18CHL1    H3 1260   1.096   1.888  10.240 -0.0533 -0.0265 -0.6038
   18CHL1    O3 1261   1.194   2.019  10.369  0.3977 -0.0333 -0.0535
   18CHL1   H3' 1262   1.266   2.080  10.349 -0.5079  0.9018 -0.5802
   18CHL1    C4 1263   1.275   1.975  10.143  0.7365  0.8638  0.5458
   18CHL1   H4A 1264   1.319   2.075  10.160 -3.0129  3.0547 -1.3657
   18CHL1   H4B 1265   1.344   1.892  10.171 -1.7707 -2.6527 -2.6679
   18CHL1    C5 1266   1.239   1.960   9.997  0.4877 -0.0025 -0.0836
   18CHL1    C6 1267   1.280   1.859   9.922 -0.0886 -1.0628  0.3572
   18CHL1    H6 1268   1.334   1.775   9.968  1.1827  0.1625  1.1832
   18CHL1    C7 1269   1.256   1.849   9.775 -0.3621 -0.6106 -0.1659
   18CHL1   H7A 1270   1.345   1.826   9.712 -1.1949 -0.0814 -1.5922
   18CHL1   H7B 1271   1.182   1.769   9.752  0.7469 -1.3687 -1.3006
   18CHL1    C8 1272   1.203   1.981   9.710 -1.3886 -0.8974 -0.3205
   18CHL1    H8 1273   1.289   2.051   9.710  0.4818 -3.0535 -0.8018
   18CHL1   C14 1274   1.154   1.962   9.570  0.5580  0.3711  0.1657
   18CHL1   H14 1275   1.070   1.890   9.579 -0.3590  1.0479 -2.3221
   18CHL1   C15 1276   1.235   1.899   9.461  0.2392 -0.1889 -0.0378
   18CHL1  H15A 1277   1.333   1.951   9.458 -0.2037  0.6975  0.6645
   18CHL1  H15B 1278   1.259   1.792   9.482  0.1958 -0.3832 -0.9638
   18CHL1   C16 1279   1.158   1.911   9.334  0.0353 -0.4625  0.0565
   18CHL1  H16A 1280   1.232   1.933   9.254  0.5094  1.5530  0.9722
   18CHL1  H16B 1281   1.096   1.822   9.311 -1.3730 -0.1997  2.4659
   18CHL1   C17 1282   1.055   2.027   9.366  0.5033  0.2194  0.1965
   18CHL1   H17 1283   0.957   1.979   9.383  0.5234 -0.0681 -0.4725
   18CHL1   C13 1284   1.092   2.086   9.505 -0.3971 -0.6704  0.0060
   18CHL1   C18 1285   1.190   2.197   9.484 -0.4047 -0.2975  0.0648
   18CHL1  H18A 1286   1.147   2.292   9.445 -1.1016 -1.4146 -2.0430
   18CHL1  H18B 1287   1.243   2.217   9.579  2.0809  1.0222 -1.4842
   18CHL1  H18C 1288   1.264   2.171   9.405 -2.2092 -0.9565 -1.4913
   18CHL1   C12 1289   0.966   2.122   9.584 -0.6015  0.1781  0.0592
   18CHL1  H12A 1290   0.905   2.207   9.545  0.7371  0.9406 -0.4376
   18CHL1  H12B 1291   0.909   2.027   9.577  1.4382 -1.0392 -1.0275
   18CHL1   C11 1292   1.008   2.153   9.733 -0.1388  0.2310 -0.3835
   18CHL1  H11A 1293   1.065   2.248   9.728 -0.4792  0.6063  1.7998
   18CHL1  H11B 1294   0.928   2.184   9.803  1.6760  1.4072  1.2571
   18CHL1    C9 1295   1.093   2.036   9.797 -0.0318  0.0837 -0.3191
   18CHL1    H9 1296   1.023   1.952   9.816  1.3701 -0.4571  3.4196
   18CHL1   C10 1297   1.140   2.068   9.936  0.3162 -0.0921 -0.2117
   18CHL1   C19 1298   1.213   2.207   9.946 -0.0415 -0.3463 -0.0596
   18CHL1  H19A 1299   1.141   2.284   9.910  1.3643  0.4692 -1.2528
   18CHL1  H19B 1300   1.257   2.234  10.044 -1.0593 -1.5881  0.7571
   18CHL1  H19C 1301   1.289   2.208   9.864 -0.2333  0.0090 -0.2382
   18CHL1    C1 1302   1.019   2.070  10.036  0.2974 -0.3143  0.2402
   18CHL1   H1A 1303   0.961   2.161  10.011  3.1939  0.8032 -3.3194
   18CHL1   H1B 1304   0.959   1.979  10.015  0.9261 -1.0825  1.6271
   18CHL1    C2 1305   1.050   2.087  10.188  0.8955  0.1746 -0.0124
   18CHL1   H2A 1306   0.954   2.062  10.238  0.8879 -0.3733 -0.2997
   18CHL1   H2B 1307   1.081   2.192  10.210 -0.2674  0.4543  0.3604
   18CHL1   C20 1308   1.035   2.118   9.241  0.2545  0.0110 -0.3017
   18CHL1   H20 1309   1.135   2.152   9.206 -0.1819 -0.4859 -2.1526
   18CHL1   C21 1310   0.935   2.233   9.273  0.4337  0.3077 -0.1347
   18CHL1  H21A 1311   0.975   2.296   9.356  1.5569 -2.7398  1.8057
   18CHL1  H21B 1312   0.834   2.202   9.308  0.0697  0.9963 -0.5388
   18CHL1  H21C 1313   0.930   2.288   9.177  2.6294 -2.4136 -1.9500
   18CHL1   C22 1314   0.992   2.035   9.118  0.4257  0.0108 -0.3027
   18CHL1  H22A 1315   1.064   1.953   9.097  2.4412  1.3717  1.0091
   18CHL1  H22B 1316   0.889   1.997   9.136  0.0230  0.5319 -1.4017
   18CHL1   C23 1317   0.984   2.115   8.987  0.3953  0.2154 -0.6661
   18CHL1  H23A 1318   0.905   2.192   8.994  1.8465  1.6239  1.1870
   18CHL1  H23B 1319   1.084   2.163   8.975  0.7445  0.0794  1.3213
   18CHL1   C24 1320   0.958   2.017   8.867  0.3682 -0.0948  1.0597
   18CHL1  H24A 1321   1.045   1.949   8.855  0.7512  0.3500  1.2948
   18CHL1  H24B 1322   0.861   1.965   8.882  0.1143  0.0143 -0.0443
   18CHL1   C25 1323   0.952   2.089   8.733 -0.6046  0.6805 -0.2583
   18CHL1   H25 1324   0.946   2.017   8.648 -0.0090  1.3210 -0.8655
   18CHL1   C26 1325   0.831   2.190   8.718  0.1089  0.2046  0.3264
   18CHL1  H26A 1326   0.730   2.143   8.722 -0.0382  0.5842  1.2380
   18CHL1  H26B 1327   0.843   2.254   8.807  0.1783 -0.3855  0.7468
   18CHL1  H26C 1328   0.836   2.239   8.618 -1.8845 -0.0138  0.0595
   18CHL1   C27 1329   1.086   2.163   8.709  0.9269  1.0254  0.0306
   18CHL1  H27A 1330   1.098   2.245   8.783 -0.0948  2.1081 -0.9704
   18CHL1  H27B 1331   1.176   2.100   8.725  2.1703  1.7809 -3.3190
   18CHL1  H27C 1332   1.091   2.203   8.605 -2.8595 -1.7535 -1.4542
   19CHL1    C3 1333   4.634   4.595  10.168 -0.5948  0.5132  0.2028
   19CHL1    H3 1334   4.673   4.491  10.162 -1.3066  0.1952  0.9627
   19CHL1    O3 1335   4.581   4.600  10.299 -0.0735  0.7991 -0.3456
   19CHL1   H3' 1336   4.525   4.677  10.293 -0.3930  0.4533 -3.7914
   19CHL1    C4 1337   4.754   4.701  10.164  0.6390  0.3318 -0.3964
   19CHL1   H4A 1338   4.716   4.795  10.210 -1.7802 -0.8416  0.1699
   19CHL1   H4B 1339   4.827   4.667  10.241 -0.0742  0.4180  0.3244
   19CHL1    C5 1340   4.810   4.715  10.026  0.3295  0.1610  0.0512
   19CHL1    C6 1341   4.947   4.701  10.002  0.2153  0.5287 -0.0833
   19CHL1    H6 1342   5.025   4.679  10.077  1.5372  3.8201 -0.3260
   19CHL1    C7 1343   4.998   4.731   9.866 -0.2073 -0.1770  0.3791
   19CHL1   H7A 1344   5.100   4.776   9.874 -1.2048  1.9778  1.8405
   19CHL1   H7B 1345   5.002   4.640   9.802 -1.7839 -0.5887  0.8153
   19CHL1    C8 1346   4.905   4.829   9.776  0.5123 -0.9258 -0.4050
   19CHL1    H8 1347   4.898   4.931   9.821 -2.1058 -0.0092 -2.6090
   19CHL1   C14 1348   4.962   4.850   9.644  0.2905 -0.0965  0.2174
   19CHL1   H14 1349   4.960   4.758   9.582  1.2912  0.8864 -1.3333
   19CHL1   C15 1350   5.111   4.886   9.638 -0.3099 -0.0986 -0.2259
   19CHL1  H15A 1351   5.151   4.963   9.706  0.9654 -1.3335  0.4716
   19CHL1  H15B 1352   5.176   4.795   9.642  1.0370  0.8184 -0.6094
   19CHL1   C16 1353   5.118   4.951   9.493 -1.1016  0.4374 -0.7983
   19CHL1  H16A 1354   5.146   5.058   9.506  1.1577 -0.2781  0.8648
   19CHL1  H16B 1355   5.197   4.906   9.430  0.3075 -1.2844  1.9951
   19CHL1   C17 1356   4.970   4.935   9.431 -0.5816  0.1440 -0.5242
   19CHL1   H17 1357   4.978   4.831   9.393  1.9460 -0.5639  1.6516
   19CHL1   C13 1358   4.873   4.935   9.552 -0.5703  0.7490 -0.4730
   19CHL1   C18 1359   4.870   5.078   9.614  0.0532 -0.4686 -0.6633
   19CHL1  H18A 1360   4.974   5.117   9.621  0.2560 -1.1063 -0.0536
   19CHL1  H18B 1361   4.825   5.156   9.549  0.3154 -0.6397 -1.0547
   19CHL1  H18C 1362   4.820   5.074   9.713 -0.6369  0.4162 -0.9587
   19CHL1   C12 1363   4.732   4.864   9.537 -0.3997  0.0145  0.0804
   19CHL1  H12A 1364   4.673   4.938   9.479 -0.3707  0.2823  0.3848
   19CHL1  H12B 1365   4.747   4.766   9.486  0.1796 -0.0574  0.3784
   19CHL1   C11 1366   4.666   4.836   9.674  1.1601  0.0025 -1.0018
   19CHL1  H11A 1367   4.649   4.939   9.714  0.4536 -0.6749  0.5530
   19CHL1  H11B 1368   4.570   4.781   9.662  1.0808  0.4702 -2.6792
   19CHL1    C9 1369   4.760   4.769   9.778  0.5493 -0.3568  0.4433
   19CHL1    H9 1370   4.788   4.672   9.732  0.2785 -0.7042  0.9970
   19CHL1   C10 1371   4.701   4.749   9.921  0.1878 -0.0652  0.3915
   19CHL1   C19 1372   4.634   4.880   9.952 -0.2854  0.1059  0.7769
   19CHL1  H19A 1373   4.705   4.966   9.952 -1.2821  0.9799  2.5110
   19CHL1  H19B 1374   4.553   4.917   9.887 -1.0476  2.7242  3.0168
   19CHL1  H19C 1375   4.605   4.879  10.060  0.1755 -2.3494  0.9305
   19CHL1    C1 1376   4.593   4.636   9.918 -0.3941 -0.3477 -0.2670
   19CHL1   H1A 1377   4.510   4.666   9.850 -0.1825 -1.3220 -0.9810
   19CHL1   H1B 1378   4.655   4.548   9.890  0.0072 -0.0046 -0.4769
   19CHL1    C2 1379   4.521   4.617  10.061 -0.4732 -0.0859  1.1155
   19CHL1   H2A 1380   4.450   4.533  10.054 -0.1200 -0.2305 -1.6373
   19CHL1   H2B 1381   4.462   4.709  10.083 -1.5336 -0.8555  1.5728
   19CHL1   C20 1382   4.942   5.017   9.303  0.5819 -0.3731 -0.0241
   19CHL1   H20 1383   4.921   5.118   9.344  4.3769 -0.6341  3.0965
   19CHL1   C21 1384   4.827   4.965   9.210  0.0576 -0.4378  0.0758
   19CHL1  H21A 1385   4.809   5.042   9.132  0.4974 -0.4951 -0.0854
   19CHL1  H21B 1386   4.730   4.950   9.261 -0.3689 -0.4666 -0.7262
   19CHL1  H21C 1387   4.857   4.872   9.157 -0.5245 -1.0136  0.7291
   19CHL1   C22 1388   5.072   5.033   9.221 -0.5928 -0.0284 -0.8151
   19CHL1  H22A 1389   5.149   5.101   9.265 -1.2839  1.8621 -2.3805
   19CHL1  H22B 1390   5.117   4.932   9.212 -3.0771 -1.1024 -2.1761
   19CHL1   C23 1391   5.058   5.091   9.083  1.0636 -0.4259  0.3801
   19CHL1  H23A 1392   4.980   5.039   9.024  0.6925  0.9143 -0.3437
   19CHL1  H23B 1393   5.023   5.196   9.089  0.8326 -0.5288  0.8447
   19CHL1   C24 1394   5.192   5.107   8.999  0.2337 -0.5761 -0.0453
   19CHL1  H24A 1395   5.268   5.163   9.057  2.5006 -0.7827 -2.5984
   19CHL1  H24B 1396   5.237   5.007   8.980  3.7654  0.2188  3.0105
   19CHL1   C25 1397   5.176   5.181   8.865  0.1085  0.4350 -0.0017
   19CHL1   H25 1398   5.277   5.195   8.820  0.3670 -1.3101 -0.0544
   19CHL1   C26 1399   5.099   5.086   8.774 -0.2506  0.1785 -0.4623
   19CHL1  H26A 1400   5.006   5.050   8.823  0.0552  3.3161  2.8586
   19CHL1  H26B 1401   5.080   5.139   8.678  2.5822  1.9055 -0.1685
   19CHL1  H26C 1402   5.167   5.001   8.754 -0.6466 -0.0402 -0.9021
   19CHL1   C27 1403   5.109   5.318   8.869 -0.3994  0.2880  0.6683
   19CHL1  H27A 1404   5.000   5.302   8.886 -0.1860 -2.1602  0.1762
   19CHL1  H27B 1405   5.159   5.382   8.944 -1.1380  0.7177  0.8041
   19CHL1  H27C 1406   5.116   5.370   8.771  0.8858 -1.1238 -0.0349
   20CHL1    C3 1407   0.039   6.721  10.149  0.3263  0.4607 -0.6471
   20CHL1    H3 1408   0.011   6.620  10.111 -1.7111  1.0501 -0.8395
   20CHL1    O3 1409   0.037   6.714  10.287 -0.0180  0.3860 -0.0121
   20CHL1   H3' 1410   0.069   6.802  10.305  0.2341  0.6793 -1.7406
   20CHL1    C4 1411   0.181   6.755  10.100 -0.2123  0.4000  0.8272
   20CHL1   H4A 1412   0.217   6.843  10.158  0.0497  0.2249  0.9364
   20CHL1   H4B 1413   0.244   6.666  10.120 -1.4620 -0.0679  3.0840
   20CHL1    C5 1414   0.174   6.785   9.950  0.0765 -0.6123  0.1176
   20CHL1    C6 1415   0.246   6.717   9.856 -0.2313  0.0419 -0.1857
   20CHL1    H6 1416   0.322   6.642   9.882  3.6969  3.5408 -0.4015
   20CHL1    C7 1417   0.255   6.756   9.708  0.5173  0.3758  0.3812
   20CHL1   H7A 1418   0.360   6.749   9.674 -0.6753 -1.5659 -3.4002
   20CHL1   H7B 1419   0.198   6.674   9.659 -1.0013  0.4811  1.8581
   20CHL1    C8 1420   0.196   6.891   9.680  0.1693 -0.6566  0.1616
   20CHL1    H8 1421   0.261   6.967   9.729  1.0074  0.1679 -2.0406
   20CHL1   C14 1422   0.182   6.910   9.529  0.4316 -0.5259  0.1361
   20CHL1   H14 1423   0.106   6.835   9.499 -1.7398  1.4333  0.4625
   20CHL1   C15 1424   0.301   6.874   9.439 -0.6123 -0.6138  0.5258
   20CHL1  H15A 1425   0.390   6.917   9.490 -0.3352 -2.2146  1.4457
   20CHL1  H15B 1426   0.321   6.765   9.429 -0.4230 -0.6657  1.3855
   20CHL1   C16 1427   0.265   6.954   9.316 -1.0315  0.4207  0.5026
   20CHL1  H16A 1428   0.346   7.030   9.312  2.0361 -2.6029  0.4230
   20CHL1  H16B 1429   0.291   6.903   9.220  1.0088  0.3417  1.0551
   20CHL1   C17 1430   0.128   7.025   9.330  0.1893  0.5147  0.6447
   20CHL1   H17 1431   0.050   6.952   9.299  0.5960  0.7273 -0.9207
   20CHL1   C13 1432   0.119   7.038   9.487 -0.2770  0.1527  0.4639
   20CHL1   C18 1433   0.206   7.157   9.526 -0.5702  0.4561  0.2609
   20CHL1  H18A 1434   0.306   7.136   9.484 -0.6229  0.7864 -0.0326
   20CHL1  H18B 1435   0.167   7.253   9.484 -1.9104  0.0483  0.5208
   20CHL1  H18C 1436   0.221   7.168   9.636 -3.3454  0.5763  0.6961
   20CHL1   C12 1437  -0.021   7.042   9.541  0.3307  0.5438 -0.9387
   20CHL1  H12A 1438  -0.076   7.137   9.527  0.1863  0.7469  0.7239
   20CHL1  H12B 1439  -0.088   6.969   9.492  0.2435  0.2102 -0.3423
   20CHL1   C11 1440  -0.019   7.022   9.695  0.3086 -0.4419 -0.4288
   20CHL1  H11A 1441   0.030   7.113   9.736  0.0976 -0.6549  0.3131
   20CHL1  H11B 1442  -0.121   7.031   9.739  1.0661 -0.6516  1.4985
   20CHL1    C9 1443   0.061   6.900   9.748 -0.3487 -0.4068  0.5455
   20CHL1    H9 1444   0.009   6.807   9.718 -0.9008  0.6252 -1.9297
   20CHL1   C10 1445   0.073   6.895   9.905 -1.0525 -0.2183  0.6528
   20CHL1   C19 1446   0.107   7.037   9.954 -0.2204  0.0626 -0.5266
   20CHL1  H19A 1447   0.033   7.120   9.956 -0.1828  0.0762  0.6134
   20CHL1  H19B 1448   0.137   7.024  10.060 -2.1245  2.0321  0.3244
   20CHL1  H19C 1449   0.195   7.081   9.902 -1.1620  2.3265 -0.3275
   20CHL1    C1 1450  -0.066   6.849   9.954  0.8677  0.4260 -0.3548
   20CHL1   H1A 1451  -0.147   6.924   9.949  0.2572 -0.3025 -1.8718
   20CHL1   H1B 1452  -0.092   6.753   9.905 -0.9108  0.1586  1.0257
   20CHL1    C2 1453  -0.063   6.823  10.106  0.1654  0.5087 -0.1248
   20CHL1   H2A 1454  -0.162   6.777  10.125 -0.1900  2.3560  3.2635
   20CHL1   H2B 1455  -0.069   6.916  10.167 -0.6955  1.6413 -1.8471
   20CHL1   C20 1456   0.104   7.152   9.238 -0.6015 -0.4635  0.4919
   20CHL1   H20 1457   0.176   7.231   9.268  0.8695 -0.9770 -1.4185
   20CHL1   C21 1458  -0.038   7.201   9.243  0.1386  0.8478  0.0184
   20CHL1  H21A 1459  -0.061   7.276   9.164  2.2460  1.3485 -0.1709
   20CHL1  H21B 1460  -0.039   7.248   9.344  2.3412  2.2535 -0.5393
   20CHL1  H21C 1461  -0.104   7.114   9.223  0.4433  0.4075  0.8786
   20CHL1   C22 1462   0.161   7.134   9.092  0.3143  0.4834  0.0123
   20CHL1  H22A 1463   0.150   7.238   9.053  0.0120  0.2506 -0.5446
   20CHL1  H22B 1464   0.266   7.098   9.087  0.3084  0.3171  0.9269
   20CHL1   C23 1465   0.089   7.030   9.006 -0.1480 -0.5588 -1.4879
   20CHL1  H23A 1466   0.078   6.944   9.076 -2.1754  0.3070 -0.6558
   20CHL1  H23B 1467  -0.014   7.067   8.990 -0.0846 -0.0685 -0.8175
   20CHL1   C24 1468   0.155   6.996   8.881 -0.2832 -0.0270  0.2522
   20CHL1  H24A 1469   0.153   7.085   8.814 -0.2978 -0.8310 -0.8505
   20CHL1  H24B 1470   0.261   6.962   8.889 -0.4497 -0.7160 -0.3461
   20CHL1   C25 1471   0.088   6.891   8.807  0.1875 -0.0755 -0.5672
   20CHL1   H25 1472  -0.021   6.908   8.800  0.2873  0.4107 -1.0589
   20CHL1   C26 1473   0.148   6.885   8.660  0.2064 -0.0534  0.4286
   20CHL1  H26A 1474   0.243   6.830   8.644  1.6132  2.5026 -0.5813
   20CHL1  H26B 1475   0.066   6.843   8.599  0.6810 -2.3677  1.2663
   20CHL1  H26C 1476   0.165   6.990   8.629 -0.1331 -0.4863 -1.3298
   20CHL1   C27 1477   0.103   6.756   8.883 -0.1568 -0.2803 -0.0829
   20CHL1  H27A 1478   0.212   6.735   8.879 -0.1231 -0.3403  0.8926
   20CHL1  H27B 1479   0.061   6.765   8.985 -1.2119  0.6698 -0.5761
   20CHL1  H27C 1480   0.048   6.677   8.828  0.6882  0.4080 -2.0180
   21CHL1    C3 1481   0.713   3.044  10.175 -0.5427 -0.0530 -0.3271
   21CHL1    H3 1482   0.785   2.959  10.178  3.5108  3.1176  2.2451
   21CHL1    O3 1483   0.719   3.105  10.303 -0.0274  0.3357 -0.4151
   21CHL1   H3' 1484   0.723   3.026  10.358  2.2106  0.2566 -0.5973
   21CHL1    C4 1485   0.749   3.152  10.068 -0.2498 -0.6157  0.5935
   21CHL1   H4A 1486   0.689   3.243  10.088 -1.4490 -1.1446 -0.4508
   21CHL1   H4B 1487   0.855   3.181  10.085 -0.2344 -1.6877  2.6223
   21CHL1    C5 1488   0.731   3.115   9.926 -0.5727 -0.0381 -0.4145
   21CHL1    C6 1489   0.828   3.127   9.835 -0.2467 -0.7417 -0.2165
   21CHL1    H6 1490   0.927   3.162   9.865 -0.6454  0.6703 -0.4893
   21CHL1    C7 1491   0.811   3.083   9.691 -0.2227  0.1353  0.3380
   21CHL1   H7A 1492   0.863   3.147   9.617 -2.3717  0.4982 -0.9220
   21CHL1   H7B 1493   0.856   2.985   9.664 -0.6881 -0.7598  2.5871
   21CHL1    C8 1494   0.663   3.055   9.646 -0.0974 -0.2126 -0.1892
   21CHL1    H8 1495   0.618   3.157   9.646 -2.9239 -1.3685 -0.4757
   21CHL1   C14 1496   0.658   2.989   9.508 -0.1300  0.5350 -0.4420
   21CHL1   H14 1497   0.707   2.890   9.517 -1.0542  0.0928 -0.1905
   21CHL1   C15 1498   0.741   3.059   9.398 -0.4978  0.2363  0.1338
   21CHL1  H15A 1499   0.729   3.168   9.410  1.0488  0.4510 -0.0517
   21CHL1  H15B 1500   0.850   3.040   9.405 -0.3551  1.1720  0.5353
   21CHL1   C16 1501   0.670   3.016   9.266 -0.1696  0.4620 -0.6625
   21CHL1  H16A 1502   0.643   3.103   9.202 -1.4544 -0.6707 -1.7136
   21CHL1  H16B 1503   0.717   2.938   9.203 -2.1072 -0.9890 -0.3851
   21CHL1   C17 1504   0.537   2.943   9.314 -0.0198 -0.1392  0.1521
   21CHL1   H17 1505   0.567   2.837   9.323 -0.4284 -0.1850  1.2177
   21CHL1   C13 1506   0.514   2.981   9.458 -0.4848  0.5433 -0.0356
   21CHL1   C18 1507   0.439   3.111   9.453 -0.1003 -0.1223 -0.4946
   21CHL1  H18A 1508   0.488   3.191   9.393 -0.4110  2.8704  2.8884
   21CHL1  H18B 1509   0.335   3.099   9.415 -1.0111 -0.8380  2.0036
   21CHL1  H18C 1510   0.431   3.167   9.548 -1.2954  0.6651 -1.0309
   21CHL1   C12 1511   0.441   2.885   9.561 -0.5470  0.6399  0.1339
   21CHL1  H12A 1512   0.333   2.881   9.534 -0.3061  1.2367 -0.9355
   21CHL1  H12B 1513   0.490   2.785   9.560 -0.5725  0.6282 -0.3930
   21CHL1   C11 1514   0.446   2.937   9.708  0.0276  0.0233  0.0269
   21CHL1  H11A 1515   0.375   3.023   9.705 -1.6324 -1.2893  0.4441
   21CHL1  H11B 1516   0.403   2.867   9.783  3.0751 -1.7059  0.3194
   21CHL1    C9 1517   0.592   2.981   9.755  0.1971  1.3116 -0.3456
   21CHL1    H9 1518   0.644   2.883   9.764 -4.7773 -1.8391 -1.5611
   21CHL1   C10 1519   0.594   3.049   9.899  0.6188 -0.4616  0.2865
   21CHL1   C19 1520   0.482   3.158   9.895 -0.6198  0.2043  0.3801
   21CHL1  H19A 1521   0.483   3.202   9.793  0.8034 -0.6017  0.0294
   21CHL1  H19B 1522   0.387   3.103   9.915 -2.2634  3.5189  2.7854
   21CHL1  H19C 1523   0.474   3.244   9.965 -2.5602  0.9739 -0.7050
   21CHL1    C1 1524   0.565   2.946  10.008 -0.4437 -0.0109 -0.5550
   21CHL1   H1A 1525   0.467   2.896   9.993 -1.5507  1.6535  0.7983
   21CHL1   H1B 1526   0.646   2.870   9.998  0.1516  0.4137  0.7783
   21CHL1    C2 1527   0.578   2.994  10.150  1.4878  0.0253  0.6615
   21CHL1   H2A 1528   0.564   2.908  10.219  1.3041 -0.5883 -0.1152
   21CHL1   H2B 1529   0.493   3.066  10.159 -0.6397 -1.8584 -2.2084
   21CHL1   C20 1530   0.427   2.954   9.206 -0.3527 -1.1329  0.1176
   21CHL1   H20 1531   0.383   3.056   9.205  1.5052 -0.2923  0.5078
   21CHL1   C21 1532   0.313   2.858   9.254 -1.0009  0.1002 -0.1960
   21CHL1  H21A 1533   0.224   2.872   9.189 -1.0138  0.4644 -0.1056
   21CHL1  H21B 1534   0.270   2.897   9.349 -0.8099 -1.0700  0.3807
   21CHL1  H21C 1535   0.343   2.752   9.269 -0.0756  0.1303 -1.6141
   21CHL1   C22 1536   0.469   2.913   9.060  0.6785 -0.5562  0.2193
   21CHL1  H22A 1537   0.557   2.971   9.026 -1.3230  1.0133 -2.6808
   21CHL1  H22B 1538   0.495   2.804   9.057 -1.8995 -1.3709  2.8122
   21CHL1   C23 1539   0.359   2.946   8.955 -0.7337  0.4388 -0.2248
   21CHL1  H23A 1540   0.261   2.897   8.974 -1.1486  1.2893 -0.1336
   21CHL1  H23B 1541   0.346   3.056   8.957 -1.4800  0.3454  0.2981
   21CHL1   C24 1542   0.415   2.917   8.815 -0.6936 -0.6063  0.6160
   21CHL1  H24A 1543   0.507   2.978   8.804 -1.0226 -0.2669 -0.3643
   21CHL1  H24B 1544   0.455   2.813   8.813 -0.8459 -0.6622  0.2494
   21CHL1   C25 1545   0.325   2.932   8.691 -0.1284 -0.3356 -0.0386
   21CHL1   H25 1546   0.385   2.944   8.598 -0.6635 -3.6908 -0.9511
   21CHL1   C26 1547   0.257   2.799   8.661  0.1209  0.4816 -0.5938
   21CHL1  H26A 1548   0.191   2.814   8.573 -1.9420 -0.0779  0.8045
   21CHL1  H26B 1549   0.325   2.712   8.661  1.2817  1.1518  3.7341
   21CHL1  H26C 1550   0.187   2.784   8.746  0.5555  2.0172  0.0903
   21CHL1   C27 1551   0.230   3.058   8.695 -0.3590  0.0085 -0.5877
   21CHL1  H27A 1552   0.161   3.047   8.609  1.8818 -2.7863 -2.1921
   21CHL1  H27B 1553   0.181   3.066   8.794  0.8826 -0.7808  0.1168
   21CHL1  H27C 1554   0.292   3.150   8.689  0.5814 -0.6238 -0.8290
   22CHL1    C3 1555   5.373   3.273   9.988 -0.1757 -0.1430 -0.0335
   22CHL1    H3 1556   5.462   3.217   9.954 -0.0114 -0.0301  0.2024
   22CHL1    O3 1557   5.373   3.281  10.129  0.4648 -0.2000 -0.3393
   22CHL1   H3' 1558   5.282   3.308  10.147  0.8600  0.6887  0.4632
   22CHL1    C4 1559   5.360   3.414   9.933  0.4505  0.8349 -0.3589
   22CHL1   H4A 1560   5.271   3.466   9.975 -0.4928 -1.3783  0.5167
   22CHL1   H4B 1561   5.443   3.476   9.973  1.1942  0.4559 -1.2771
   22CHL1    C5 1562   5.355   3.421   9.783  0.3203 -0.1572  0.8082
   22CHL1    C6 1563   5.451   3.480   9.712  0.0679  0.3962 -0.1546
   22CHL1    H6 1564   5.539   3.518   9.766 -0.0327 -0.8352  0.9426
   22CHL1    C7 1565   5.460   3.486   9.562  0.7244 -0.3965 -0.5441
   22CHL1   H7A 1566   5.478   3.592   9.534  1.7967 -0.7326 -1.1995
   22CHL1   H7B 1567   5.549   3.429   9.526  0.5182  0.2058 -2.0875
   22CHL1    C8 1568   5.331   3.432   9.497  0.3370 -0.4538  0.3473
   22CHL1    H8 1569   5.242   3.498   9.506  0.2613 -0.5611  0.3887
   22CHL1   C14 1570   5.353   3.398   9.353 -0.7010  0.7982  0.1984
   22CHL1   H14 1571   5.424   3.313   9.367 -0.1817  0.7303 -2.4448
   22CHL1   C15 1572   5.407   3.505   9.260  0.3495 -0.2840  0.1582
   22CHL1  H15A 1573   5.332   3.588   9.261 -1.2179 -1.6573  0.8344
   22CHL1  H15B 1574   5.509   3.534   9.292 -0.8198  1.4198  2.6876
   22CHL1   C16 1575   5.391   3.447   9.119  0.3736 -0.1707  0.6606
   22CHL1  H16A 1576   5.342   3.519   9.049  0.0583 -0.5440  0.4951
   22CHL1  H16B 1577   5.483   3.415   9.066  0.7554 -2.4173  2.5220
   22CHL1   C17 1578   5.295   3.324   9.128  0.0912  0.1019 -0.0451
   22CHL1   H17 1579   5.351   3.227   9.129 -2.1368 -1.4153  4.4581
   22CHL1   C13 1580   5.239   3.333   9.270 -0.1765  0.2984 -0.6038
   22CHL1   C18 1581   5.123   3.439   9.263  0.1796  0.0794 -0.0608
   22CHL1  H18A 1582   5.101   3.490   9.358 -2.8829  0.3595 -0.8189
   22CHL1  H18B 1583   5.144   3.526   9.197 -0.3415  0.1259 -0.1687
   22CHL1  H18C 1584   5.030   3.395   9.220  0.9714 -3.0638  1.1989
   22CHL1   C12 1585   5.200   3.206   9.342 -0.4202  0.3223 -0.5422
   22CHL1  H12A 1586   5.104   3.160   9.310  0.6407 -2.7891  0.3639
   22CHL1  H12B 1587   5.269   3.123   9.318  0.2934  1.1199 -1.3218
   22CHL1   C11 1588   5.171   3.227   9.492 -0.2509 -0.0500  0.0321
   22CHL1  H11A 1589   5.082   3.294   9.493 -0.0297  0.2554 -0.2172
   22CHL1  H11B 1590   5.147   3.130   9.540  0.6357 -0.6833 -0.7708
   22CHL1    C9 1591   5.283   3.308   9.572 -0.3349  0.3264  0.2715
   22CHL1    H9 1592   5.364   3.232   9.560 -0.3676  0.4892 -1.0472
   22CHL1   C10 1593   5.248   3.330   9.723  0.0052  0.5620 -1.0503
   22CHL1   C19 1594   5.107   3.389   9.752  0.3757  0.6826  0.1547
   22CHL1  H19A 1595   5.067   3.467   9.683  1.0957  0.3826 -0.6260
   22CHL1  H19B 1596   5.035   3.311   9.718  0.8219  1.6845 -3.5226
   22CHL1  H19C 1597   5.080   3.408   9.858  1.2660 -1.2128  0.7526
   22CHL1    C1 1598   5.254   3.191   9.796 -0.3004  0.7263  0.9256
   22CHL1   H1A 1599   5.161   3.141   9.758  0.4440 -0.7635  0.9816
   22CHL1   H1B 1600   5.333   3.126   9.754 -2.2488 -0.5258 -1.0410
   22CHL1    C2 1601   5.250   3.193   9.950 -0.0519 -0.1440 -0.1862
   22CHL1   H2A 1602   5.277   3.089   9.980  2.1012 -0.0274 -1.5435
   22CHL1   H2B 1603   5.150   3.228   9.986  1.1863  1.7197  1.6322
   22CHL1   C20 1604   5.201   3.306   9.005 -0.3014  0.2520  0.4846
   22CHL1   H20 1605   5.139   3.394   8.978  2.4728  1.4101 -2.7975
   22CHL1   C21 1606   5.101   3.183   9.034 -0.1117  0.5724  0.1559
   22CHL1  H21A 1607   5.039   3.207   9.123  1.3728  3.0118  0.6145
   22CHL1  H21B 1608   5.166   3.093   9.042 -1.4603 -0.6619 -1.8312
   22CHL1  H21C 1609   5.036   3.170   8.944  1.0899 -0.2771 -0.6129
   22CHL1   C22 1610   5.278   3.285   8.871 -0.5024 -0.5543  0.0602
   22CHL1  H22A 1611   5.334   3.381   8.862 -0.3379 -0.6441  0.1299
   22CHL1  H22B 1612   5.356   3.207   8.881 -1.8517 -2.0074 -0.3704
   22CHL1   C23 1613   5.193   3.263   8.741 -0.5419 -0.5466 -0.0476
   22CHL1  H23A 1614   5.132   3.170   8.749 -0.3141 -0.9854 -2.5606
   22CHL1  H23B 1615   5.113   3.337   8.719  0.1655 -0.2382 -1.7266
   22CHL1   C24 1616   5.288   3.251   8.621 -0.2915  0.0217 -0.7058
   22CHL1  H24A 1617   5.349   3.344   8.613  2.1394 -1.0615  2.7406
   22CHL1  H24B 1618   5.354   3.162   8.634 -0.9253 -0.6790 -2.0646
   22CHL1   C25 1619   5.219   3.223   8.484  1.0611 -0.0069  0.3999
   22CHL1   H25 1620   5.148   3.308   8.471  2.2305  0.7897 -1.1112
   22CHL1   C26 1621   5.318   3.226   8.371  0.2567  0.1540 -0.7541
   22CHL1  H26A 1622   5.262   3.208   8.277  0.6594  1.0506 -1.1756
   22CHL1  H26B 1623   5.370   3.324   8.366 -1.5091  1.1523 -0.2310
   22CHL1  H26C 1624   5.393   3.148   8.399  1.1850  1.4004  0.3999
   22CHL1   C27 1625   5.149   3.093   8.492  0.0341 -0.2552 -0.3872
   22CHL1  H27A 1626   5.104   3.067   8.393  0.0688 -1.2447 -0.1586
   22CHL1  H27B 1627   5.227   3.016   8.514  1.3900  0.1850 -3.1857
   22CHL1  H27C 1628   5.070   3.087   8.570  0.6812  1.8835  0.4942
   23CHL1    C3 1629   1.030   6.263  10.127 -0.9169 -0.0940 -0.6233
   23CHL1    H3 1630   0.987   6.172  10.082 -0.2648 -0.5729 -0.2955
   23CHL1    O3 1631   1.026   6.262  10.271 -0.3188  0.4244  0.6435
   23CHL1   H3' 1632   1.065   6.350  10.280 -2.7749  1.7038 -0.2666
   23CHL1    C4 1633   1.170   6.273  10.084 -0.1166  0.0002  0.1574
   23CHL1   H4A 1634   1.221   6.344  10.153  2.3018 -0.7618 -0.7738
   23CHL1   H4B 1635   1.202   6.170  10.109  4.3002  1.1255 -0.1165
   23CHL1    C5 1636   1.197   6.313   9.939 -0.1999 -0.0230  0.1143
   23CHL1    C6 1637   1.293   6.251   9.874  0.7551  0.1797 -0.1111
   23CHL1    H6 1638   1.336   6.161   9.920  2.2066  1.7803  1.7941
   23CHL1    C7 1639   1.330   6.265   9.730 -1.0386 -0.2206 -0.1224
   23CHL1   H7A 1640   1.440   6.276   9.718 -1.1358  2.5326  0.7764
   23CHL1   H7B 1641   1.295   6.174   9.678  0.7736 -0.2090 -1.4655
   23CHL1    C8 1642   1.270   6.390   9.666 -0.2215  0.2186  0.1303
   23CHL1    H8 1643   1.339   6.473   9.692  0.8518 -0.6021 -0.0229
   23CHL1   C14 1644   1.270   6.370   9.516  0.2080  0.5217  0.2144
   23CHL1   H14 1645   1.208   6.281   9.490 -1.6181  2.2204 -1.6272
   23CHL1   C15 1646   1.404   6.344   9.444 -0.4156  0.1892  0.6155
   23CHL1  H15A 1647   1.482   6.406   9.494  0.5537 -0.5356  0.0431
   23CHL1  H15B 1648   1.439   6.239   9.455 -0.4505  0.2352  1.2022
   23CHL1   C16 1649   1.374   6.386   9.292  0.6724 -0.1536 -0.1514
   23CHL1  H16A 1650   1.449   6.458   9.252 -0.8965  0.9884 -1.1230
   23CHL1  H16B 1651   1.379   6.290   9.236 -0.3913 -0.4059  0.1702
   23CHL1   C17 1652   1.228   6.449   9.299  0.4902  0.4986  0.0032
   23CHL1   H17 1653   1.167   6.360   9.273  2.3011 -0.5947 -0.7655
   23CHL1   C13 1654   1.205   6.483   9.444 -0.1254  0.1870 -0.0155
   23CHL1   C18 1655   1.286   6.614   9.467  1.0925  0.2344  0.4859
   23CHL1  H18A 1656   1.294   6.645   9.573  0.3776 -0.0419  0.6283
   23CHL1  H18B 1657   1.386   6.611   9.418  0.2752 -0.8932 -1.2444
   23CHL1  H18C 1658   1.229   6.696   9.419 -0.4235 -0.5636  0.8299
   23CHL1   C12 1659   1.058   6.493   9.497  0.1092 -0.1478 -0.5230
   23CHL1  H12A 1660   1.012   6.587   9.459 -1.6306  0.2965  2.3757
   23CHL1  H12B 1661   1.003   6.401   9.470 -1.4264  0.2510  1.0397
   23CHL1   C11 1662   1.048   6.506   9.650 -0.1729  0.0405  0.7371
   23CHL1  H11A 1663   1.091   6.601   9.688 -2.4325  0.9890  1.0604
   23CHL1  H11B 1664   0.940   6.492   9.673 -0.2695  1.6593  1.3950
   23CHL1    C9 1665   1.127   6.403   9.726 -0.2627 -0.4264 -0.3049
   23CHL1    H9 1666   1.075   6.308   9.699  0.4684 -0.4329 -1.8176
   23CHL1   C10 1667   1.117   6.419   9.880  0.4832 -0.1885  0.2206
   23CHL1   C19 1668   1.181   6.554   9.933  0.1196  0.2164 -0.1328
   23CHL1  H19A 1669   1.171   6.567  10.043 -1.7503 -0.8689 -0.1289
   23CHL1  H19B 1670   1.285   6.565   9.897  1.0832 -1.2342  2.0142
   23CHL1  H19C 1671   1.123   6.640   9.893 -1.8495 -0.3067  1.3908
   23CHL1    C1 1672   0.972   6.388   9.931 -0.2159  0.7822 -0.6646
   23CHL1   H1A 1673   0.914   6.475   9.893 -2.0295  0.2859  0.8363
   23CHL1   H1B 1674   0.930   6.296   9.886  0.1646 -0.3255  1.1806
   23CHL1    C2 1675   0.955   6.383  10.086  0.3234 -0.0643  0.3146
   23CHL1   H2A 1676   0.849   6.387  10.119 -0.2597 -0.5512 -1.3861
   23CHL1   H2B 1677   1.003   6.476  10.123 -1.9428  0.8762  1.0737
   23CHL1   C20 1678   1.204   6.553   9.187  0.3651  0.1077 -0.0557
   23CHL1   H20 1679   1.275   6.638   9.203  0.0856  0.5731 -1.2204
   23CHL1   C21 1680   1.064   6.595   9.185 -0.4691 -0.5416  0.1417
   23CHL1  H21A 1681   1.043   6.662   9.271 -0.7182 -0.2117 -0.1740
   23CHL1  H21B 1682   0.994   6.510   9.204 -0.6107 -0.6036 -0.6128
   23CHL1  H21C 1683   1.022   6.641   9.093 -2.1050 -1.4967  0.3512
   23CHL1   C22 1684   1.224   6.485   9.049 -0.0049 -0.2395  0.7969
   23CHL1  H22A 1685   1.327   6.444   9.054  1.0793  2.1883  0.1731
   23CHL1  H22B 1686   1.147   6.409   9.025 -1.3441  1.5650 -1.0481
   23CHL1   C23 1687   1.232   6.579   8.926 -0.2170  0.9988 -0.0192
   23CHL1  H23A 1688   1.188   6.676   8.958  0.3489  0.7599  1.5692
   23CHL1  H23B 1689   1.336   6.595   8.892  0.1912 -0.6680  0.3814
   23CHL1   C24 1690   1.154   6.523   8.811  0.3373 -0.5346 -0.0164
   23CHL1  H24A 1691   1.188   6.426   8.767  0.8132 -0.1374 -0.5353
   23CHL1  H24B 1692   1.048   6.526   8.843 -0.1236 -0.3090 -1.4741
   23CHL1   C25 1693   1.144   6.624   8.690  0.4574 -0.4409 -0.0246
   23CHL1   H25 1694   1.123   6.726   8.727 -0.8429 -0.7763  0.2069
   23CHL1   C26 1695   1.283   6.630   8.609 -0.4298  0.0356 -0.4747
   23CHL1  H26A 1696   1.258   6.679   8.513 -1.5482  0.5616  0.0733
   23CHL1  H26B 1697   1.374   6.669   8.660 -0.8029  0.9492 -0.4957
   23CHL1  H26C 1698   1.299   6.522   8.587  0.7084  0.0358  0.2671
   23CHL1   C27 1699   1.024   6.583   8.602 -0.0146  0.6694 -0.2092
   23CHL1  H27A 1700   1.024   6.651   8.514 -1.2767  0.5537 -0.3196
   23CHL1  H27B 1701   1.033   6.475   8.580 -1.7192  0.6378 -0.9748
   23CHL1  H27C 1702   0.932   6.585   8.664 -0.1576 -0.4885 -0.3577
   24CHL1    C3 1703   3.908   5.461  10.094 -0.0558  0.3166  0.3352
   24CHL1    H3 1704   3.798   5.470  10.089 -0.8173 -3.3294  4.5319
   24CHL1    O3 1705   3.947   5.473  10.230  0.7553  0.1189 -0.2716
   24CHL1   H3' 1706   3.957   5.568  10.242 -0.4990  0.2184  0.0954
   24CHL1    C4 1707   3.950   5.313  10.050  0.1572 -0.4629  0.2610
   24CHL1   H4A 1708   4.054   5.298  10.086  0.4984 -0.0718 -0.5274
   24CHL1   H4B 1709   3.882   5.240  10.099 -1.9555  2.0883  1.3809
   24CHL1    C5 1710   3.936   5.302   9.897  0.0613 -1.0465  1.0706
   24CHL1    C6 1711   3.857   5.219   9.835 -0.0133 -0.1654 -0.0436
   24CHL1    H6 1712   3.793   5.150   9.891 -0.4358 -0.4459 -0.8535
   24CHL1    C7 1713   3.855   5.196   9.687 -0.4408  0.5577  0.1825
   24CHL1   H7A 1714   3.883   5.089   9.674 -1.4530  0.4272 -1.0353
   24CHL1   H7B 1715   3.754   5.193   9.641  0.1858 -0.5198 -1.2110
   24CHL1    C8 1716   3.944   5.295   9.605  0.0553 -0.3310 -0.0286
   24CHL1    H8 1717   4.042   5.241   9.602 -1.2183 -2.7437 -0.9978
   24CHL1   C14 1718   3.885   5.308   9.469  0.4497 -0.1624 -0.0128
   24CHL1   H14 1719   3.791   5.367   9.477  0.3191 -0.3500 -0.1414
   24CHL1   C15 1720   3.857   5.189   9.388  0.9191  0.0931  0.0338
   24CHL1  H15A 1721   3.924   5.100   9.395 -0.8653 -1.2005  1.6981
   24CHL1  H15B 1722   3.759   5.141   9.409  0.0968  1.6914  0.0145
   24CHL1   C16 1723   3.848   5.230   9.237  0.6211 -0.1326 -0.0394
   24CHL1  H16A 1724   3.918   5.162   9.184  1.7274  1.0405 -0.1276
   24CHL1  H16B 1725   3.742   5.221   9.204  0.7693  0.2636 -0.6314
   24CHL1   C17 1726   3.902   5.377   9.234  0.8968  0.0932 -0.4794
   24CHL1   H17 1727   3.818   5.449   9.238  0.8891  0.0251  1.1239
   24CHL1   C13 1728   3.967   5.398   9.375  0.6416 -0.1833 -0.6180
   24CHL1   C18 1729   4.107   5.336   9.357 -0.8046  0.2960 -1.1417
   24CHL1  H18A 1730   4.166   5.315   9.449  1.3133  0.0842 -2.4681
   24CHL1  H18B 1731   4.100   5.237   9.305 -0.1957 -1.5110  1.9591
   24CHL1  H18C 1732   4.169   5.408   9.299 -2.7559  0.5411 -3.0633
   24CHL1   C12 1733   3.973   5.535   9.435 -0.1976 -0.4099  0.0766
   24CHL1  H12A 1734   4.032   5.614   9.383 -0.3323  0.0799  0.6606
   24CHL1  H12B 1735   3.868   5.568   9.422 -0.2731 -0.8474 -0.5015
   24CHL1   C11 1736   4.028   5.535   9.577  0.4035 -0.2546 -0.1827
   24CHL1  H11A 1737   4.137   5.515   9.578 -0.0281 -3.0045  1.2788
   24CHL1  H11B 1738   4.015   5.638   9.614 -2.5195 -0.3175 -0.8227
   24CHL1    C9 1739   3.958   5.432   9.669 -0.2528 -0.1139  0.2365
   24CHL1    H9 1740   3.850   5.457   9.668 -1.2600 -3.8397 -0.7072
   24CHL1   C10 1741   4.001   5.427   9.817  0.7431 -0.2971  0.0276
   24CHL1   C19 1742   4.153   5.413   9.830 -0.0951  0.3993 -0.6013
   24CHL1  H19A 1743   4.206   5.501   9.785  1.3334  0.3519  0.8833
   24CHL1  H19B 1744   4.191   5.394   9.933  1.5291 -2.5553 -1.6329
   24CHL1  H19C 1745   4.188   5.331   9.764  1.5374  0.9590 -0.4968
   24CHL1    C1 1746   3.957   5.568   9.875 -0.0926  0.1951  0.5146
   24CHL1   H1A 1747   4.012   5.650   9.824  1.9131 -2.4081 -1.9072
   24CHL1   H1B 1748   3.847   5.572   9.863 -0.0522  0.8466  0.2991
   24CHL1    C2 1749   3.974   5.577  10.022  0.0766  0.1174  0.5341
   24CHL1   H2A 1750   3.913   5.662  10.061  2.1095  1.6701  0.5094
   24CHL1   H2B 1751   4.073   5.587  10.073  0.7598 -0.7815 -0.5807
   24CHL1   C20 1752   3.985   5.406   9.111  0.1741 -0.3954  0.1691
   24CHL1   H20 1753   4.076   5.344   9.112  0.2165 -0.4696  3.7261
   24CHL1   C21 1754   4.019   5.560   9.092  0.0269 -0.3177  0.8231
   24CHL1  H21A 1755   4.097   5.589   9.165 -0.2791 -1.7602  1.7698
   24CHL1  H21B 1756   3.926   5.616   9.117  0.5028 -0.2558  2.5808
   24CHL1  H21C 1757   4.056   5.577   8.989  2.5091  0.0981  1.7292
   24CHL1   C22 1758   3.913   5.361   8.984  0.6754  0.1266  0.0376
   24CHL1  H22A 1759   3.975   5.385   8.895  1.2110 -2.3972 -0.3365
   24CHL1  H22B 1760   3.906   5.250   8.983 -0.3673  0.1808  0.4615
   24CHL1   C23 1761   3.767   5.408   8.957 -0.2676  0.3266  1.0229
   24CHL1  H23A 1762   3.692   5.368   9.029  0.1338  1.2736  1.9927
   24CHL1  H23B 1763   3.756   5.514   8.988 -0.2792 -0.1138  2.6553
   24CHL1   C24 1764   3.721   5.388   8.808  0.2419 -0.2482  0.2608
   24CHL1  H24A 1765   3.625   5.441   8.794  1.5193  1.6783 -1.7778
   24CHL1  H24B 1766   3.787   5.448   8.743 -0.3236  0.1052  0.0095
   24CHL1   C25 1767   3.712   5.251   8.764  0.7004  0.8842  0.0856
   24CHL1   H25 1768   3.807   5.194   8.766 -0.2963 -0.9724 -1.7792
   24CHL1   C26 1769   3.612   5.176   8.849  0.0468  0.2064  0.2001
   24CHL1  H26A 1770   3.515   5.231   8.851 -0.5722 -0.8571  0.0591
   24CHL1  H26B 1771   3.590   5.074   8.812  0.6329  0.2677 -0.3392
   24CHL1  H26C 1772   3.648   5.159   8.952  0.6608 -1.6292 -0.2742
   24CHL1   C27 1773   3.664   5.236   8.616  0.3593  0.0467 -0.0391
   24CHL1  H27A 1774   3.565   5.285   8.607  0.0591 -0.4555  0.4523
   24CHL1  H27B 1775   3.740   5.277   8.546  1.3649 -0.3485  0.7798
   24CHL1  H27C 1776   3.650   5.127   8.597 -0.5724  0.2114 -0.3233
   25CHL1    C3 1777   5.737   5.476  10.212  0.1847  0.0293  0.7915
   25CHL1    H3 1778   5.820   5.410  10.180  1.8357  3.5585 -3.2144
   25CHL1    O3 1779   5.700   5.450  10.344 -0.8918  0.7550 -0.0630
   25CHL1   H3' 1780   5.684   5.537  10.381  1.2911  0.8205  0.8993
   25CHL1    C4 1781   5.782   5.624  10.197 -0.7216 -0.0917  0.3508
   25CHL1   H4A 1782   5.685   5.678  10.204 -0.8778 -0.2220 -0.6850
   25CHL1   H4B 1783   5.849   5.677  10.268  1.1184 -0.0381 -1.3333
   25CHL1    C5 1784   5.833   5.648  10.055  0.9528  0.3406 -0.1902
   25CHL1    C6 1785   5.957   5.684  10.037  0.2772 -0.0152  0.2861
   25CHL1    H6 1786   6.033   5.699  10.115  0.9127 -0.4745 -0.2345
   25CHL1    C7 1787   6.008   5.707   9.895  0.2250 -0.2733  0.4689
   25CHL1   H7A 1788   6.060   5.805   9.885 -1.0307  0.2327 -1.7576
   25CHL1   H7B 1789   6.078   5.623   9.871 -0.0400 -0.3141 -0.1714
   25CHL1    C8 1790   5.901   5.701   9.780  0.0389  0.6047 -0.0593
   25CHL1    H8 1791   5.838   5.793   9.782  0.1658  0.6895  2.2875
   25CHL1   C14 1792   5.966   5.685   9.642  0.0376 -0.0134 -0.6266
   25CHL1   H14 1793   6.021   5.589   9.655 -1.9771 -1.0489  0.7335
   25CHL1   C15 1794   6.069   5.795   9.607  0.4326 -0.1655  0.1620
   25CHL1  H15A 1795   6.030   5.898   9.627  1.3629  0.1737  0.2679
   25CHL1  H15B 1796   6.162   5.773   9.662 -1.0142 -1.0877  2.3633
   25CHL1   C16 1797   6.095   5.773   9.452  0.1108  0.2915  0.2140
   25CHL1  H16A 1798   6.085   5.871   9.402 -0.2616  0.5941  0.8628
   25CHL1  H16B 1799   6.200   5.739   9.442  0.0162 -0.5090  1.5723
   25CHL1   C17 1800   5.987   5.671   9.411 -0.7998  0.2430 -0.1242
   25CHL1   H17 1801   6.030   5.569   9.416  0.8500  0.8100 -1.7587
   25CHL1   C13 1802   5.876   5.682   9.523  1.0578  0.1659  0.1437
   25CHL1   C18 1803   5.793   5.804   9.501  0.6632 -0.6230  0.5399
   25CHL1  H18A 1804   5.858   5.893   9.487  2.0232 -1.6927 -0.1879
   25CHL1  H18B 1805   5.709   5.796   9.428  1.9741  1.0452 -1.2459
   25CHL1  H18C 1806   5.737   5.820   9.596 -0.2584  1.1000 -0.2481
   25CHL1   C12 1807   5.787   5.557   9.541 -0.5377  1.1472 -0.3913
   25CHL1  H12A 1808   5.717   5.539   9.456 -0.4363  1.0133 -0.4471
   25CHL1  H12B 1809   5.853   5.470   9.558 -0.6124  1.5703  2.4891
   25CHL1   C11 1810   5.702   5.565   9.673  0.1329  0.2243  0.2761
   25CHL1  H11A 1811   5.631   5.651   9.666  1.1463  1.0880  0.2646
   25CHL1  H11B 1812   5.647   5.469   9.676  2.5396 -1.2472  0.2198
   25CHL1    C9 1813   5.799   5.583   9.801  0.2841  0.0225  0.0269
   25CHL1    H9 1814   5.862   5.492   9.799 -0.6448 -0.6239 -0.2780
   25CHL1   C10 1815   5.733   5.603   9.940  0.1967 -0.0701 -0.7441
   25CHL1   C19 1816   5.622   5.714   9.935  0.4007 -0.7179 -0.3477
   25CHL1  H19A 1817   5.667   5.812   9.907  0.7511 -0.5789  0.6588
   25CHL1  H19B 1818   5.544   5.685   9.861 -0.4511  0.6298 -0.0195
   25CHL1  H19C 1819   5.570   5.721  10.033  1.6645  0.4943  0.2637
   25CHL1    C1 1820   5.660   5.468   9.971  0.0188  0.1078 -0.2264
   25CHL1   H1A 1821   5.575   5.447   9.903  0.9752  1.1049 -1.7917
   25CHL1   H1B 1822   5.726   5.379   9.963 -2.1154 -1.7927  1.7335
   25CHL1    C2 1823   5.614   5.454  10.117  0.1367 -0.2948  0.2369
   25CHL1   H2A 1824   5.586   5.348  10.131  1.1277 -0.6548 -0.4113
   25CHL1   H2B 1825   5.526   5.514  10.150 -1.0514 -0.2335 -2.7266
   25CHL1   C20 1826   5.939   5.687   9.263  0.6330  0.3536  0.1142
   25CHL1   H20 1827   5.859   5.763   9.259 -0.1770 -0.5355 -1.5435
   25CHL1   C21 1828   5.868   5.555   9.225 -0.0144 -0.4532  0.0905
   25CHL1  H21A 1829   5.894   5.528   9.120 -1.6728 -0.2102 -0.3961
   25CHL1  H21B 1830   5.758   5.545   9.235  0.0765 -0.5867  1.0420
   25CHL1  H21C 1831   5.901   5.471   9.291  0.1855  0.6408  1.4225
   25CHL1   C22 1832   6.047   5.723   9.161 -0.3810  0.0741 -0.0431
   25CHL1  H22A 1833   6.114   5.807   9.188  0.0285 -0.8943  2.1580
   25CHL1  H22B 1834   6.118   5.638   9.148  1.0691  1.1912  0.2651
   25CHL1   C23 1835   6.007   5.757   9.018 -0.1216 -0.3479 -0.4680
   25CHL1  H23A 1836   5.984   5.662   8.965  0.5891 -0.7088 -0.1430
   25CHL1  H23B 1837   5.923   5.826   9.040  0.5475 -0.2206  2.0009
   25CHL1   C24 1838   6.121   5.820   8.933 -0.2209  0.5989 -0.3464
   25CHL1  H24A 1839   6.152   5.922   8.966  1.7381  0.1794 -0.7234
   25CHL1  H24B 1840   6.212   5.757   8.933  0.8487  2.0186  1.7131
   25CHL1   C25 1841   6.083   5.833   8.786  0.3536 -0.6815  0.3188
   25CHL1   H25 1842   6.055   5.728   8.764 -3.0769  0.7199 -3.1569
   25CHL1   C26 1843   5.947   5.905   8.756  0.0369 -0.5570  0.3575
   25CHL1  H26A 1844   5.956   6.014   8.736  1.4037 -0.7838 -0.4217
   25CHL1  H26B 1845   5.918   5.857   8.660 -0.1017 -1.9726  1.0837
   25CHL1  H26C 1846   5.869   5.889   8.833  1.8299 -0.6973  2.2360
   25CHL1   C27 1847   6.190   5.879   8.689  0.1360 -0.6275 -0.4184
   25CHL1  H27A 1848   6.172   5.850   8.584 -1.6651  2.8029 -1.2229
   25CHL1  H27B 1849   6.204   5.990   8.690  2.8770 -0.9184  0.5236
   25CHL1  H27C 1850   6.288   5.839   8.720  0.4416  0.5616  0.2395
   26CHL1    C3 1851   0.974   3.944  10.347 -0.5051  0.0303 -0.0975
   26CHL1    H3 1852   1.029   3.850  10.324 -0.9280 -0.9094  2.4258
   26CHL1    O3 1853   0.969   3.950  10.490 -0.3289 -0.0914  0.0158
   26CHL1   H3' 1854   0.950   4.043  10.506  1.6626  0.4856 -0.6181
   26CHL1    C4 1855   1.065   4.047  10.294  0.0773 -0.2791  0.2181
   26CHL1   H4A 1856   1.003   4.139  10.302  1.4696  0.8068 -0.8694
   26CHL1   H4B 1857   1.162   4.055  10.347  1.0272 -1.2692 -1.2835
   26CHL1    C5 1858   1.096   4.029  10.145 -0.6281 -0.1851 -0.7364
   26CHL1    C6 1859   1.221   4.035  10.099  0.2817 -0.3037  0.5631
   26CHL1    H6 1860   1.308   4.041  10.167  1.8636 -0.0311 -1.3771
   26CHL1    C7 1861   1.260   4.018   9.951  0.0830  0.1510 -0.4546
   26CHL1   H7A 1862   1.341   4.088   9.920  0.8010 -0.7958 -0.7974
   26CHL1   H7B 1863   1.309   3.921   9.924 -1.1323 -0.2352 -1.3554
   26CHL1    C8 1864   1.130   4.029   9.861 -0.5931  0.3541 -0.5374
   26CHL1    H8 1865   1.115   4.139   9.867  0.9393  0.5190  3.6890
   26CHL1   C14 1866   1.159   3.988   9.722 -0.2141 -0.0568 -0.8247
   26CHL1   H14 1867   1.184   3.880   9.732  0.4636  0.2915  2.5622
   26CHL1   C15 1868   1.282   4.056   9.662  0.1343 -0.5961  0.8142
   26CHL1  H15A 1869   1.293   4.155   9.713  1.2577  0.3789 -1.1714
   26CHL1  H15B 1870   1.380   4.004   9.670 -0.5547 -1.9216  0.7568
   26CHL1   C16 1871   1.255   4.057   9.510 -0.0517 -0.0042 -0.0610
   26CHL1  H16A 1872   1.242   4.159   9.467  0.0986  0.6021  1.3041
   26CHL1  H16B 1873   1.336   4.005   9.454  1.3360  2.0185 -0.0294
   26CHL1   C17 1874   1.116   3.983   9.492 -0.5776  0.7511  0.9084
   26CHL1   H17 1875   1.146   3.875   9.490 -2.3716  0.2412 -0.2417
   26CHL1   C13 1876   1.041   4.008   9.623 -0.2833 -0.6418 -0.5909
   26CHL1   C18 1877   1.002   4.155   9.629  0.2423 -0.1969  0.1059
   26CHL1  H18A 1878   0.939   4.172   9.539 -1.3569  0.4820  1.3039
   26CHL1  H18B 1879   0.935   4.186   9.712 -0.1280  0.6667 -0.4967
   26CHL1  H18C 1880   1.089   4.223   9.615  0.5017 -0.8920 -1.8558
   26CHL1   C12 1881   0.929   3.915   9.675 -0.2944 -0.0241  0.0266
   26CHL1  H12A 1882   0.849   3.945   9.604 -1.6537  0.7768  1.8063
   26CHL1  H12B 1883   0.939   3.806   9.660 -1.8205 -0.7154  3.1032
   26CHL1   C11 1884   0.886   3.941   9.821 -0.1645  0.4218  0.0455
   26CHL1  H11A 1885   0.825   4.034   9.820 -0.5666  0.1603 -1.2064
   26CHL1  H11B 1886   0.827   3.853   9.855 -1.0752  0.3104 -1.7059
   26CHL1    C9 1887   1.009   3.951   9.921  0.8970 -0.6661  0.9953
   26CHL1    H9 1888   1.047   3.848   9.939 -0.6511 -1.1979  1.4814
   26CHL1   C10 1889   0.970   4.011  10.060  0.1480 -1.0423 -0.0692
   26CHL1   C19 1890   0.904   4.155  10.041 -0.0608  0.8269  0.1117
   26CHL1  H19A 1891   0.884   4.193  10.144  2.8479  1.8808  0.3773
   26CHL1  H19B 1892   0.976   4.219   9.985  0.2890  0.4486  0.1254
   26CHL1  H19C 1893   0.806   4.158   9.990  1.0884 -1.2265 -2.4445
   26CHL1    C1 1894   0.866   3.911  10.122  0.2404  0.2876  0.2728
   26CHL1   H1A 1895   0.763   3.922  10.080  0.2026 -0.4144  0.1731
   26CHL1   H1B 1896   0.902   3.808  10.100 -0.0476  0.2678 -0.1086
   26CHL1    C2 1897   0.842   3.935  10.274 -0.3882  0.1753 -0.7217
   26CHL1   H2A 1898   0.782   3.857  10.326  0.5165  0.5995  1.0242
   26CHL1   H2B 1899   0.788   4.031  10.288  1.2930  0.9473  1.0192
   26CHL1   C20 1900   1.049   4.008   9.362  0.4962 -0.1725 -0.0249
   26CHL1   H20 1901   1.011   4.112   9.360  3.1014  0.8553  0.3869
   26CHL1   C21 1902   0.911   3.927   9.353 -0.0365  0.8995 -0.2950
   26CHL1  H21A 1903   0.937   3.819   9.361  1.8319  1.3020 -0.5382
   26CHL1  H21B 1904   0.881   3.936   9.246 -2.2312 -0.7127  0.1183
   26CHL1  H21C 1905   0.825   3.974   9.406  2.8384  3.8308  2.1661
   26CHL1   C22 1906   1.130   3.996   9.234  0.3912  0.5729  0.5299
   26CHL1  H22A 1907   1.229   4.043   9.250  1.1251 -1.0152  0.7659
   26CHL1  H22B 1908   1.146   3.892   9.200 -5.0104  0.3543 -2.5570
   26CHL1   C23 1909   1.072   4.066   9.107  0.0319 -0.2436 -0.3030
   26CHL1  H23A 1910   0.962   4.067   9.096 -0.1271  3.4429  0.4175
   26CHL1  H23B 1911   1.103   4.172   9.120  2.7757 -1.1775  1.8277
   26CHL1   C24 1912   1.130   3.999   8.976 -0.6321  0.0404 -0.1024
   26CHL1  H24A 1913   1.240   4.010   8.986 -0.3385 -2.8359  0.9278
   26CHL1  H24B 1914   1.103   3.894   9.001 -0.4609  0.4779  2.2251
   26CHL1   C25 1915   1.058   4.049   8.855 -0.0922 -0.4937  0.1080
   26CHL1   H25 1916   0.947   4.051   8.865 -0.3219  0.7282 -2.0870
   26CHL1   C26 1917   1.107   4.181   8.804  0.0305 -0.5195  0.2320
   26CHL1  H26A 1918   1.089   4.260   8.881 -1.5222 -0.0988 -0.5269
   26CHL1  H26B 1919   1.213   4.173   8.773  0.5119  3.2577  0.3895
   26CHL1  H26C 1920   1.046   4.208   8.715 -0.1325  1.0168  0.7822
   26CHL1   C27 1921   1.084   3.958   8.739 -0.1786 -0.6448  0.0533
   26CHL1  H27A 1922   1.054   3.995   8.638 -2.0151  1.1631  1.1703
   26CHL1  H27B 1923   1.193   3.942   8.733  0.0930  1.4784 -2.0695
   26CHL1  H27C 1924   1.037   3.863   8.772 -0.4143  0.1157  2.0336
   27CHL1    C3 1925   5.900   0.083  10.394 -0.1508 -0.2272 -0.0557
   27CHL1    H3 1926   6.007   0.113  10.384 -0.7040  1.2245 -2.0973
   27CHL1    O3 1927   5.866   0.095  10.534 -0.5291  0.4513 -0.3189
   27CHL1   H3' 1928   5.782   0.056  10.558  0.9392 -1.0964  3.0217
   27CHL1    C4 1929   5.807   0.167  10.308  0.6539  0.6505 -0.0684
   27CHL1   H4A 1930   5.704   0.133  10.337  0.8337  0.4609  0.3589
   27CHL1   H4B 1931   5.812   0.270  10.347  1.0808  0.6556 -0.1390
   27CHL1    C5 1932   5.827   0.159  10.155 -0.1034 -0.4941 -0.2165
   27CHL1    C6 1933   5.853   0.267  10.075 -0.7595 -0.5634  0.4990
   27CHL1    H6 1934   5.862   0.370  10.112  1.9155  0.0088 -1.4788
   27CHL1    C7 1935   5.868   0.265   9.924  0.0820 -0.4236 -0.4228
   27CHL1   H7A 1936   5.795   0.328   9.869  1.2557  2.0251  0.6534
   27CHL1   H7B 1937   5.970   0.307   9.910 -0.3303  1.1789  1.0015
   27CHL1    C8 1938   5.851   0.125   9.868 -0.8160  0.6509  0.0741
   27CHL1    H8 1939   5.743   0.108   9.851 -0.3923 -1.7865 -0.6697
   27CHL1   C14 1940   5.929   0.110   9.739  0.0677 -0.0913  0.9111
   27CHL1   H14 1941   6.037   0.117   9.765  0.0801 -1.7674  1.4323
   27CHL1   C15 1942   5.909   0.221   9.636 -0.1507 -0.2591 -1.3325
   27CHL1  H15A 1943   5.802   0.250   9.633 -0.6215 -0.5099  4.0679
   27CHL1  H15B 1944   5.949   0.322   9.660 -2.6033  0.5221 -0.1538
   27CHL1   C16 1945   5.960   0.159   9.506  0.4021  0.2582 -0.5918
   27CHL1  H16A 1946   5.878   0.178   9.433 -1.4616  1.0097  1.5622
   27CHL1  H16B 1947   6.059   0.199   9.475  0.7473 -0.8151 -0.9177
   27CHL1   C17 1948   5.972   0.001   9.532 -0.0866 -0.3656 -0.0387
   27CHL1   H17 1949   6.080  -0.013   9.554  0.3588 -0.5251 -2.0952
   27CHL1   C13 1950   5.904  -0.021   9.667 -0.2556 -0.0945 -0.1409
   27CHL1   C18 1951   5.758  -0.046   9.639  0.2979  0.2484  0.6804
   27CHL1  H18A 1952   5.696  -0.032   9.730 -0.8733  1.6128 -0.2923
   27CHL1  H18B 1953   5.715   0.020   9.561  2.1810 -0.2502 -0.8520
   27CHL1  H18C 1954   5.733  -0.148   9.602 -0.5299 -0.0750  2.0549
   27CHL1   C12 1955   5.966  -0.128   9.767  0.2094 -0.6515  0.0802
   27CHL1  H12A 1956   5.965  -0.225   9.713 -0.7443 -0.3652 -0.4508
   27CHL1  H12B 1957   6.068  -0.103   9.802  1.0935 -4.0137  0.2421
   27CHL1   C11 1958   5.883  -0.129   9.897 -0.0723 -0.2392  0.9052
   27CHL1  H11A 1959   5.778  -0.156   9.872 -0.1200  0.2067  0.6188
   27CHL1  H11B 1960   5.926  -0.210   9.960  0.9715 -0.5603 -0.1876
   27CHL1    C9 1961   5.892   0.009   9.968 -0.4308  0.4926  0.5572
   27CHL1    H9 1962   6.002   0.020   9.979 -0.5146 -0.2047  2.4382
   27CHL1   C10 1963   5.831   0.009  10.113 -0.6936  0.0640  0.0032
   27CHL1   C19 1964   5.692  -0.062  10.116 -0.5375 -0.0846 -0.2147
   27CHL1  H19A 1965   5.649  -0.060  10.218  0.4953 -1.3421  0.2836
   27CHL1  H19B 1966   5.628  -0.004  10.047 -0.6454  0.6346  0.4840
   27CHL1  H19C 1967   5.698  -0.170  10.091 -0.0125  0.0664 -0.7952
   27CHL1    C1 1968   5.931  -0.076  10.203 -0.0556  0.7520 -0.6484
   27CHL1   H1A 1969   5.911  -0.181  10.173 -0.0415  0.3087  0.7866
   27CHL1   H1B 1970   6.034  -0.042  10.181 -1.3510  3.7858 -2.7178
   27CHL1    C2 1971   5.892  -0.058  10.355  0.5986 -0.0294  0.2178
   27CHL1   H2A 1972   5.964  -0.123  10.408  1.6568 -1.5817 -2.9338
   27CHL1   H2B 1973   5.788  -0.096  10.360 -0.8727  3.4555 -0.6291
   27CHL1   C20 1974   5.941  -0.068   9.403 -0.0157 -0.1489  0.3432
   27CHL1   H20 1975   5.837  -0.062   9.363  0.2157 -0.8286 -0.3954
   27CHL1   C21 1976   5.972  -0.215   9.438 -0.1010 -0.6295 -0.2783
   27CHL1  H21A 1977   5.892  -0.260   9.500  0.6685 -1.1279  0.3757
   27CHL1  H21B 1978   6.069  -0.220   9.493 -0.0155  1.6110 -0.1511
   27CHL1  H21C 1979   5.982  -0.284   9.351  1.5032 -0.2451 -0.4363
   27CHL1   C22 1980   6.027  -0.021   9.286 -0.3226 -0.1155  0.0039
   27CHL1  H22A 1981   6.002   0.087   9.271  0.4305  0.1125  0.3004
   27CHL1  H22B 1982   6.133  -0.037   9.316 -0.1444  1.3734  0.2914
   27CHL1   C23 1983   6.000  -0.075   9.140  0.9601  0.1426 -0.5807
   27CHL1  H23A 1984   6.064  -0.013   9.075  1.1070 -0.6653 -1.2288
   27CHL1  H23B 1985   6.027  -0.183   9.144  0.7659  0.1286  1.1565
   27CHL1   C24 1986   5.851  -0.055   9.091  0.1125 -0.2899  0.1666
   27CHL1  H24A 1987   5.779  -0.092   9.167  0.2409  1.3830  1.1504
   27CHL1  H24B 1988   5.831   0.053   9.071  1.0660  0.0371  0.9457
   27CHL1   C25 1989   5.833  -0.135   8.969  0.1107  0.5670 -0.0743
   27CHL1   H25 1990   5.876  -0.238   8.973 -1.5051 -0.0941  1.4587
   27CHL1   C26 1991   5.682  -0.150   8.933 -0.0211  0.0382  0.3528
   27CHL1  H26A 1992   5.668  -0.207   8.839 -0.4261 -1.2457  1.1609
   27CHL1  H26B 1993   5.643  -0.224   9.007  0.2697 -2.8078 -2.1723
   27CHL1  H26C 1994   5.626  -0.054   8.928  0.7594  0.4569 -0.4494
   27CHL1   C27 1995   5.901  -0.071   8.846  0.3058 -0.6205  0.8854
   27CHL1  H27A 1996   5.867  -0.134   8.761  0.1103  1.3348 -0.5638
   27CHL1  H27B 1997   5.870   0.032   8.820  1.7561 -1.1334 -3.8446
   27CHL1  H27C 1998   6.011  -0.071   8.854  1.1433  0.1010 -5.4184
   28CHL1    C3 1999   5.814   4.331  10.032 -0.1710 -0.1729 -0.9826
   28CHL1    H3 2000   5.922   4.334  10.008  0.6369 -0.9784  2.1443
   28CHL1    O3 2001   5.791   4.335  10.173 -0.0376 -0.2822  0.1692
   28CHL1   H3' 2002   5.776   4.241  10.187 -0.1130 -0.6491 -2.0860
   28CHL1    C4 2003   5.759   4.459   9.971  0.4090  0.5433  0.3475
   28CHL1   H4A 2004   5.650   4.458   9.992  0.4625  1.8309  0.8222
   28CHL1   H4B 2005   5.807   4.538  10.033 -0.0007  0.3984  0.8474
   28CHL1    C5 2006   5.787   4.468   9.824  0.0147  0.1447  0.3943
   28CHL1    C6 2007   5.864   4.568   9.771 -0.1053  0.5229  0.3943
   28CHL1    H6 2008   5.897   4.658   9.824  3.5409  0.5238 -1.5309
   28CHL1    C7 2009   5.876   4.581   9.620  0.3674  0.2652  0.1974
   28CHL1   H7A 2010   5.841   4.681   9.588 -0.1877 -0.1190 -0.4290
   28CHL1   H7B 2011   5.984   4.571   9.593 -0.3684 -0.4020 -2.8298
   28CHL1    C8 2012   5.792   4.483   9.537 -0.1212 -0.2518  0.8707
   28CHL1    H8 2013   5.687   4.519   9.532 -0.8924 -2.2777  1.4343
   28CHL1   C14 2014   5.850   4.475   9.392 -0.0039 -0.1021  0.5769
   28CHL1   H14 2015   5.956   4.443   9.397  0.2909  0.4094 -1.3116
   28CHL1   C15 2016   5.852   4.607   9.303  0.2992  0.3131 -0.1261
   28CHL1  H15A 2017   5.758   4.662   9.327 -0.3638 -0.8428  0.0154
   28CHL1  H15B 2018   5.940   4.670   9.327  0.6894 -0.5069  0.6263
   28CHL1   C16 2019   5.836   4.550   9.160  0.0826  0.2713  0.6815
   28CHL1  H16A 2020   5.740   4.587   9.117  1.4710  2.3532 -0.8246
   28CHL1  H16B 2021   5.914   4.585   9.089 -2.7536  2.9373 -1.4200
   28CHL1   C17 2022   5.834   4.396   9.178  0.0603 -0.0141  0.4398
   28CHL1   H17 2023   5.940   4.365   9.193  0.2604 -1.2045 -2.5980
   28CHL1   C13 2024   5.764   4.374   9.311 -0.3143 -0.7240  0.4274
   28CHL1   C18 2025   5.617   4.430   9.302 -0.4565  0.3975 -0.6307
   28CHL1  H18A 2026   5.568   4.425   9.401 -0.1044  0.8649 -0.4308
   28CHL1  H18B 2027   5.597   4.528   9.255  0.6504  0.3954 -1.1472
   28CHL1  H18C 2028   5.568   4.346   9.249 -0.8529 -0.4305  0.9901
   28CHL1   C12 2029   5.779   4.232   9.369 -0.1663 -0.1506  0.1523
   28CHL1  H12A 2030   5.721   4.157   9.311  0.4127 -1.0256  0.6828
   28CHL1  H12B 2031   5.886   4.203   9.364 -0.2442 -0.3798 -0.2997
   28CHL1   C11 2032   5.722   4.238   9.510  0.5678 -0.2823 -0.3028
   28CHL1  H11A 2033   5.615   4.267   9.504  0.4839 -0.8662 -2.8108
   28CHL1  H11B 2034   5.724   4.140   9.561 -0.3122 -0.4305 -0.5409
   28CHL1    C9 2035   5.794   4.342   9.595  0.1479  0.0426 -0.4162
   28CHL1    H9 2036   5.901   4.312   9.591 -0.2562 -1.3417 -1.6245
   28CHL1   C10 2037   5.738   4.345   9.739 -0.4821 -0.4525  0.3421
   28CHL1   C19 2038   5.585   4.348   9.741  0.2304  0.3238  0.3719
   28CHL1  H19A 2039   5.548   4.427   9.672  1.5866 -0.8720 -1.7986
   28CHL1  H19B 2040   5.546   4.253   9.701  1.9700  0.0696 -0.7848
   28CHL1  H19C 2041   5.542   4.364   9.843 -0.2993  0.8354  0.0755
   28CHL1    C1 2042   5.793   4.213   9.808 -0.3977 -0.2159  1.1739
   28CHL1   H1A 2043   5.740   4.121   9.775  0.0200 -0.3630  0.9022
   28CHL1   H1B 2044   5.902   4.200   9.790 -0.9343 -3.8446 -0.3343
   28CHL1    C2 2045   5.765   4.214   9.963 -0.8175 -0.5068 -0.1549
   28CHL1   H2A 2046   5.829   4.133  10.004  0.6067  1.5647  1.9659
   28CHL1   H2B 2047   5.659   4.188   9.985 -0.9113 -0.8844 -0.9995
   28CHL1   C20 2048   5.791   4.299   9.061  0.1151 -0.5376  0.5355
   28CHL1   H20 2049   5.740   4.210   9.103 -0.6862  0.0260  0.7808
   28CHL1   C21 2050   5.912   4.253   8.979 -0.1784 -0.0703  0.1843
   28CHL1  H21A 2051   5.994   4.196   9.028 -0.4571 -1.0786 -0.4829
   28CHL1  H21B 2052   5.956   4.342   8.929  0.5215  0.5719  1.8789
   28CHL1  H21C 2053   5.875   4.186   8.899 -1.4338 -0.1722  0.8215
   28CHL1   C22 2054   5.686   4.371   8.962 -0.3137  0.2059  0.4866
   28CHL1  H22A 2055   5.611   4.437   9.010 -0.3646  0.5214 -0.0243
   28CHL1  H22B 2056   5.739   4.432   8.886 -1.7788  0.5428 -0.3088
   28CHL1   C23 2057   5.599   4.265   8.882 -0.2581 -0.2143  0.5439
   28CHL1  H23A 2058   5.672   4.190   8.843 -0.5462 -0.2240  0.0276
   28CHL1  H23B 2059   5.535   4.217   8.959  1.8824  0.0395  2.6168
   28CHL1   C24 2060   5.505   4.321   8.774 -0.3722  0.1899 -0.1388
   28CHL1  H24A 2061   5.449   4.405   8.821 -1.0924  1.0371 -2.4028
   28CHL1  H24B 2062   5.554   4.363   8.684 -2.7560  1.1405 -1.0458
   28CHL1   C25 2063   5.398   4.228   8.717 -0.5413  0.3557 -0.2063
   28CHL1   H25 2064   5.334   4.193   8.801  0.4171  3.0715  1.7865
   28CHL1   C26 2065   5.301   4.314   8.632 -0.3919  0.1607 -0.3204
   28CHL1  H26A 2066   5.368   4.372   8.566  0.5147 -0.5568 -0.0593
   28CHL1  H26B 2067   5.225   4.251   8.580 -0.3417  0.3405 -0.6119
   28CHL1  H26C 2068   5.253   4.385   8.703  0.1057 -0.0629  0.2467
   28CHL1   C27 2069   5.460   4.114   8.640  0.2880  1.3658 -0.5639
   28CHL1  H27A 2070   5.543   4.065   8.696  0.7080  1.7100 -0.8792
   28CHL1  H27B 2071   5.394   4.026   8.627  0.2800  0.7200  2.9107
   28CHL1  H27C 2072   5.500   4.156   8.545 -0.3557  2.6055 -0.3009
   29CHL1    C3 2073   5.552   5.670   6.620 -0.4797  0.4286  0.0760
   29CHL1    H3 2074   5.470   5.596   6.629  0.8835 -1.3766 -1.5356
   29CHL1    O3 2075   5.573   5.718   6.495  0.3296  0.1867  0.4780
   29CHL1   H3' 2076   5.652   5.773   6.496  0.9987 -0.5338 -2.4954
   29CHL1    C4 2077   5.526   5.789   6.718 -0.1271  0.1921  0.2195
   29CHL1   H4A 2078   5.599   5.867   6.686  0.3570 -0.8635 -1.3774
   29CHL1   H4B 2079   5.435   5.833   6.672  0.3996 -2.6404 -4.1248
   29CHL1    C5 2080   5.527   5.749   6.864  0.0837  0.2745  0.0262
   29CHL1    C6 2081   5.428   5.793   6.946 -0.4384  0.0378  0.3599
   29CHL1    H6 2082   5.353   5.865   6.911  0.9600  0.3609 -2.2826
   29CHL1    C7 2083   5.436   5.766   7.093 -0.1103  0.2182  0.3864
   29CHL1   H7A 2084   5.418   5.858   7.152  0.6159  1.1977 -0.8678
   29CHL1   H7B 2085   5.368   5.680   7.114 -0.9720  0.6429 -0.5398
   29CHL1    C8 2086   5.581   5.728   7.144 -0.2921 -0.3934 -0.2642
   29CHL1    H8 2087   5.651   5.814   7.149  1.7195 -2.0264  1.6905
   29CHL1   C14 2088   5.569   5.667   7.288  0.1525 -0.3723 -0.4769
   29CHL1   H14 2089   5.509   5.575   7.270  0.9392 -0.7420 -1.2942
   29CHL1   C15 2090   5.496   5.758   7.393  0.0998  0.0111 -0.1593
   29CHL1  H15A 2091   5.497   5.867   7.372 -1.8484  0.2050  0.5948
   29CHL1  H15B 2092   5.390   5.724   7.400 -0.0995  0.4566 -0.8365
   29CHL1   C16 2093   5.573   5.736   7.525  0.1225  0.3044  0.0478
   29CHL1  H16A 2094   5.635   5.823   7.557 -0.0950 -0.0227  1.4483
   29CHL1  H16B 2095   5.500   5.702   7.602  0.9192 -0.6659  0.4003
   29CHL1   C17 2096   5.659   5.615   7.495 -0.7288  0.2420 -0.3220
   29CHL1   H17 2097   5.593   5.527   7.506  0.2208 -0.1717  4.2244
   29CHL1   C13 2098   5.706   5.631   7.344  0.3380 -0.0794 -0.4311
   29CHL1   C18 2099   5.804   5.755   7.333 -0.2281 -0.0249  0.7856
   29CHL1  H18A 2100   5.909   5.725   7.356  0.6301  2.7045  0.8579
   29CHL1  H18B 2101   5.816   5.786   7.227  0.9906 -2.6053  0.0836
   29CHL1  H18C 2102   5.771   5.834   7.404 -1.8210 -1.3490  1.5727
   29CHL1   C12 2103   5.754   5.508   7.263 -0.5614  0.2965  0.1955
   29CHL1  H12A 2104   5.859   5.490   7.297 -0.5689  0.7971  0.4967
   29CHL1  H12B 2105   5.695   5.414   7.268  0.3164 -0.6075 -3.4688
   29CHL1   C11 2106   5.766   5.555   7.115 -0.5335  0.2126  0.2035
   29CHL1  H11A 2107   5.849   5.627   7.102 -0.6826  0.3359 -0.0929
   29CHL1  H11B 2108   5.782   5.465   7.051  0.5956  0.0371  0.7265
   29CHL1    C9 2109   5.638   5.617   7.058 -0.5776 -0.3526 -0.5763
   29CHL1    H9 2110   5.567   5.531   7.055 -0.9083 -0.0682 -3.6390
   29CHL1   C10 2111   5.653   5.663   6.913 -0.3056  1.2294 -0.1010
   29CHL1   C19 2112   5.766   5.763   6.907  0.3643  0.0645  0.0614
   29CHL1  H19A 2113   5.763   5.812   6.807 -3.3171  1.0839  0.5125
   29CHL1  H19B 2114   5.760   5.851   6.974  2.2226  0.2685  0.0109
   29CHL1  H19C 2115   5.865   5.714   6.917  1.0002  0.9429 -1.5719
   29CHL1    C1 2116   5.668   5.547   6.818  0.3412 -0.0351  0.1239
   29CHL1   H1A 2117   5.754   5.480   6.836 -0.1547 -1.4731 -2.3858
   29CHL1   H1B 2118   5.583   5.475   6.815 -0.8397  1.2690  0.5726
   29CHL1    C2 2119   5.670   5.585   6.667 -0.1577  0.1197  0.2434
   29CHL1   H2A 2120   5.681   5.492   6.608 -2.6277 -1.2798  1.8136
   29CHL1   H2B 2121   5.762   5.646   6.655  1.2567 -1.8501  0.7901
   29CHL1   C20 2122   5.776   5.597   7.609  0.1271 -0.3353  0.6936
   29CHL1   H20 2123   5.865   5.658   7.583 -0.1497 -0.0485  0.4227
   29CHL1   C21 2124   5.829   5.447   7.611 -0.6214  0.2086  0.1054
   29CHL1  H21A 2125   5.758   5.374   7.656 -0.2660 -0.9880 -1.2398
   29CHL1  H21B 2126   5.924   5.439   7.667  1.3337 -0.4363 -3.0621
   29CHL1  H21C 2127   5.846   5.411   7.508  1.9942  1.2794  0.0925
   29CHL1   C22 2128   5.721   5.641   7.750  0.4761  1.0398  0.6573
   29CHL1  H22A 2129   5.693   5.748   7.743 -0.4561  0.6946 -1.9530
   29CHL1  H22B 2130   5.641   5.568   7.776  0.6426  0.4540 -0.3854
   29CHL1   C23 2131   5.826   5.619   7.863  0.4747  0.1848  0.5003
   29CHL1  H23A 2132   5.833   5.509   7.873 -0.4533  0.0322 -0.3854
   29CHL1  H23B 2133   5.928   5.652   7.832  0.6962 -0.6240  0.3415
   29CHL1   C24 2134   5.798   5.687   7.998  0.2263  0.3266 -0.8801
   29CHL1  H24A 2135   5.800   5.798   7.992  3.3703  0.4125 -0.1041
   29CHL1  H24B 2136   5.696   5.654   8.027  0.2170  0.0294 -1.2273
   29CHL1   C25 2137   5.893   5.642   8.110 -0.0392  0.5248 -0.5833
   29CHL1   H25 2138   5.998   5.642   8.072 -0.0066 -2.3516 -0.6739
   29CHL1   C26 2139   5.893   5.729   8.237  0.4562  0.0256  0.5404
   29CHL1  H26A 2140   5.790   5.759   8.263  0.8162  1.4227  0.4104
   29CHL1  H26B 2141   5.928   5.674   8.328 -2.9241 -1.5846  1.0418
   29CHL1  H26C 2142   5.955   5.819   8.218  1.1645 -0.8499 -1.6539
   29CHL1   C27 2143   5.862   5.502   8.153 -0.5025  0.0621  0.4094
   29CHL1  H27A 2144   5.753   5.483   8.156 -0.6651  0.4570 -1.4796
   29CHL1  H27B 2145   5.906   5.432   8.078 -1.8078 -0.0934 -0.2346
   29CHL1  H27C 2146   5.914   5.471   8.246  0.3646 -1.5298 -0.5643
   30CHL1    C3 2147   4.201   3.524   7.275 -0.3030  0.7850 -0.7073
   30CHL1    H3 2148   4.100   3.496   7.313  0.7900 -3.5995 -0.5625
   30CHL1    O3 2149   4.206   3.470   7.142 -0.1910  0.0020 -0.0330
   30CHL1   H3' 2150   4.146   3.520   7.087 -0.4025 -0.1890  0.0211
   30CHL1    C4 2151   4.206   3.676   7.277  0.4184  0.6444 -0.1952
   30CHL1   H4A 2152   4.299   3.715   7.230  0.0443  1.2143 -0.4700
   30CHL1   H4B 2153   4.125   3.709   7.209 -0.7777 -0.7192  0.5079
   30CHL1    C5 2154   4.192   3.725   7.419 -0.0481 -0.0839 -0.1624
   30CHL1    C6 2155   4.097   3.809   7.457  0.5654  0.0378 -0.2904
   30CHL1    H6 2156   4.031   3.856   7.382 -1.6880  0.7763  1.9859
   30CHL1    C7 2157   4.072   3.870   7.593 -0.4517  0.3284 -0.2230
   30CHL1   H7A 2158   4.053   3.980   7.586  0.2937  0.4785  0.0274
   30CHL1   H7B 2159   3.983   3.818   7.634  0.1192  1.0197  2.0135
   30CHL1    C8 2160   4.201   3.846   7.684 -0.1478  0.0806  0.0650
   30CHL1    H8 2161   4.290   3.910   7.667  0.6073 -0.0147  3.0600
   30CHL1   C14 2162   4.157   3.858   7.833 -0.4426 -0.7065  0.1355
   30CHL1   H14 2163   4.072   3.787   7.841 -0.3478 -0.7008  1.2576
   30CHL1   C15 2164   4.086   3.986   7.875 -0.1486  0.5764  0.0950
   30CHL1  H15A 2165   4.139   4.083   7.861 -0.0198  0.3426 -1.0757
   30CHL1  H15B 2166   3.987   4.003   7.828 -0.3073  1.0699  0.5803
   30CHL1   C16 2167   4.060   3.966   8.023 -0.2996 -0.6926 -0.2752
   30CHL1  H16A 2168   4.081   4.061   8.076  0.0428 -1.4820  1.0592
   30CHL1  H16B 2169   3.956   3.933   8.043 -0.2809 -1.3008 -1.0851
   30CHL1   C17 2170   4.159   3.860   8.071  0.2228  0.0211  0.2056
   30CHL1   H17 2171   4.114   3.758   8.073  2.4084 -1.0844 -1.9554
   30CHL1   C13 2172   4.254   3.837   7.944 -0.4689  0.2186  0.3170
   30CHL1   C18 2173   4.367   3.944   7.958 -0.3100  0.8057  0.2370
   30CHL1  H18A 2174   4.418   3.955   7.861 -0.2715 -0.0555  0.1501
   30CHL1  H18B 2175   4.325   4.042   7.990  0.3496  0.3609  2.6818
   30CHL1  H18C 2176   4.444   3.912   8.031  0.4711 -0.8665 -1.2564
   30CHL1   C12 2177   4.319   3.699   7.923  0.4534  0.2503 -0.4312
   30CHL1  H12A 2178   4.405   3.693   7.992 -0.0968 -0.0587  0.2354
   30CHL1  H12B 2179   4.236   3.630   7.948 -0.5645  2.1438  1.7804
   30CHL1   C11 2180   4.357   3.671   7.779  0.3601  0.6742  0.1103
   30CHL1  H11A 2181   4.449   3.727   7.753  1.8089 -2.5060 -2.3727
   30CHL1  H11B 2182   4.383   3.563   7.767 -1.2428  0.4152 -1.3900
   30CHL1    C9 2183   4.249   3.697   7.670 -0.5295  0.0900  0.3081
   30CHL1    H9 2184   4.156   3.647   7.702 -2.7012  4.2965  1.2960
   30CHL1   C10 2185   4.291   3.661   7.528 -0.4115 -0.6159  0.4876
   30CHL1   C19 2186   4.425   3.737   7.495  0.1888  0.2636 -0.8809
   30CHL1  H19A 2187   4.508   3.721   7.566 -1.3542 -0.2846  0.8959
   30CHL1  H19B 2188   4.464   3.684   7.406  2.5878 -0.0071  0.2802
   30CHL1  H19C 2189   4.417   3.847   7.481 -0.9967  0.4586  0.9500
   30CHL1    C1 2190   4.310   3.506   7.502 -0.1050 -0.0912  0.0869
   30CHL1   H1A 2191   4.402   3.484   7.560 -0.1768  0.8750  0.5949
   30CHL1   H1B 2192   4.224   3.461   7.555  0.4187  0.2347  1.2505
   30CHL1    C2 2193   4.313   3.461   7.353  0.4484 -0.5888 -0.4679
   30CHL1   H2A 2194   4.310   3.350   7.339 -1.0514 -0.4648 -1.3473
   30CHL1   H2B 2195   4.410   3.495   7.311 -0.1925  2.4867  0.2984
   30CHL1   C20 2196   4.213   3.875   8.216  0.6453  0.2754  0.0771
   30CHL1   H20 2197   4.283   3.961   8.221  1.9378 -0.8135  2.0491
   30CHL1   C21 2198   4.276   3.744   8.259 -0.0731 -0.0309 -0.1936
   30CHL1  H21A 2199   4.199   3.665   8.269  1.0244 -1.0109  0.7703
   30CHL1  H21B 2200   4.322   3.760   8.359 -2.6867 -0.5520  1.1909
   30CHL1  H21C 2201   4.356   3.708   8.191  0.6933  0.0718  0.6336
   30CHL1   C22 2202   4.092   3.928   8.311  0.7764 -0.0212  0.5824
   30CHL1  H22A 2203   4.035   4.019   8.282  0.5317 -0.3835 -0.0895
   30CHL1  H22B 2204   4.022   3.842   8.309  0.3530  0.2588 -2.9360
   30CHL1   C23 2205   4.128   3.952   8.462 -0.1607 -0.1384  0.9749
   30CHL1  H23A 2206   4.173   3.855   8.492 -1.7135 -1.5130 -0.9040
   30CHL1  H23B 2207   4.200   4.036   8.472  0.2159 -0.6099  2.6297
   30CHL1   C24 2208   4.008   3.971   8.551  0.3416  0.3407 -0.3446
   30CHL1  H24A 2209   3.970   4.076   8.543 -0.1185  0.1608 -0.5390
   30CHL1  H24B 2210   3.924   3.908   8.517  0.7654  0.0935 -0.9477
   30CHL1   C25 2211   4.017   3.932   8.698 -0.8151  0.3544  0.1811
   30CHL1   H25 2212   4.036   3.822   8.699 -2.9106 -0.0489  1.9897
   30CHL1   C26 2213   4.140   4.002   8.759  0.0740  0.0730 -0.6408
   30CHL1  H26A 2214   4.238   3.973   8.716  0.6164  2.4243 -1.1265
   30CHL1  H26B 2215   4.129   4.104   8.716  1.0385  1.5578  2.3430
   30CHL1  H26C 2216   4.147   4.000   8.870 -0.5916  2.8148 -0.4513
   30CHL1   C27 2217   3.896   3.950   8.779  0.3861  0.8494 -0.2386
   30CHL1  H27A 2218   3.872   4.058   8.768 -0.6347  0.5485 -1.1298
   30CHL1  H27B 2219   3.819   3.892   8.724 -0.8169  1.7228  0.4709
   30CHL1  H27C 2220   3.908   3.908   8.881  1.1658  1.2388 -0.1568
   31CHL1    C3 2221   3.688   6.085   6.767 -0.2315  0.2516 -0.3359
   31CHL1    H3 2222   3.632   6.010   6.826  0.1308 -0.1326 -0.4737
   31CHL1    O3 2223   3.662   6.064   6.626 -0.4459 -0.4099  0.2738
   31CHL1   H3' 2224   3.710   6.136   6.585 -1.2387  0.0774  0.1973
   31CHL1    C4 2225   3.626   6.223   6.796 -0.3115  0.0035 -0.4048
   31CHL1   H4A 2226   3.691   6.285   6.731  0.4892 -0.8774 -0.4675
   31CHL1   H4B 2227   3.520   6.222   6.763 -0.1705 -1.2430 -0.8834
   31CHL1    C5 2228   3.639   6.270   6.938  0.1343 -0.5018 -0.1686
   31CHL1    C6 2229   3.532   6.304   7.010  0.6232  0.2837 -0.4139
   31CHL1    H6 2230   3.430   6.300   6.971 -0.3083  0.1639  1.8825
   31CHL1    C7 2231   3.547   6.343   7.155 -0.1084  0.3152 -0.1321
   31CHL1   H7A 2232   3.473   6.426   7.160 -0.4834  0.1412 -1.8582
   31CHL1   H7B 2233   3.498   6.262   7.213  2.9941 -1.6818 -0.0821
   31CHL1    C8 2234   3.694   6.361   7.207  0.0735 -0.4346  0.0047
   31CHL1    H8 2235   3.739   6.458   7.176 -1.8664  0.3613 -0.4380
   31CHL1   C14 2236   3.687   6.360   7.367 -0.1075 -0.8429  0.0225
   31CHL1   H14 2237   3.644   6.262   7.397 -2.8010  0.1403 -0.3518
   31CHL1   C15 2238   3.597   6.457   7.446 -0.4482  0.6065 -1.4078
   31CHL1  H15A 2239   3.615   6.556   7.400 -1.1418  1.6327  0.4087
   31CHL1  H15B 2240   3.488   6.435   7.440 -0.2556 -0.5642 -0.9789
   31CHL1   C16 2241   3.650   6.438   7.592 -0.7618 -0.5529  0.0861
   31CHL1  H16A 2242   3.674   6.542   7.619  0.5562 -1.0092  0.7250
   31CHL1  H16B 2243   3.580   6.378   7.654 -0.0173 -1.3929  0.1476
   31CHL1   C17 2244   3.781   6.350   7.579  0.7134  0.6211 -0.7535
   31CHL1   H17 2245   3.753   6.243   7.590  0.2055  0.9022  1.1579
   31CHL1   C13 2246   3.827   6.368   7.435 -0.3281  0.4026 -0.0821
   31CHL1   C18 2247   3.885   6.510   7.416  0.1993 -0.5889 -0.5873
   31CHL1  H18A 2248   3.815   6.580   7.466 -0.5091 -3.6275  3.0854
   31CHL1  H18B 2249   3.983   6.518   7.469  0.6073 -0.8039 -1.2906
   31CHL1  H18C 2250   3.908   6.533   7.309 -1.7889  1.0195 -0.7373
   31CHL1   C12 2251   3.918   6.261   7.376  0.0603 -0.3511  0.2875
   31CHL1  H12A 2252   4.018   6.299   7.405  1.3436 -3.1837 -0.0151
   31CHL1  H12B 2253   3.887   6.166   7.424 -0.4843 -1.8657 -2.7568
   31CHL1   C11 2254   3.920   6.250   7.221 -0.4375 -0.5126 -0.3628
   31CHL1  H11A 2255   3.976   6.336   7.181  0.7345  0.3333  2.8201
   31CHL1  H11B 2256   3.971   6.154   7.196 -2.3482 -2.0650  1.2783
   31CHL1    C9 2257   3.783   6.249   7.150  0.1001 -0.0113 -0.5379
   31CHL1    H9 2258   3.732   6.151   7.164 -1.0749  0.3519 -1.9999
   31CHL1   C10 2259   3.786   6.252   6.993 -0.0014 -0.9896  0.2211
   31CHL1   C19 2260   3.873   6.377   6.942 -0.0448 -0.1998 -0.0438
   31CHL1  H19A 2261   3.979   6.360   6.973  0.1005  1.2481  0.2918
   31CHL1  H19B 2262   3.863   6.375   6.831  0.3273  0.6437 -0.0954
   31CHL1  H19C 2263   3.827   6.474   6.967 -1.2156 -1.3414  2.6439
   31CHL1    C1 2264   3.863   6.123   6.946 -0.2664  0.2242 -0.4940
   31CHL1   H1A 2265   3.970   6.133   6.975 -0.3293 -2.5339  1.0038
   31CHL1   H1B 2266   3.816   6.038   6.999 -2.7594  3.2195  2.6169
   31CHL1    C2 2267   3.838   6.097   6.794 -0.4889 -0.4750 -0.2005
   31CHL1   H2A 2268   3.889   6.002   6.768  0.7268  0.2745 -0.5968
   31CHL1   H2B 2269   3.879   6.180   6.733  0.6159 -0.3204  0.7188
   31CHL1   C20 2270   3.879   6.378   7.695 -0.1692 -0.2440 -0.0687
   31CHL1   H20 2271   3.922   6.481   7.689 -0.7011 -0.0531 -0.7496
   31CHL1   C21 2272   4.004   6.280   7.684 -0.5792 -0.0437 -0.4281
   31CHL1  H21A 2273   4.070   6.321   7.604  1.2531  0.4264  1.2576
   31CHL1  H21B 2274   3.965   6.177   7.666  1.4940 -0.5870 -2.1765
   31CHL1  H21C 2275   4.053   6.295   7.782 -1.1393  3.8883 -0.5587
   31CHL1   C22 2276   3.816   6.372   7.841 -0.4000  0.3344 -0.2456
   31CHL1  H22A 2277   3.900   6.394   7.911 -2.1787 -2.0035  2.9019
   31CHL1  H22B 2278   3.747   6.459   7.843 -0.6684  0.1450 -1.0517
   31CHL1   C23 2279   3.757   6.231   7.892  0.4700 -0.7497  0.5453
   31CHL1  H23A 2280   3.671   6.216   7.823 -0.3407 -2.8023  1.9146
   31CHL1  H23B 2281   3.823   6.142   7.895 -0.3027 -1.3408  0.6316
   31CHL1   C24 2282   3.700   6.240   8.038 -0.1781  0.4081  0.3347
   31CHL1  H24A 2283   3.786   6.243   8.108 -0.8252 -1.4095  1.2954
   31CHL1  H24B 2284   3.645   6.337   8.040  0.2031  0.7454 -2.1915
   31CHL1   C25 2285   3.608   6.117   8.075  1.0191 -0.5539  0.4001
   31CHL1   H25 2286   3.527   6.123   7.999 -0.3533  1.0729  1.9000
   31CHL1   C26 2287   3.680   5.985   8.067 -0.7536  0.0305 -0.2661
   31CHL1  H26A 2288   3.629   5.898   8.114  2.0878 -1.1519  0.8686
   31CHL1  H26B 2289   3.701   5.955   7.962  1.2019  0.2140  0.0228
   31CHL1  H26C 2290   3.776   5.995   8.122  0.2602 -0.7935 -1.8191
   31CHL1   C27 2291   3.551   6.137   8.214 -0.2064 -0.0639  0.1798
   31CHL1  H27A 2292   3.478   6.218   8.234  2.8941  2.4091  2.6283
   31CHL1  H27B 2293   3.637   6.154   8.282  0.1514  1.6663 -0.6519
   31CHL1  H27C 2294   3.499   6.043   8.243 -0.6341 -0.1524 -0.8609
   32CHL1    C3 2295   5.365   3.963   6.788 -0.3940  0.0295  0.5392
   32CHL1    H3 2296   5.443   4.031   6.829  0.7976 -1.5671  1.0088
   32CHL1    O3 2297   5.380   3.940   6.655  0.0311  0.0002  0.4148
   32CHL1   H3' 2298   5.434   3.861   6.645  0.6604  0.4823 -0.0677
   32CHL1    C4 2299   5.381   3.827   6.867  0.1568  0.6123  0.2782
   32CHL1   H4A 2300   5.292   3.763   6.847  1.9739 -2.2093  0.6765
   32CHL1   H4B 2301   5.471   3.772   6.832 -0.3455  0.6760 -1.1798
   32CHL1    C5 2302   5.369   3.844   7.018 -0.3571 -0.4658 -0.6289
   32CHL1    C6 2303   5.476   3.804   7.088 -0.2527  0.0118  0.4107
   32CHL1    H6 2304   5.564   3.755   7.043  3.4247  5.0076  1.2168
   32CHL1    C7 2305   5.482   3.813   7.245 -0.0620  1.3258  0.2812
   32CHL1   H7A 2306   5.488   3.710   7.288 -1.9821  0.8280 -0.4958
   32CHL1   H7B 2307   5.562   3.874   7.291  1.5036 -0.2365 -0.2622
   32CHL1    C8 2308   5.349   3.858   7.308 -0.3327 -0.3683 -0.5625
   32CHL1    H8 2309   5.278   3.773   7.311 -1.0789  0.2445 -0.7111
   32CHL1   C14 2310   5.375   3.909   7.448  0.5051  0.4953 -0.2040
   32CHL1   H14 2311   5.432   4.004   7.440 -0.7766  1.4132  1.1451
   32CHL1   C15 2312   5.452   3.812   7.549 -0.1069 -0.1655  0.1117
   32CHL1  H15A 2313   5.405   3.711   7.551 -1.3492  0.3899  0.3515
   32CHL1  H15B 2314   5.560   3.813   7.525  0.0281 -2.1407  0.5000
   32CHL1   C16 2315   5.420   3.867   7.683  0.2529  0.4997 -0.5352
   32CHL1  H16A 2316   5.377   3.795   7.756 -1.0240  1.1241 -0.6562
   32CHL1  H16B 2317   5.506   3.914   7.736  2.0207 -1.6291 -1.3629
   32CHL1   C17 2318   5.310   3.983   7.666 -0.5260 -0.1424 -0.1173
   32CHL1   H17 2319   5.367   4.079   7.666  1.2404 -1.1356 -1.1711
   32CHL1   C13 2320   5.249   3.953   7.519 -0.5073 -0.2234 -0.0188
   32CHL1   C18 2321   5.154   3.830   7.538  0.4430  0.3894 -0.1325
   32CHL1  H18A 2322   5.045   3.850   7.543 -0.2735 -2.6553 -1.0807
   32CHL1  H18B 2323   5.158   3.743   7.469 -0.6322 -1.5659  2.1233
   32CHL1  H18C 2324   5.179   3.773   7.630 -0.8322 -0.2297 -0.1501
   32CHL1   C12 2325   5.184   4.069   7.436  0.3339 -0.2007  0.2359
   32CHL1  H12A 2326   5.094   4.096   7.495  0.8098 -0.8574  1.2713
   32CHL1  H12B 2327   5.249   4.159   7.433 -1.3404  1.0835  0.8113
   32CHL1   C11 2328   5.154   4.017   7.293  0.5547  0.1785  0.2918
   32CHL1  H11A 2329   5.076   3.938   7.300  1.2041 -0.3189  2.8776
   32CHL1  H11B 2330   5.113   4.093   7.224 -0.8825 -2.2749 -1.7113
   32CHL1    C9 2331   5.280   3.965   7.218 -0.0461 -0.5563  0.1030
   32CHL1    H9 2332   5.356   4.046   7.214 -0.5832 -0.0593 -3.6627
   32CHL1   C10 2333   5.252   3.918   7.074  0.7697  0.2608  0.3667
   32CHL1   C19 2334   5.129   3.826   7.056  0.0500  0.2904  0.2120
   32CHL1  H19A 2335   5.151   3.730   7.106 -0.8167 -0.1486 -0.2209
   32CHL1  H19B 2336   5.039   3.867   7.107 -0.6565  2.1580 -2.2760
   32CHL1  H19C 2337   5.094   3.795   6.955 -0.8931 -1.0837  0.9397
   32CHL1    C1 2338   5.228   4.045   6.981  0.3206 -1.1813 -0.0246
   32CHL1   H1A 2339   5.142   4.107   7.013 -0.8196 -3.1699  0.9664
   32CHL1   H1B 2340   5.313   4.114   7.001  0.3401 -1.7281  2.0841
   32CHL1    C2 2341   5.230   4.020   6.832  0.2434  0.6103  0.4017
   32CHL1   H2A 2342   5.206   4.117   6.785 -0.9760 -0.9229 -2.3835
   32CHL1   H2B 2343   5.150   3.947   6.805 -0.0881 -0.6544  4.2016
   32CHL1   C20 2344   5.219   4.002   7.785  0.1219  0.3038 -0.4612
   32CHL1   H20 2345   5.176   3.904   7.816  0.8663 -0.9236 -3.0343
   32CHL1   C21 2346   5.092   4.081   7.759  0.6652 -0.3005  0.3277
   32CHL1  H21A 2347   5.016   4.023   7.702 -1.6355  2.9393 -0.1688
   32CHL1  H21B 2348   5.107   4.181   7.711 -1.4890  1.5885  3.2759
   32CHL1  H21C 2349   5.046   4.107   7.856 -1.1946  0.7775 -0.7961
   32CHL1   C22 2350   5.311   4.050   7.910  0.2340 -0.5763  0.4203
   32CHL1  H22A 2351   5.395   3.977   7.910  1.3465  0.6643  0.8643
   32CHL1  H22B 2352   5.347   4.150   7.876 -0.9235  0.0304  0.9161
   32CHL1   C23 2353   5.243   4.050   8.045 -0.2935  0.2278 -0.4577
   32CHL1  H23A 2354   5.157   4.120   8.049 -0.8875 -0.5268  0.5863
   32CHL1  H23B 2355   5.210   3.948   8.074 -2.7919  1.3849  1.1373
   32CHL1   C24 2356   5.338   4.106   8.149  0.0418  0.4019 -1.1866
   32CHL1  H24A 2357   5.428   4.041   8.156  0.1913  0.8262  2.2214
   32CHL1  H24B 2358   5.362   4.212   8.124  0.1193  0.8636  0.7233
   32CHL1   C25 2359   5.281   4.134   8.295 -0.2183  1.0451  0.3891
   32CHL1   H25 2360   5.355   4.190   8.356  3.4106 -0.8469 -1.9275
   32CHL1   C26 2361   5.151   4.218   8.294  0.8769  0.3954  0.0078
   32CHL1  H26A 2362   5.075   4.145   8.258  0.9915  0.3382 -0.1156
   32CHL1  H26B 2363   5.119   4.265   8.390 -3.8870 -1.1775 -0.5485
   32CHL1  H26C 2364   5.160   4.297   8.217  0.1637 -0.0257 -0.5166
   32CHL1   C27 2365   5.255   3.998   8.361 -0.0315  0.1389  0.3360
   32CHL1  H27A 2366   5.235   4.012   8.469 -2.1990  0.5086 -0.0689
   32CHL1  H27B 2367   5.159   3.958   8.323  0.1319  0.2968 -0.2493
   32CHL1  H27C 2368   5.342   3.932   8.336  1.0072  1.4041  0.5138
   33CHL1    C3 2369   5.572   5.008   6.689  0.0537 -0.3890 -0.0387
   33CHL1    H3 2370   5.530   5.107   6.717  0.4836 -0.7317  2.0385
   33CHL1    O3 2371   5.584   5.004   6.547  0.3805 -0.2282  0.4011
   33CHL1   H3' 2372   5.559   4.914   6.523 -0.3152 -0.0912  0.5796
   33CHL1    C4 2373   5.713   5.000   6.750  0.8955  0.6502  0.4157
   33CHL1   H4A 2374   5.758   4.910   6.703 -1.8005 -0.0784 -1.0189
   33CHL1   H4B 2375   5.758   5.092   6.708 -2.2440  1.8562 -0.5907
   33CHL1    C5 2376   5.706   4.989   6.897 -0.1265 -0.4235  0.1270
   33CHL1    C6 2377   5.764   5.084   6.967  0.8709  0.2515 -0.2947
   33CHL1    H6 2378   5.824   5.161   6.917 -0.6486  2.2725  0.8482
   33CHL1    C7 2379   5.768   5.089   7.117  0.1121  0.0499  0.2917
   33CHL1   H7A 2380   5.875   5.098   7.146  0.6906 -2.0677 -0.9264
   33CHL1   H7B 2381   5.708   5.176   7.151 -2.3884 -1.0475 -1.0604
   33CHL1    C8 2382   5.711   4.953   7.185  0.3833  0.2957  0.2443
   33CHL1    H8 2383   5.792   4.877   7.177 -0.0953 -0.1781 -0.1509
   33CHL1   C14 2384   5.680   4.961   7.339 -0.6032  0.0885  1.0081
   33CHL1   H14 2385   5.610   5.045   7.357 -1.6747 -0.7288  0.7511
   33CHL1   C15 2386   5.803   4.996   7.431 -0.5794  0.1444  0.2347
   33CHL1  H15A 2387   5.897   4.952   7.391  0.3851  2.1116  0.2137
   33CHL1  H15B 2388   5.820   5.105   7.418 -0.1733  0.0094 -0.4517
   33CHL1   C16 2389   5.770   4.941   7.568  0.0884 -0.5922 -0.1344
   33CHL1  H16A 2390   5.849   4.867   7.594  0.8756  0.7588  1.5254
   33CHL1  H16B 2391   5.772   5.016   7.650 -2.3953 -2.3776  1.6847
   33CHL1   C17 2392   5.628   4.871   7.547 -0.2742  0.1292 -0.2615
   33CHL1   H17 2393   5.546   4.944   7.565 -0.8179  0.1161 -2.4322
   33CHL1   C13 2394   5.624   4.830   7.394  0.4425 -0.1063  0.1246
   33CHL1   C18 2395   5.722   4.710   7.373  0.4376  0.0326  0.5249
   33CHL1  H18A 2396   5.745   4.699   7.265 -1.4339 -1.4482  0.2141
   33CHL1  H18B 2397   5.818   4.714   7.429 -0.2565 -3.6725  2.3569
   33CHL1  H18C 2398   5.655   4.627   7.404  0.3292  0.0926  0.4462
   33CHL1   C12 2399   5.482   4.820   7.332  0.5166 -0.2429  0.3508
   33CHL1  H12A 2400   5.421   4.735   7.368 -0.1505 -0.9628 -2.2743
   33CHL1  H12B 2401   5.426   4.910   7.365 -0.2339 -0.4076 -0.4268
   33CHL1   C11 2402   5.492   4.810   7.184 -0.0118  0.3498  0.8090
   33CHL1  H11A 2403   5.538   4.711   7.162 -0.8748  0.6265 -2.8977
   33CHL1  H11B 2404   5.393   4.820   7.134 -0.5693  1.1153  2.0393
   33CHL1    C9 2405   5.583   4.914   7.112 -0.6110 -0.4837 -0.1090
   33CHL1    H9 2406   5.523   5.008   7.108  1.6317  1.0004 -3.2802
   33CHL1   C10 2407   5.611   4.887   6.960 -0.6280 -0.0953 -0.3702
   33CHL1   C19 2408   5.673   4.744   6.942 -0.1840 -0.4154 -0.0031
   33CHL1  H19A 2409   5.773   4.743   6.990  0.9928 -1.8110 -2.3465
   33CHL1  H19B 2410   5.597   4.671   6.978 -0.9376  1.2381  1.9762
   33CHL1  H19C 2411   5.691   4.726   6.834 -0.4349  0.1389 -0.1408
   33CHL1    C1 2412   5.472   4.879   6.887  0.2267 -0.1359 -0.5301
   33CHL1   H1A 2413   5.423   4.781   6.909  1.9347 -0.5737  1.6920
   33CHL1   H1B 2414   5.407   4.958   6.929 -1.4211 -1.2461 -0.9002
   33CHL1    C2 2415   5.482   4.894   6.738 -0.1486  0.2820  1.2653
   33CHL1   H2A 2416   5.379   4.910   6.698  1.3300  0.7048 -2.7065
   33CHL1   H2B 2417   5.534   4.802   6.708 -0.2485  0.2241  1.2678
   33CHL1   C20 2418   5.622   4.761   7.651  0.3666 -0.1216 -0.5674
   33CHL1   H20 2419   5.695   4.678   7.639  1.0626 -0.0369  2.4153
   33CHL1   C21 2420   5.484   4.689   7.652  0.2752  0.5922  0.2452
   33CHL1  H21A 2421   5.473   4.617   7.568  0.4200 -1.4154  1.8911
   33CHL1  H21B 2422   5.401   4.763   7.643  0.1392  0.3096 -1.0129
   33CHL1  H21C 2423   5.478   4.621   7.739 -0.9602  2.2239  1.5097
   33CHL1   C22 2424   5.655   4.802   7.801  0.8745 -0.0311 -0.5326
   33CHL1  H22A 2425   5.676   4.708   7.856  1.1173 -1.2258 -2.5795
   33CHL1  H22B 2426   5.754   4.852   7.790  0.9772 -0.5755 -2.2902
   33CHL1   C23 2427   5.565   4.907   7.869  0.2781  0.3573  0.8604
   33CHL1  H23A 2428   5.542   4.997   7.809 -0.5120 -0.1620  0.3698
   33CHL1  H23B 2429   5.467   4.859   7.892  1.2394 -2.6202 -0.6357
   33CHL1   C24 2430   5.620   4.962   8.001  0.5408 -0.2995 -0.2394
   33CHL1  H24A 2431   5.551   5.024   8.061  0.0503 -1.5082  0.4806
   33CHL1  H24B 2432   5.648   4.873   8.063 -3.5397 -1.5011  0.1664
   33CHL1   C25 2433   5.739   5.060   7.982 -0.1352 -0.1411 -0.4834
   33CHL1   H25 2434   5.814   5.007   7.919 -1.3376 -1.5339 -0.8019
   33CHL1   C26 2435   5.702   5.190   7.908  0.0505  0.5342  1.5969
   33CHL1  H26A 2436   5.785   5.263   7.920 -0.2926  1.1103  0.6186
   33CHL1  H26B 2437   5.679   5.151   7.806  1.4354  0.0479  1.4520
   33CHL1  H26C 2438   5.612   5.239   7.951 -0.3685  2.9528 -1.6252
   33CHL1   C27 2439   5.783   5.108   8.121 -0.0084  0.9550 -0.2490
   33CHL1  H27A 2440   5.879   5.164   8.116  1.3239 -1.2236 -0.4626
   33CHL1  H27B 2441   5.693   5.148   8.173 -0.8608 -2.0442  0.7629
   33CHL1  H27C 2442   5.798   5.020   8.188 -2.0119  0.1902 -0.7494
   34CHL1    C3 2443   6.265   2.763   7.059  0.3453  0.0982 -0.4337
   34CHL1    H3 2444   6.180   2.749   7.130  0.1295  0.4784 -0.6162
   34CHL1    O3 2445   6.207   2.808   6.943  0.5395 -0.4528  0.7466
   34CHL1   H3' 2446   6.279   2.797   6.881  0.7502 -2.8120  1.3450
   34CHL1    C4 2447   6.368   2.866   7.107 -0.3643  0.0212  0.3208
   34CHL1   H4A 2448   6.437   2.868   7.019 -2.2373 -0.7852 -1.2289
   34CHL1   H4B 2449   6.323   2.968   7.107 -1.4493 -0.4409 -0.5756
   34CHL1    C5 2450   6.417   2.824   7.243  0.0359 -0.6263 -0.5701
   34CHL1    C6 2451   6.405   2.897   7.357  0.1715  0.6504  0.4625
   34CHL1    H6 2452   6.348   2.988   7.333 -1.4041 -0.2765  0.5220
   34CHL1    C7 2453   6.459   2.865   7.498 -0.2223  0.1132  0.5918
   34CHL1   H7A 2454   6.517   2.955   7.525  1.7013 -0.5146 -1.1893
   34CHL1   H7B 2455   6.374   2.836   7.563  0.4535 -1.7306  0.7103
   34CHL1    C8 2456   6.553   2.744   7.485 -0.0271  0.2828  0.0881
   34CHL1    H8 2457   6.654   2.772   7.448 -0.2778  1.1372  0.0328
   34CHL1   C14 2458   6.567   2.697   7.631 -0.5981 -0.1077 -0.0903
   34CHL1   H14 2459   6.465   2.670   7.667 -0.6036  0.7390  0.5420
   34CHL1   C15 2460   6.636   2.798   7.724 -0.0144  0.3443 -0.3803
   34CHL1  H15A 2461   6.731   2.831   7.676  0.7685  3.7937  2.9599
   34CHL1  H15B 2462   6.577   2.889   7.748 -0.5117  0.2398 -1.1994
   34CHL1   C16 2463   6.676   2.713   7.842  0.9581  0.2044 -0.2317
   34CHL1  H16A 2464   6.779   2.745   7.867  1.7178 -3.3555  1.9550
   34CHL1  H16B 2465   6.616   2.723   7.935  0.0332 -1.6447 -0.5756
   34CHL1   C17 2466   6.662   2.564   7.800  0.0790 -0.0078 -0.6894
   34CHL1   H17 2467   6.564   2.525   7.833  0.4798 -0.0113  0.5562
   34CHL1   C13 2468   6.655   2.573   7.646 -0.4917  0.3066  0.1030
   34CHL1   C18 2469   6.806   2.585   7.609 -0.0822 -0.3887 -0.4984
   34CHL1  H18A 2470   6.849   2.484   7.618 -0.1197 -0.2214  2.2369
   34CHL1  H18B 2471   6.811   2.628   7.506 -0.0865  2.1265  0.4664
   34CHL1  H18C 2472   6.859   2.655   7.677 -2.6514  1.0363  0.1583
   34CHL1   C12 2473   6.586   2.461   7.571 -0.0880 -0.0152 -0.1269
   34CHL1  H12A 2474   6.644   2.366   7.575  2.5783  1.4857 -1.0482
   34CHL1  H12B 2475   6.500   2.430   7.635 -1.3222  1.0564 -1.1932
   34CHL1   C11 2476   6.563   2.486   7.421  0.2218  0.0587 -0.3934
   34CHL1  H11A 2477   6.664   2.482   7.375  0.6543  0.0392  0.5220
   34CHL1  H11B 2478   6.500   2.404   7.380 -0.1163 -0.8700  1.8346
   34CHL1    C9 2479   6.497   2.631   7.394 -0.0802 -0.9258  0.2228
   34CHL1    H9 2480   6.393   2.619   7.431 -0.4775 -0.1730 -0.6152
   34CHL1   C10 2481   6.480   2.681   7.246 -0.2721  1.0063  0.8063
   34CHL1   C19 2482   6.619   2.675   7.171  0.0643  0.8294  0.4673
   34CHL1  H19A 2483   6.653   2.570   7.183 -1.3491  0.4713  1.6474
   34CHL1  H19B 2484   6.611   2.706   7.065 -0.8327 -0.8181  0.0128
   34CHL1  H19C 2485   6.695   2.743   7.213  2.2135 -0.8987 -0.4350
   34CHL1    C1 2486   6.388   2.572   7.168 -0.6017 -0.0632 -0.4734
   34CHL1   H1A 2487   6.441   2.479   7.138 -0.6262  0.1563 -1.2150
   34CHL1   H1B 2488   6.304   2.537   7.231  0.0068  0.7814  0.8427
   34CHL1    C2 2489   6.324   2.630   7.037 -0.1400  0.3981 -0.7094
   34CHL1   H2A 2490   6.247   2.559   6.999  0.7362 -1.4150  0.7560
   34CHL1   H2B 2491   6.406   2.637   6.962  1.8254 -0.4747  1.2368
   34CHL1   C20 2492   6.762   2.463   7.868 -0.1248 -0.3836 -0.5619
   34CHL1   H20 2493   6.865   2.491   7.838 -0.3875 -0.5737 -1.7015
   34CHL1   C21 2494   6.740   2.316   7.821  0.2650  0.3702  1.0436
   34CHL1  H21A 2495   6.636   2.277   7.820  0.2018  0.2465 -2.5516
   34CHL1  H21B 2496   6.803   2.242   7.874  0.1746  1.3938  2.6404
   34CHL1  H21C 2497   6.781   2.307   7.718 -1.4052 -3.4532  0.5060
   34CHL1   C22 2498   6.758   2.466   8.019  0.7849 -0.1772  0.5541
   34CHL1  H22A 2499   6.830   2.384   8.042  0.2423 -0.0675  2.8090
   34CHL1  H22B 2500   6.796   2.563   8.057 -0.8548  0.0668  1.6454
   34CHL1   C23 2501   6.622   2.437   8.089 -0.4753 -0.3135  0.2142
   34CHL1  H23A 2502   6.558   2.514   8.042  0.0293  1.1877  1.8579
   34CHL1  H23B 2503   6.589   2.336   8.057 -0.1231 -0.6353  0.8363
   34CHL1   C24 2504   6.640   2.452   8.240  0.2039 -0.8215 -0.2396
   34CHL1  H24A 2505   6.545   2.408   8.277  0.9704 -2.8178 -0.5188
   34CHL1  H24B 2506   6.723   2.387   8.274  1.4967  0.3152 -1.0747
   34CHL1   C25 2507   6.623   2.598   8.297  0.0734  0.3835 -0.2360
   34CHL1   H25 2508   6.712   2.658   8.267  1.3167 -2.5479 -2.9618
   34CHL1   C26 2509   6.496   2.667   8.248  0.2353  0.4140 -0.1603
   34CHL1  H26A 2510   6.415   2.590   8.251  1.6848 -1.3034 -2.0062
   34CHL1  H26B 2511   6.465   2.749   8.317  0.4424  0.3457  0.0161
   34CHL1  H26C 2512   6.503   2.711   8.147  3.3855 -0.6513 -0.5082
   34CHL1   C27 2513   6.615   2.587   8.454  0.3693 -0.1822 -0.2792
   34CHL1  H27A 2514   6.509   2.566   8.480  0.1881 -0.9827 -1.5815
   34CHL1  H27B 2515   6.680   2.506   8.493 -2.3321 -0.8714  3.2852
   34CHL1  H27C 2516   6.636   2.684   8.505 -0.6848 -0.1453  0.1166
   35CHL1    C3 2517   3.576   3.912   7.164 -0.0131 -0.7590 -0.1499
   35CHL1    H3 2518   3.506   3.828   7.185 -1.1370  0.5498  1.6207
   35CHL1    O3 2519   3.601   3.929   7.031 -0.1258  0.1456 -0.4901
   35CHL1   H3' 2520   3.512   3.918   6.996 -0.7424  2.5896  0.1427
   35CHL1    C4 2521   3.507   4.039   7.208 -0.1422 -1.0230  0.2472
   35CHL1   H4A 2522   3.567   4.130   7.186 -0.1441 -1.2277 -0.6438
   35CHL1   H4B 2523   3.412   4.038   7.150 -1.2984 -1.0574  2.0665
   35CHL1    C5 2524   3.492   4.035   7.355  0.4700  0.2475  0.5297
   35CHL1    C6 2525   3.369   4.047   7.405 -0.6282  0.3578 -0.6819
   35CHL1    H6 2526   3.285   4.061   7.336 -2.3374 -3.1553  0.4527
   35CHL1    C7 2527   3.335   4.050   7.551  0.2285 -0.3485  0.0520
   35CHL1   H7A 2528   3.266   4.135   7.563  0.0664 -0.2797 -1.1675
   35CHL1   H7B 2529   3.284   3.954   7.574  1.3955 -0.7143  1.2079
   35CHL1    C8 2530   3.457   4.063   7.646 -0.0285 -0.0588 -0.6299
   35CHL1    H8 2531   3.497   4.167   7.653 -1.1719  0.3697 -0.2206
   35CHL1   C14 2532   3.427   4.018   7.792 -0.0893  0.4855  0.2553
   35CHL1   H14 2533   3.418   3.908   7.778 -0.5862  0.4544  0.7936
   35CHL1   C15 2534   3.302   4.051   7.864 -0.3553 -0.4150  0.0385
   35CHL1  H15A 2535   3.284   4.161   7.860  1.8316 -0.0069  0.0291
   35CHL1  H15B 2536   3.221   3.991   7.819  0.0539 -0.3679 -0.7663
   35CHL1   C16 2537   3.332   4.005   8.015  0.4907 -0.0580  0.0458
   35CHL1  H16A 2538   3.314   4.097   8.075 -0.8302 -0.1598 -0.1559
   35CHL1  H16B 2539   3.247   3.934   8.029 -0.7420  1.1413 -1.1040
   35CHL1   C17 2540   3.472   3.948   8.017 -0.6488 -0.4717 -0.6719
   35CHL1   H17 2541   3.461   3.840   7.993 -0.1686 -0.6152 -0.2668
   35CHL1   C13 2542   3.543   4.016   7.897  0.5550  0.8519 -0.0733
   35CHL1   C18 2543   3.570   4.171   7.929  0.3481 -0.1912 -0.1230
   35CHL1  H18A 2544   3.663   4.190   7.987  1.7530  1.1776 -2.6225
   35CHL1  H18B 2545   3.562   4.240   7.842  0.0313 -2.6435 -2.1626
   35CHL1  H18C 2546   3.484   4.207   7.990 -0.4783 -2.6730  0.2715
   35CHL1   C12 2547   3.662   3.944   7.841  0.3725  0.1554 -0.6615
   35CHL1  H12A 2548   3.752   3.956   7.905  0.7855 -5.0766  0.1499
   35CHL1  H12B 2549   3.635   3.837   7.833 -0.9267  0.4660 -0.5937
   35CHL1   C11 2550   3.694   3.995   7.697 -0.2303 -0.0334  0.2131
   35CHL1  H11A 2551   3.697   4.106   7.694 -2.5951  0.0813  0.3125
   35CHL1  H11B 2552   3.780   3.939   7.655 -0.7222  0.8983 -2.1579
   35CHL1    C9 2553   3.578   3.979   7.598  0.0379  0.3542  0.6705
   35CHL1    H9 2554   3.547   3.872   7.602  0.0481  0.2315 -1.3450
   35CHL1   C10 2555   3.610   4.007   7.440  0.2274  0.4101 -0.5358
   35CHL1   C19 2556   3.691   4.141   7.435 -0.0144  0.0392 -0.5601
   35CHL1  H19A 2557   3.626   4.218   7.481 -4.2206 -1.8583 -2.7623
   35CHL1  H19B 2558   3.782   4.132   7.498 -0.2962  0.5811 -0.0636
   35CHL1  H19C 2559   3.728   4.148   7.331  0.9192  1.2037 -0.1827
   35CHL1    C1 2560   3.688   3.881   7.390  0.3671  0.2090 -0.3784
   35CHL1   H1A 2561   3.781   3.881   7.451  0.6193  3.2904 -0.6552
   35CHL1   H1B 2562   3.636   3.783   7.405  0.3698  0.1583 -0.6993
   35CHL1    C2 2563   3.707   3.889   7.240 -0.1440  0.1564  0.4858
   35CHL1   H2A 2564   3.725   3.785   7.205 -0.7907 -0.4346  1.8589
   35CHL1   H2B 2565   3.783   3.964   7.210  0.9940 -0.4604  1.6916
   35CHL1   C20 2566   3.560   3.943   8.148  0.2234  0.6211 -0.1184
   35CHL1   H20 2567   3.617   4.037   8.161 -0.7793  1.1937  0.2883
   35CHL1   C21 2568   3.652   3.818   8.144 -0.5832 -0.3037 -0.3732
   35CHL1  H21A 2569   3.588   3.731   8.120 -0.3877 -1.0451  1.6186
   35CHL1  H21B 2570   3.699   3.795   8.242 -3.9909 -2.6554  0.9126
   35CHL1  H21C 2571   3.728   3.828   8.064 -1.1047  0.4333 -0.7937
   35CHL1   C22 2572   3.468   3.920   8.275  0.0499  0.3391 -0.2116
   35CHL1  H22A 2573   3.378   3.985   8.282  2.2104  3.6742 -1.0459
   35CHL1  H22B 2574   3.426   3.818   8.287 -1.0022  0.7705 -0.1251
   35CHL1   C23 2575   3.539   3.952   8.409 -0.5788  0.3948 -0.2940
   35CHL1  H23A 2576   3.489   3.902   8.494  1.8945 -0.8037  0.5474
   35CHL1  H23B 2577   3.634   3.895   8.417 -0.4258  0.6581 -0.2102
   35CHL1   C24 2578   3.554   4.100   8.441  0.1375 -0.4887  0.6203
   35CHL1  H24A 2579   3.606   4.141   8.352 -0.1166 -0.5675  0.4350
   35CHL1  H24B 2580   3.458   4.153   8.455 -0.6982 -0.9920 -2.5820
   35CHL1   C25 2581   3.642   4.123   8.567 -0.1555 -0.5589  0.7620
   35CHL1   H25 2582   3.742   4.074   8.557  0.2621  0.3986  0.0261
   35CHL1   C26 2583   3.671   4.274   8.586 -0.2644 -0.1033 -0.4719
   35CHL1  H26A 2584   3.742   4.294   8.669  0.3579 -2.0440 -0.4967
   35CHL1  H26B 2585   3.692   4.322   8.488 -2.9747  0.6871 -0.7470
   35CHL1  H26C 2586   3.573   4.322   8.606 -1.2968 -2.3126  0.0703
   35CHL1   C27 2587   3.563   4.067   8.690 -0.3883 -0.3142  0.0389
   35CHL1  H27A 2588   3.557   3.958   8.667 -0.9451 -0.8353  2.3860
   35CHL1  H27B 2589   3.465   4.117   8.696 -0.3972 -0.5087  2.0903
   35CHL1  H27C 2590   3.631   4.076   8.778  0.5481 -0.5896 -0.6338
   36CHL1    C3 2591   3.275   1.876   7.055 -0.6328 -0.1766 -0.5985
   36CHL1    H3 2592   3.222   1.971   7.079 -0.5457 -0.7299  2.0970
   36CHL1    O3 2593   3.291   1.852   6.913  0.3962  0.7780 -0.4407
   36CHL1   H3' 2594   3.374   1.805   6.905 -0.2288 -0.2728 -0.9416
   36CHL1    C4 2595   3.416   1.878   7.120  0.3580 -0.3286 -0.7165
   36CHL1   H4A 2596   3.475   1.787   7.094 -0.5471 -2.4986  3.8447
   36CHL1   H4B 2597   3.456   1.971   7.073 -2.1874  2.6981  2.5811
   36CHL1    C5 2598   3.405   1.898   7.271  0.0547 -0.4441 -0.2117
   36CHL1    C6 2599   3.464   2.001   7.335  0.8082 -0.1667 -0.5171
   36CHL1    H6 2600   3.516   2.085   7.287 -0.0607  0.7100  0.0349
   36CHL1    C7 2601   3.459   2.022   7.480  0.0526 -0.7861 -0.1560
   36CHL1   H7A 2602   3.565   2.022   7.515  0.0305 -0.2609 -0.0794
   36CHL1   H7B 2603   3.402   2.113   7.509 -2.0940 -2.4861  1.2597
   36CHL1    C8 2604   3.408   1.895   7.557 -0.8076  0.0784  0.3502
   36CHL1    H8 2605   3.484   1.815   7.569 -1.1029 -0.1218  0.9267
   36CHL1   C14 2606   3.372   1.944   7.693  0.0846  0.1794  0.0625
   36CHL1   H14 2607   3.292   2.021   7.681  0.6554  0.7616 -0.0557
   36CHL1   C15 2608   3.475   2.036   7.778  0.1090  0.8837  0.8965
   36CHL1  H15A 2609   3.578   2.002   7.754 -0.2067  1.3950 -1.4656
   36CHL1  H15B 2610   3.479   2.138   7.734  0.8795  0.9479  1.1092
   36CHL1   C16 2611   3.419   2.040   7.923 -0.5824  0.4006  0.1880
   36CHL1  H16A 2612   3.500   2.026   7.998 -0.6934  2.3484  0.7393
   36CHL1  H16B 2613   3.377   2.140   7.946 -0.6968 -0.1039  2.3264
   36CHL1   C17 2614   3.310   1.927   7.920 -0.3484  0.2045 -0.8242
   36CHL1   H17 2615   3.219   1.989   7.916 -0.2760  0.5124  1.2942
   36CHL1   C13 2616   3.316   1.845   7.791  0.1774  0.0660  0.0659
   36CHL1   C18 2617   3.415   1.731   7.825  0.5624 -0.5360 -0.0293
   36CHL1  H18A 2618   3.377   1.664   7.905 -0.1736 -0.0520  0.0283
   36CHL1  H18B 2619   3.435   1.664   7.739 -0.1881 -0.4507 -0.2745
   36CHL1  H18C 2620   3.508   1.783   7.858  0.0860  0.1119  0.2977
   36CHL1   C12 2621   3.186   1.789   7.725  0.0729  0.1943 -0.1210
   36CHL1  H12A 2622   3.138   1.712   7.788 -1.2370  1.6537  0.7554
   36CHL1  H12B 2623   3.118   1.877   7.714 -0.9613 -0.5842 -0.0363
   36CHL1   C11 2624   3.212   1.733   7.582 -0.3146  0.1357  0.0765
   36CHL1  H11A 2625   3.278   1.647   7.603 -1.1681 -0.0804  2.1319
   36CHL1  H11B 2626   3.114   1.702   7.538 -0.9829 -0.3935  1.8588
   36CHL1    C9 2627   3.283   1.837   7.489  0.1024  0.0609 -0.8905
   36CHL1    H9 2628   3.211   1.921   7.479 -1.0267 -0.2905  2.8149
   36CHL1   C10 2629   3.317   1.790   7.348  0.7095 -0.5448  0.2991
   36CHL1   C19 2630   3.392   1.660   7.358 -0.1366  0.8696 -0.3883
   36CHL1  H19A 2631   3.326   1.575   7.387  0.8224  0.4377  0.6085
   36CHL1  H19B 2632   3.423   1.620   7.260 -1.5722  1.0257 -0.9344
   36CHL1  H19C 2633   3.474   1.652   7.433  2.2780 -2.1794 -3.0547
   36CHL1    C1 2634   3.182   1.783   7.264 -0.0214 -0.8225 -0.2606
   36CHL1   H1A 2635   3.138   1.688   7.302 -1.1713  0.5710  2.0999
   36CHL1   H1B 2636   3.105   1.860   7.284  0.2980 -0.6164  0.1795
   36CHL1    C2 2637   3.193   1.756   7.114 -0.5779  0.2750  0.6944
   36CHL1   H2A 2638   3.095   1.743   7.063  0.3582 -0.3098 -1.0499
   36CHL1   H2B 2639   3.260   1.668   7.104  0.8622  1.5913 -3.6708
   36CHL1   C20 2640   3.297   1.864   8.063 -0.0223 -0.4911 -0.0491
   36CHL1   H20 2641   3.389   1.805   8.086 -0.2702 -1.6982 -1.9760
   36CHL1   C21 2642   3.170   1.777   8.068 -0.5406 -0.0603  1.0114
   36CHL1  H21A 2643   3.140   1.723   8.160 -0.7011  0.1037  1.0560
   36CHL1  H21B 2644   3.177   1.690   7.999 -2.5946  0.7845 -0.3580
   36CHL1  H21C 2645   3.081   1.835   8.035 -1.1774 -1.4139  0.2501
   36CHL1   C22 2646   3.286   1.968   8.178  0.2282  0.6042  0.1871
   36CHL1  H22A 2647   3.373   2.037   8.171  1.6320 -1.2562 -3.5766
   36CHL1  H22B 2648   3.190   2.021   8.167  0.5872  1.2469  0.0948
   36CHL1   C23 2649   3.303   1.905   8.318 -0.0333  0.0681  0.2496
   36CHL1  H23A 2650   3.222   1.830   8.328  0.3604 -0.1354  2.3656
   36CHL1  H23B 2651   3.397   1.846   8.311  2.0484  3.1988 -0.4923
   36CHL1   C24 2652   3.284   2.012   8.431 -0.3358  0.1602  0.6538
   36CHL1  H24A 2653   3.185   2.057   8.405 -0.7918 -1.4479 -0.5638
   36CHL1  H24B 2654   3.272   1.973   8.534  1.0285 -0.0308  0.7562
   36CHL1   C25 2655   3.399   2.114   8.440 -0.3181 -0.2002  0.3830
   36CHL1   H25 2656   3.405   2.179   8.350  1.4022 -1.0715 -0.1767
   36CHL1   C26 2657   3.369   2.210   8.548 -0.0399 -0.2243 -0.4273
   36CHL1  H26A 2658   3.456   2.276   8.570 -0.4243 -0.8602  4.0949
   36CHL1  H26B 2659   3.277   2.269   8.529  0.3759  0.5375 -0.1260
   36CHL1  H26C 2660   3.339   2.153   8.639 -1.6090  0.0343 -0.7571
   36CHL1   C27 2661   3.540   2.050   8.455  0.5175 -0.4201 -0.3670
   36CHL1  H27A 2662   3.575   2.008   8.552  0.5132 -1.8861 -0.9749
   36CHL1  H27B 2663   3.569   1.978   8.376 -0.3034 -1.0351 -0.1097
   36CHL1  H27C 2664   3.609   2.137   8.441 -0.0214  0.1061  0.1595
   37CHL1    C3 2665   0.792   5.061   7.024  0.2786 -0.1516 -0.1112
   37CHL1    H3 2666   0.691   5.104   7.044  0.0885  0.6473 -2.4437
   37CHL1    O3 2667   0.804   5.054   6.878  0.5104 -0.0790  0.3890
   37CHL1   H3' 2668   0.894   5.072   6.852  0.1518 -0.6788 -1.4544
   37CHL1    C4 2669   0.892   5.156   7.092  0.0005  0.6332 -0.1985
   37CHL1   H4A 2670   0.993   5.119   7.063 -0.7346 -1.3607 -0.3217
   37CHL1   H4B 2671   0.897   5.258   7.047 -0.2151 -0.4072 -2.6870
   37CHL1    C5 2672   0.905   5.147   7.243 -0.0365  0.7158  0.1035
   37CHL1    C6 2673   0.914   5.251   7.322 -0.6000  0.4229  0.5112
   37CHL1    H6 2674   0.927   5.341   7.259  2.9692 -0.4143 -0.1810
   37CHL1    C7 2675   0.926   5.255   7.470  0.1369  0.5283 -0.3362
   37CHL1   H7A 2676   1.017   5.307   7.507  0.9468  0.3127 -1.9450
   37CHL1   H7B 2677   0.845   5.309   7.523 -0.8488 -1.4746  0.2826
   37CHL1    C8 2678   0.934   5.114   7.538 -0.0888 -0.3722  0.4449
   37CHL1    H8 2679   1.038   5.075   7.545  0.5345  1.4276  4.7726
   37CHL1   C14 2680   0.872   5.131   7.675  0.5479 -0.3275 -0.6596
   37CHL1   H14 2681   0.763   5.152   7.674  0.5996  0.5913  2.3185
   37CHL1   C15 2682   0.931   5.242   7.762 -0.0136  0.4158  0.7464
   37CHL1  H15A 2683   1.040   5.256   7.747  0.2099 -1.7953 -0.1280
   37CHL1  H15B 2684   0.887   5.340   7.736 -0.6765  0.1380  0.7878
   37CHL1   C16 2685   0.886   5.198   7.905  0.1194  0.2768 -0.2794
   37CHL1  H16A 2686   0.978   5.184   7.966 -0.9342 -0.5688  1.1785
   37CHL1  H16B 2687   0.817   5.270   7.953  0.8824 -0.5264  2.1898
   37CHL1   C17 2688   0.812   5.061   7.894 -0.2981 -0.2323  0.7985
   37CHL1   H17 2689   0.706   5.080   7.868  0.4700  0.1382 -2.3583
   37CHL1   C13 2690   0.867   5.010   7.759  0.4544  0.8655 -0.7945
   37CHL1   C18 2691   1.007   4.948   7.784  0.4236 -0.2542 -0.0879
   37CHL1  H18A 2692   1.061   4.930   7.688 -2.2328  0.9093 -1.9112
   37CHL1  H18B 2693   1.070   5.013   7.849 -0.9321 -0.3821  1.4083
   37CHL1  H18C 2694   1.001   4.855   7.843 -0.8552 -1.3503 -1.8627
   37CHL1   C12 2695   0.781   4.907   7.680 -0.0360  0.5107  0.0825
   37CHL1  H12A 2696   0.772   4.810   7.734 -0.9024  0.2295 -0.5276
   37CHL1  H12B 2697   0.680   4.951   7.664 -0.0560  0.6058  0.4711
   37CHL1   C11 2698   0.831   4.885   7.537  0.6236 -0.1309  0.7527
   37CHL1  H11A 2699   0.930   4.842   7.562  0.4786 -1.1121 -0.2816
   37CHL1  H11B 2700   0.754   4.825   7.483 -0.9575  2.5339 -0.1668
   37CHL1    C9 2701   0.852   5.019   7.458 -0.7261  0.1283  0.6492
   37CHL1    H9 2702   0.749   5.061   7.463  0.2056  2.4194  2.4211
   37CHL1   C10 2703   0.894   5.003   7.308  0.4864 -0.4362 -1.1155
   37CHL1   C19 2704   1.031   4.935   7.302 -0.2078 -0.1741 -0.4198
   37CHL1  H19A 2705   1.117   5.001   7.322 -0.5156  0.1421 -0.1309
   37CHL1  H19B 2706   1.023   4.848   7.372 -1.1470 -0.8769 -1.3650
   37CHL1  H19C 2707   1.058   4.889   7.205  1.4588  2.0703 -1.1021
   37CHL1    C1 2708   0.789   4.912   7.231 -0.6844 -0.6799  0.0190
   37CHL1   H1A 2709   0.794   4.803   7.255  0.3882 -0.4666  0.8194
   37CHL1   H1B 2710   0.690   4.951   7.262 -0.5571 -0.9406  0.7597
   37CHL1    C2 2711   0.802   4.919   7.076 -0.7426 -0.2799 -0.3175
   37CHL1   H2A 2712   0.728   4.852   7.027 -0.6263  0.2203 -1.1910
   37CHL1   H2B 2713   0.901   4.874   7.049 -0.7691 -1.4016  1.3331
   37CHL1   C20 2714   0.828   4.969   8.016  0.6298  0.5614 -0.0129
   37CHL1   H20 2715   0.934   4.953   8.046  0.6160 -0.2190 -0.3465
   37CHL1   C21 2716   0.756   4.833   8.007  0.4928  0.0479 -0.1103
   37CHL1  H21A 2717   0.651   4.850   7.976  0.5561  1.8289  0.5551
   37CHL1  H21B 2718   0.770   4.771   8.098  0.3277  1.1913  0.7147
   37CHL1  H21C 2719   0.810   4.768   7.934 -0.9346 -0.4211 -0.7925
   37CHL1   C22 2720   0.769   5.031   8.145 -0.1267 -0.0609 -0.2801
   37CHL1  H22A 2721   0.794   5.139   8.140 -0.4605  0.0024 -0.6645
   37CHL1  H22B 2722   0.659   5.018   8.148 -0.3706  1.9192  0.6245
   37CHL1   C23 2723   0.844   4.980   8.273  0.8008 -0.0214  0.9326
   37CHL1  H23A 2724   0.841   4.869   8.270  1.4077 -0.0941  2.2840
   37CHL1  H23B 2725   0.951   5.008   8.266  0.6609  0.5429  1.0581
   37CHL1   C24 2726   0.772   5.024   8.398 -0.8525 -0.9881 -0.5009
   37CHL1  H24A 2727   0.665   4.994   8.400 -1.4884  1.1071 -0.7907
   37CHL1  H24B 2728   0.834   4.975   8.476  2.5134  1.6316 -1.3392
   37CHL1   C25 2729   0.762   5.176   8.423 -0.4520  0.5257 -0.4247
   37CHL1   H25 2730   0.741   5.234   8.331 -1.1298 -1.1442 -1.3436
   37CHL1   C26 2731   0.653   5.194   8.525 -0.3851  0.2058 -0.5142
   37CHL1  H26A 2732   0.682   5.135   8.614  2.8133  1.8535 -0.3342
   37CHL1  H26B 2733   0.660   5.301   8.552  0.5402 -0.4443  2.1419
   37CHL1  H26C 2734   0.552   5.177   8.481  0.0303 -1.2578 -0.9727
   37CHL1   C27 2735   0.905   5.233   8.462 -0.8851  0.8863  0.3161
   37CHL1  H27A 2736   0.976   5.195   8.386  0.8057 -0.1337  2.3181
   37CHL1  H27B 2737   0.913   5.342   8.443  1.8356  0.7341  0.1444
   37CHL1  H27C 2738   0.941   5.192   8.559  0.8912 -2.6873 -1.6512
   38CHL1    C3 2739   4.256   5.692   6.692  0.0884 -0.3250 -0.8152
   38CHL1    H3 2740   4.166   5.658   6.746  0.2324  0.7625  0.1451
   38CHL1    O3 2741   4.243   5.689   6.549 -0.0169 -0.6597  0.2011
   38CHL1   H3' 2742   4.330   5.720   6.522 -0.9081  1.4892 -0.3554
   38CHL1    C4 2743   4.283   5.842   6.728  0.2922 -0.2936 -0.4402
   38CHL1   H4A 2744   4.378   5.876   6.680  0.8019 -2.0505 -0.7627
   38CHL1   H4B 2745   4.196   5.897   6.686 -0.1646 -0.1302  0.7087
   38CHL1    C5 2746   4.300   5.872   6.871  0.0146 -0.7436 -0.1211
   38CHL1    C6 2747   4.220   5.959   6.933 -0.1270  0.3487  0.3853
   38CHL1    H6 2748   4.140   6.008   6.876 -0.8795 -2.3419 -1.0104
   38CHL1    C7 2749   4.220   5.999   7.073 -0.1779 -0.6952  0.3279
   38CHL1   H7A 2750   4.209   6.110   7.078 -1.2045 -0.7964  0.5612
   38CHL1   H7B 2751   4.132   5.960   7.127 -0.3866  1.6766  1.8590
   38CHL1    C8 2752   4.346   5.938   7.149 -0.0990  0.1582 -0.0369
   38CHL1    H8 2753   4.438   5.995   7.122  0.9962 -2.0289 -1.2238
   38CHL1   C14 2754   4.316   5.936   7.297 -0.4857  0.1789 -0.4162
   38CHL1   H14 2755   4.239   5.859   7.316  0.4787 -0.6897  0.1019
   38CHL1   C15 2756   4.268   6.059   7.371 -0.5353 -0.0862 -0.0915
   38CHL1  H15A 2757   4.332   6.140   7.329  1.0972 -1.2218  0.1165
   38CHL1  H15B 2758   4.159   6.075   7.359 -0.2530  1.7768 -0.5036
   38CHL1   C16 2759   4.296   6.042   7.519  0.0995 -0.3439  0.4726
   38CHL1  H16A 2760   4.366   6.122   7.551  0.1599  0.5148 -1.6779
   38CHL1  H16B 2761   4.206   6.040   7.584  1.3466  3.2902  2.6023
   38CHL1   C17 2762   4.380   5.906   7.529  0.7538  0.9766 -0.4194
   38CHL1   H17 2763   4.314   5.817   7.523  2.9232 -0.7283 -0.4819
   38CHL1   C13 2764   4.429   5.885   7.387  0.3380 -0.1074  0.2239
   38CHL1   C18 2765   4.551   5.972   7.365 -0.2153  0.1872 -0.2310
   38CHL1  H18A 2766   4.628   5.963   7.445 -1.0772 -0.8945  0.4949
   38CHL1  H18B 2767   4.607   5.937   7.276  1.0132  0.0840  0.5517
   38CHL1  H18C 2768   4.527   6.075   7.332  1.8227  0.4859 -0.9012
   38CHL1   C12 2769   4.457   5.738   7.345  0.0125  0.0033 -0.2005
   38CHL1  H12A 2770   4.544   5.707   7.408 -0.8403 -1.3063  0.3861
   38CHL1  H12B 2771   4.365   5.678   7.360  1.0639 -2.2350 -1.9773
   38CHL1   C11 2772   4.475   5.721   7.189  0.0270 -0.3151  0.3408
   38CHL1  H11A 2773   4.566   5.780   7.167 -1.1215  1.5580  0.3827
   38CHL1  H11B 2774   4.490   5.613   7.164 -1.8930 -0.9288  1.6272
   38CHL1    C9 2775   4.375   5.793   7.104  0.6292  0.1321 -0.0249
   38CHL1    H9 2776   4.281   5.735   7.116  0.4384  0.2349 -0.9236
   38CHL1   C10 2777   4.404   5.780   6.949  0.3110 -0.0116  0.0320
   38CHL1   C19 2778   4.547   5.820   6.913 -1.0016 -0.6710 -0.6199
   38CHL1  H19A 2779   4.577   5.925   6.936 -0.6434 -0.9940  0.4552
   38CHL1  H19B 2780   4.620   5.760   6.972 -1.8902 -0.4907  0.7220
   38CHL1  H19C 2781   4.565   5.808   6.804  0.3726  1.8423 -0.7586
   38CHL1    C1 2782   4.384   5.634   6.897 -0.1735  0.4293  0.7053
   38CHL1   H1A 2783   4.473   5.577   6.929  0.7557 -0.0961 -2.4752
   38CHL1   H1B 2784   4.295   5.583   6.940 -0.0096  0.6915  1.3757
   38CHL1    C2 2785   4.381   5.613   6.744 -0.7592  0.4501 -0.3506
   38CHL1   H2A 2786   4.370   5.504   6.727  0.4894  0.1438  0.6443
   38CHL1   H2B 2787   4.466   5.651   6.685  1.7399 -2.3489  1.1610
   38CHL1   C20 2788   4.461   5.894   7.672 -0.2935 -0.1113  0.7488
   38CHL1   H20 2789   4.527   5.984   7.675 -0.6747  0.1819  3.7992
   38CHL1   C21 2790   4.553   5.765   7.659 -0.1735 -0.4500 -0.1179
   38CHL1  H21A 2791   4.614   5.746   7.749  0.3156 -0.5979 -0.4771
   38CHL1  H21B 2792   4.625   5.780   7.576 -0.8616  0.0429 -0.6452
   38CHL1  H21C 2793   4.490   5.675   7.641 -0.8685 -0.1691  0.8344
   38CHL1   C22 2794   4.368   5.879   7.790 -0.5964  0.4650  0.0229
   38CHL1  H22A 2795   4.310   5.973   7.783 -2.5030 -0.5579  1.0132
   38CHL1  H22B 2796   4.299   5.794   7.769  1.1226 -1.1918  0.7867
   38CHL1   C23 2797   4.432   5.868   7.930 -0.4344 -0.4940  0.7722
   38CHL1  H23A 2798   4.499   5.780   7.923  0.0514 -0.0424 -0.3693
   38CHL1  H23B 2799   4.503   5.953   7.944 -0.7110  0.1490 -1.3539
   38CHL1   C24 2800   4.338   5.861   8.051 -0.2678 -0.1718  1.0381
   38CHL1  H24A 2801   4.254   5.794   8.022 -1.2276  0.8744  1.3299
   38CHL1  H24B 2802   4.391   5.819   8.139  0.4079 -0.0125  0.7163
   38CHL1   C25 2803   4.288   6.010   8.085 -0.6167 -0.1789 -0.4927
   38CHL1   H25 2804   4.270   6.065   7.990 -0.7208  0.5359 -0.0632
   38CHL1   C26 2805   4.146   6.003   8.152  0.1757  0.4429 -0.6217
   38CHL1  H26A 2806   4.081   5.933   8.096  0.2136 -1.0691  1.1158
   38CHL1  H26B 2807   4.151   5.952   8.251  1.5014  1.2455 -0.2379
   38CHL1  H26C 2808   4.103   6.105   8.147  3.0662  1.7237 -2.1548
   38CHL1   C27 2809   4.381   6.083   8.180  0.2939  0.1111 -0.5742
   38CHL1  H27A 2810   4.352   6.184   8.216  2.7554  0.0867  1.7989
   38CHL1  H27B 2811   4.398   6.014   8.266 -0.0233  0.5218 -0.1791
   38CHL1  H27C 2812   4.471   6.093   8.115  2.0739  0.8787  1.8640
   39CHL1    C3 2813   3.216   5.429   7.013  0.1777 -0.2483  0.1105
   39CHL1    H3 2814   3.231   5.538   7.004 -1.7960  0.1443  1.0239
   39CHL1    O3 2815   3.216   5.377   6.886  0.4779 -0.4002 -1.2595
   39CHL1   H3' 2816   3.188   5.447   6.827 -0.3240 -0.6795 -1.2303
   39CHL1    C4 2817   3.330   5.364   7.094 -0.2213  0.3112  0.4013
   39CHL1   H4A 2818   3.306   5.259   7.122  2.1121  0.2484  2.4998
   39CHL1   H4B 2819   3.423   5.378   7.036 -1.9965  1.3411 -2.4071
   39CHL1    C5 2820   3.332   5.416   7.232  0.5517  0.1660 -0.0412
   39CHL1    C6 2821   3.447   5.468   7.278 -0.0120 -0.8162  0.9715
   39CHL1    H6 2822   3.534   5.482   7.212 -1.1451 -1.0117 -0.6049
   39CHL1    C7 2823   3.465   5.513   7.427  0.3868 -0.3578  0.3713
   39CHL1   H7A 2824   3.554   5.468   7.477 -0.8094 -0.6887  2.2767
   39CHL1   H7B 2825   3.492   5.621   7.438  1.6836 -0.5534 -0.6117
   39CHL1    C8 2826   3.341   5.477   7.518 -0.3400 -0.1416 -1.0091
   39CHL1    H8 2827   3.347   5.369   7.544 -3.2639 -0.7775 -2.5578
   39CHL1   C14 2828   3.345   5.556   7.649 -0.9585  0.1176  0.3368
   39CHL1   H14 2829   3.323   5.660   7.617 -1.9661  0.2908  1.5030
   39CHL1   C15 2830   3.478   5.564   7.726  0.2546 -0.8321 -0.3299
   39CHL1  H15A 2831   3.525   5.464   7.721  3.6812  0.6857 -1.9586
   39CHL1  H15B 2832   3.546   5.643   7.687 -1.1429  0.3956 -0.3622
   39CHL1   C16 2833   3.433   5.606   7.866  0.3127 -0.1077 -0.3466
   39CHL1  H16A 2834   3.454   5.528   7.942 -1.0926  0.8363  1.0804
   39CHL1  H16B 2835   3.485   5.699   7.896 -0.0166 -0.2382  0.6611
   39CHL1   C17 2836   3.278   5.622   7.865  0.1768 -0.6752 -0.1659
   39CHL1   H17 2837   3.258   5.726   7.832  2.1495 -1.0095 -2.7354
   39CHL1   C13 2838   3.227   5.537   7.747 -0.6299 -0.3590  0.2311
   39CHL1   C18 2839   3.219   5.394   7.792 -0.4824  0.1374 -0.7725
   39CHL1  H18A 2840   3.202   5.332   7.701  0.1511 -0.9074 -0.1919
   39CHL1  H18B 2841   3.318   5.360   7.826 -0.1024  0.4353 -1.5405
   39CHL1  H18C 2842   3.147   5.377   7.875  0.1697 -0.1296 -0.2551
   39CHL1   C12 2843   3.103   5.578   7.671  0.0069 -0.0870  0.4889
   39CHL1  H12A 2844   3.012   5.572   7.735  0.4121  0.8229  1.1707
   39CHL1  H12B 2845   3.110   5.688   7.652 -0.0991 -0.0720  0.5346
   39CHL1   C11 2846   3.086   5.507   7.537  0.3869 -0.1274  0.8135
   39CHL1  H11A 2847   3.051   5.402   7.543  0.1165 -0.3434 -2.5604
   39CHL1  H11B 2848   3.010   5.570   7.485  2.6673  3.0872  1.0874
   39CHL1    C9 2849   3.212   5.504   7.441  0.1077 -0.2580  0.2071
   39CHL1    H9 2850   3.205   5.611   7.410 -2.6084 -0.1665  0.8186
   39CHL1   C10 2851   3.195   5.421   7.312  0.3655  0.3113 -0.1538
   39CHL1   C19 2852   3.158   5.279   7.346  0.7857  0.1108 -0.6662
   39CHL1  H19A 2853   3.160   5.208   7.261  5.1790  0.9395 -1.4927
   39CHL1  H19B 2854   3.220   5.230   7.424 -1.0539 -0.8296  0.2702
   39CHL1  H19C 2855   3.060   5.266   7.398  1.4978  0.9659  0.9761
   39CHL1    C1 2856   3.089   5.478   7.224  0.3439 -0.0515  0.3403
   39CHL1   H1A 2857   2.990   5.471   7.274  0.2600 -1.6810 -0.0006
   39CHL1   H1B 2858   3.101   5.589   7.216 -0.1807  0.3782  3.9955
   39CHL1    C2 2859   3.083   5.408   7.083  0.5974 -0.4199 -0.0819
   39CHL1   H2A 2860   3.013   5.467   7.020 -0.2952 -1.7009 -0.3250
   39CHL1   H2B 2861   3.046   5.303   7.081 -3.2209  0.7951 -1.0716
   39CHL1   C20 2862   3.202   5.587   8.002  0.1548  0.1452  0.0669
   39CHL1   H20 2863   3.206   5.480   8.031 -0.1386  0.0356 -0.2884
   39CHL1   C21 2864   3.054   5.631   8.007  0.2835  0.2394  0.1167
   39CHL1  H21A 2865   3.054   5.742   8.008 -0.6521  0.2458  0.8374
   39CHL1  H21B 2866   3.003   5.597   8.100  0.5830  0.6766  0.4494
   39CHL1  H21C 2867   2.989   5.591   7.926 -0.4082  0.1592  0.6966
   39CHL1   C22 2868   3.270   5.653   8.123 -0.1094 -0.1448  0.3330
   39CHL1  H22A 2869   3.369   5.605   8.141  1.0079  1.8910 -0.0115
   39CHL1  H22B 2870   3.277   5.763   8.108 -1.5578  0.1268  1.4254
   39CHL1   C23 2871   3.208   5.636   8.261 -0.1522 -0.3899  0.2230
   39CHL1  H23A 2872   3.269   5.704   8.325  0.4527  0.0865 -0.8258
   39CHL1  H23B 2873   3.103   5.671   8.256 -0.4992 -1.5363 -2.9413
   39CHL1   C24 2874   3.218   5.495   8.323  1.0400  0.0516 -0.0563
   39CHL1  H24A 2875   3.139   5.431   8.278 -0.5975  2.3981 -0.7442
   39CHL1  H24B 2876   3.315   5.457   8.284  0.5776 -1.7213  0.4461
   39CHL1   C25 2877   3.201   5.489   8.481  0.6634  0.2944  0.4092
   39CHL1   H25 2878   3.255   5.573   8.528 -0.1509  0.5822  0.8502
   39CHL1   C26 2879   3.052   5.507   8.525  0.0708  0.8588 -0.0771
   39CHL1  H26A 2880   3.017   5.606   8.489  0.3263  1.2926  0.8187
   39CHL1  H26B 2881   2.998   5.413   8.503  2.4890 -1.1948  2.0981
   39CHL1  H26C 2882   3.050   5.522   8.635  0.3711  1.4556 -0.1492
   39CHL1   C27 2883   3.240   5.348   8.533 -0.4470  0.1085 -0.4477
   39CHL1  H27A 2884   3.185   5.270   8.475  1.8097 -1.6323 -0.3735
   39CHL1  H27B 2885   3.346   5.325   8.509 -0.8570 -2.3413 -0.2133
   39CHL1  H27C 2886   3.218   5.328   8.640  0.3722 -1.1719 -0.4945
   40CHL1    C3 2887   4.180   4.079   6.795 -0.5956 -0.2799  0.0496
   40CHL1    H3 2888   4.146   4.181   6.765  0.6724  0.9544  2.5063
   40CHL1    O3 2889   4.185   3.987   6.687  0.3161  0.2861  0.2045
   40CHL1   H3' 2890   4.161   3.902   6.726 -1.1093  1.4401  1.9720
   40CHL1    C4 2891   4.313   4.099   6.870  0.4220 -0.1047  0.2852
   40CHL1   H4A 2892   4.347   3.996   6.894 -0.2337 -1.2253 -3.0706
   40CHL1   H4B 2893   4.376   4.141   6.788 -1.3594  2.8406  0.2719
   40CHL1    C5 2894   4.297   4.178   6.995  0.3603  0.1081 -0.1694
   40CHL1    C6 2895   4.369   4.289   7.014  0.4501  0.2495  0.5246
   40CHL1    H6 2896   4.443   4.316   6.938 -0.2098  0.6065 -0.0023
   40CHL1    C7 2897   4.375   4.372   7.141  0.4414 -0.3392  0.1384
   40CHL1   H7A 2898   4.483   4.393   7.158  0.9181  0.1926 -3.0405
   40CHL1   H7B 2899   4.329   4.472   7.125  1.0626 -0.2691 -1.3605
   40CHL1    C8 2900   4.304   4.294   7.257  0.3703 -0.4925 -0.0076
   40CHL1    H8 2901   4.378   4.218   7.288 -0.1286 -1.7634 -1.7857
   40CHL1   C14 2902   4.281   4.387   7.377  0.2825 -0.2696 -0.6851
   40CHL1   H14 2903   4.222   4.474   7.341  1.3126  1.3006  1.2841
   40CHL1   C15 2904   4.406   4.445   7.439 -0.0419  0.1945  0.7095
   40CHL1  H15A 2905   4.477   4.360   7.449 -0.3053 -0.0593  0.4251
   40CHL1  H15B 2906   4.452   4.533   7.389 -0.2354  1.7082  3.0556
   40CHL1   C16 2907   4.368   4.492   7.578  0.3135 -0.0906  1.0005
   40CHL1  H16A 2908   4.440   4.447   7.650  1.9172 -1.4242 -1.3093
   40CHL1  H16B 2909   4.380   4.602   7.590  1.3507 -0.1636  0.7473
   40CHL1   C17 2910   4.222   4.444   7.601  0.5361 -0.7241  0.4795
   40CHL1   H17 2911   4.165   4.531   7.562  0.0011 -1.1419  0.3129
   40CHL1   C13 2912   4.203   4.331   7.495 -0.8022  0.2318 -0.0852
   40CHL1   C18 2913   4.269   4.199   7.549  0.3325 -0.3931  0.0540
   40CHL1  H18A 2914   4.365   4.228   7.597 -0.3527  1.3757  0.4310
   40CHL1  H18B 2915   4.199   4.150   7.619 -1.0862 -0.1489 -1.1347
   40CHL1  H18C 2916   4.299   4.135   7.462  3.5707  2.6657 -1.3386
   40CHL1   C12 2917   4.073   4.297   7.439  0.1538  0.3297  0.3883
   40CHL1  H12A 2918   4.006   4.253   7.516 -0.4151  0.4320 -0.0372
   40CHL1  H12B 2919   4.020   4.388   7.402  2.9105  1.2612 -1.6736
   40CHL1   C11 2920   4.073   4.204   7.322 -0.1199 -0.4229  1.0708
   40CHL1  H11A 2921   4.104   4.104   7.360 -0.3004 -0.5535  0.8711
   40CHL1  H11B 2922   3.971   4.197   7.280  0.8012 -1.1402 -1.1821
   40CHL1    C9 2923   4.174   4.242   7.208  0.3149 -0.2646  0.0007
   40CHL1    H9 2924   4.123   4.328   7.159  1.3291 -0.5481 -1.6376
   40CHL1   C10 2925   4.189   4.135   7.100 -0.4508  0.2970  0.2709
   40CHL1   C19 2926   4.226   3.992   7.159 -0.6869 -0.5113  0.0479
   40CHL1  H19A 2927   4.152   3.964   7.237 -1.5722 -1.2472 -1.0260
   40CHL1  H19B 2928   4.224   3.917   7.077 -0.7479 -1.5821  1.0038
   40CHL1  H19C 2929   4.327   3.994   7.205  1.0713  2.6999 -3.3750
   40CHL1    C1 2930   4.052   4.122   7.023 -0.0683  0.5763  0.4660
   40CHL1   H1A 2931   3.967   4.080   7.080 -1.7293  1.2014 -1.4395
   40CHL1   H1B 2932   4.020   4.220   6.980 -0.5212 -0.5864 -2.0572
   40CHL1    C2 2933   4.069   4.030   6.895 -0.0226 -0.9357  1.0538
   40CHL1   H2A 2934   3.970   4.023   6.843  0.5988  0.0749 -0.3136
   40CHL1   H2B 2935   4.091   3.925   6.926 -0.7651 -1.7146 -0.8631
   40CHL1   C20 2936   4.180   4.413   7.746 -0.2405  0.1909 -0.7361
   40CHL1   H20 2937   4.248   4.333   7.783  2.6832  2.9234  0.2644
   40CHL1   C21 2938   4.027   4.373   7.745  0.2794  0.5847  0.8762
   40CHL1  H21A 2939   4.012   4.269   7.709  0.2959 -0.4298  3.6350
   40CHL1  H21B 2940   3.970   4.439   7.676  0.9616  0.3374  0.0576
   40CHL1  H21C 2941   3.987   4.373   7.848  0.4666 -2.2934  1.0390
   40CHL1   C22 2942   4.212   4.534   7.837  0.2190 -0.9251  0.1928
   40CHL1  H22A 2943   4.319   4.555   7.815  0.6486 -2.7837  0.3138
   40CHL1  H22B 2944   4.144   4.617   7.811 -0.6678 -2.0214 -1.1516
   40CHL1   C23 2945   4.195   4.525   7.990 -0.6707  0.3389  0.2758
   40CHL1  H23A 2946   4.237   4.615   8.040 -0.5442  0.0206  0.7508
   40CHL1  H23B 2947   4.085   4.521   8.005 -1.1273  1.9240 -2.1173
   40CHL1   C24 2948   4.268   4.405   8.048 -0.7520  0.1933  0.3284
   40CHL1  H24A 2949   4.237   4.305   8.010 -1.9205 -1.0553  4.1362
   40CHL1  H24B 2950   4.373   4.426   8.017 -0.4367 -0.0532  1.1899
   40CHL1   C25 2951   4.260   4.397   8.207 -0.5520  0.4532  0.6481
   40CHL1   H25 2952   4.234   4.502   8.234 -0.7207  0.9012 -1.1444
   40CHL1   C26 2953   4.143   4.310   8.252  0.2966  0.0796 -0.1133
   40CHL1  H26A 2954   4.161   4.201   8.241 -5.1893 -1.1049 -0.2044
   40CHL1  H26B 2955   4.119   4.340   8.356 -0.1507  3.2047 -1.0054
   40CHL1  H26C 2956   4.059   4.345   8.188  1.8563  2.1568 -1.1560
   40CHL1   C27 2957   4.400   4.352   8.263 -0.2671  0.5431 -0.2099
   40CHL1  H27A 2958   4.436   4.256   8.221  0.4293  0.4622  0.5512
   40CHL1  H27B 2959   4.477   4.422   8.226 -1.1416  1.3277 -0.5926
   40CHL1  H27C 2960   4.387   4.343   8.373 -1.5759  1.9597 -0.2219
   41CHL1    C3 2961   6.485   4.613   6.840 -0.2180 -0.4021  0.8458
   41CHL1    H3 2962   6.381   4.650   6.854 -1.7189 -4.3024  1.4723
   41CHL1    O3 2963   6.505   4.599   6.697 -0.5934  0.1233  0.5088
   41CHL1   H3' 2964   6.430   4.548   6.666 -0.0469 -1.4018  1.5519
   41CHL1    C4 2965   6.597   4.708   6.895 -0.2243  0.7454 -0.8632
   41CHL1   H4A 2966   6.697   4.666   6.869  0.0374  0.1786  0.9270
   41CHL1   H4B 2967   6.588   4.801   6.835 -0.8281 -0.9242 -3.5933
   41CHL1    C5 2968   6.597   4.731   7.043 -0.5854 -0.5972 -0.2634
   41CHL1    C6 2969   6.597   4.855   7.089 -0.4298 -1.0168 -0.1317
   41CHL1    H6 2970   6.602   4.941   7.021  0.9601 -1.1245 -0.1780
   41CHL1    C7 2971   6.589   4.887   7.237 -0.2842 -0.1275 -0.9403
   41CHL1   H7A 2972   6.648   4.976   7.267 -0.7987 -0.5003  1.4269
   41CHL1   H7B 2973   6.483   4.903   7.265  0.1561 -2.1488  2.5070
   41CHL1    C8 2974   6.624   4.761   7.325  0.5654 -0.3959 -0.7563
   41CHL1    H8 2975   6.733   4.743   7.330  0.9082  1.8224  2.1744
   41CHL1   C14 2976   6.565   4.784   7.473 -0.1729  0.2369  0.3767
   41CHL1   H14 2977   6.455   4.770   7.466 -0.0596 -1.2976  1.2213
   41CHL1   C15 2978   6.595   4.912   7.537  0.1734 -0.0621  0.4640
   41CHL1  H15A 2979   6.700   4.942   7.515  0.1682 -1.2838 -1.4465
   41CHL1  H15B 2980   6.522   4.988   7.503  2.0978  1.3644 -0.6901
   41CHL1   C16 2981   6.569   4.901   7.683  0.2478 -0.8642  0.3138
   41CHL1  H16A 2982   6.653   4.950   7.737 -1.1895  1.8573  0.2545
   41CHL1  H16B 2983   6.469   4.941   7.709  0.3231  1.6876 -2.8265
   41CHL1   C17 2984   6.557   4.741   7.707 -0.4866  0.3552  0.2383
   41CHL1   H17 2985   6.449   4.719   7.690 -0.1178 -1.4599  0.1314
   41CHL1   C13 2986   6.618   4.680   7.578  0.4109 -0.2958 -0.7422
   41CHL1   C18 2987   6.768   4.678   7.597  0.8861 -0.0294  0.2269
   41CHL1  H18A 2988   6.799   4.576   7.630 -0.0406 -0.0999  0.9512
   41CHL1  H18B 2989   6.818   4.694   7.499  0.5732  0.8879  0.2091
   41CHL1  H18C 2990   6.807   4.756   7.666  0.5226 -0.9582  1.5370
   41CHL1   C12 2991   6.563   4.546   7.525  0.0959 -0.7148  0.8557
   41CHL1  H12A 2992   6.605   4.458   7.579  2.6511 -0.6039 -0.8025
   41CHL1  H12B 2993   6.454   4.555   7.545 -0.3622  2.9312 -2.1777
   41CHL1   C11 2994   6.583   4.511   7.375 -0.7363 -0.3132 -0.2159
   41CHL1  H11A 2995   6.683   4.466   7.357 -1.3848 -1.7746 -0.3436
   41CHL1  H11B 2996   6.511   4.432   7.346 -1.3503 -0.0370  0.5470
   41CHL1    C9 2997   6.562   4.634   7.278  0.6836 -0.4076  0.5069
   41CHL1    H9 2998   6.451   4.646   7.281  0.6346 -1.0700  2.3841
   41CHL1   C10 2999   6.591   4.607   7.129 -0.0739 -0.6775  0.2933
   41CHL1   C19 3000   6.737   4.549   7.112  0.6434 -0.2193 -0.1898
   41CHL1  H19A 3001   6.768   4.533   7.006  1.5467  0.0218  0.0326
   41CHL1  H19B 3002   6.807   4.615   7.167  0.1808  0.0563  0.0678
   41CHL1  H19C 3003   6.742   4.450   7.164 -3.6990  0.4435  1.9439
   41CHL1    C1 3004   6.482   4.507   7.073 -0.1512  0.5699  0.2821
   41CHL1   H1A 3005   6.504   4.408   7.117 -0.2278  0.7624  0.7581
   41CHL1   H1B 3006   6.377   4.539   7.088 -1.1042 -2.1906 -0.0693
   41CHL1    C2 3007   6.500   4.479   6.918  0.7059 -0.1488 -0.2766
   41CHL1   H2A 3008   6.433   4.396   6.889  1.5936 -1.2709  0.7908
   41CHL1   H2B 3009   6.602   4.440   6.895  0.0155 -1.6349 -0.9672
   41CHL1   C20 3010   6.605   4.712   7.846 -0.4299  0.1763 -0.1399
   41CHL1   H20 3011   6.714   4.727   7.851 -0.2727 -0.6561 -0.7678
   41CHL1   C21 3012   6.573   4.562   7.860 -0.5338 -0.4140  0.5514
   41CHL1  H21A 3013   6.593   4.532   7.965  0.8578  1.7774  0.9770
   41CHL1  H21B 3014   6.642   4.495   7.804 -0.4123 -1.7086  2.1628
   41CHL1  H21C 3015   6.468   4.536   7.835 -0.3871 -1.5469  1.0250
   41CHL1   C22 3016   6.531   4.794   7.956 -0.4667 -0.0635 -0.0447
   41CHL1  H22A 3017   6.538   4.904   7.950  2.0504 -0.0711  1.5013
   41CHL1  H22B 3018   6.420   4.787   7.944 -0.6228  0.8705  0.7935
   41CHL1   C23 3019   6.562   4.763   8.108 -0.0448 -0.6046  0.6076
   41CHL1  H23A 3020   6.544   4.655   8.128 -0.0193 -0.9066 -0.9106
   41CHL1  H23B 3021   6.671   4.778   8.125 -0.1629  0.2527  0.6561
   41CHL1   C24 3022   6.462   4.842   8.199 -0.1325 -0.4650 -0.5992
   41CHL1  H24A 3023   6.463   4.952   8.185 -1.0903 -0.2599  0.7891
   41CHL1  H24B 3024   6.361   4.813   8.164  0.5118 -1.3197 -1.8644
   41CHL1   C25 3025   6.479   4.796   8.345 -0.5687  0.3393 -0.1568
   41CHL1   H25 3026   6.470   4.685   8.344 -1.5127  0.4037 -0.0603
   41CHL1   C26 3027   6.617   4.829   8.401 -0.2148 -0.5491  0.6418
   41CHL1  H26A 3028   6.695   4.752   8.380  0.5443  0.2944  0.2945
   41CHL1  H26B 3029   6.656   4.925   8.360 -1.2177 -0.6948 -0.7199
   41CHL1  H26C 3030   6.613   4.831   8.512  3.6833  2.6077  0.9499
   41CHL1   C27 3031   6.377   4.848   8.442  0.2263 -0.3470  0.1951
   41CHL1  H27A 3032   6.423   4.848   8.544  0.4807  0.2127  0.0826
   41CHL1  H27B 3033   6.332   4.946   8.417 -2.0579 -0.9222  1.7445
   41CHL1  H27C 3034   6.288   4.782   8.445 -1.4109  1.6614 -1.4217
   42CHL1    C3 3035   1.299   0.633   7.024 -0.3242  0.6775 -0.4399
   42CHL1    H3 3036   1.399   0.585   7.026  0.4417  2.1325  2.7758
   42CHL1    O3 3037   1.268   0.670   6.885  0.1493  0.6173 -0.0794
   42CHL1   H3' 3038   1.191   0.725   6.899 -1.0406 -1.2682  1.2661
   42CHL1    C4 3039   1.187   0.547   7.088 -0.3449  0.1295  0.5160
   42CHL1   H4A 3040   1.091   0.601   7.069 -0.4316 -0.5199 -1.0424
   42CHL1   H4B 3041   1.170   0.459   7.022 -1.6860  0.3679  0.5050
   42CHL1    C5 3042   1.216   0.515   7.234  0.3442  0.0012 -0.5697
   42CHL1    C6 3043   1.230   0.391   7.275  0.2691 -0.4889  0.0719
   42CHL1    H6 3044   1.210   0.300   7.218 -1.0060 -2.0432  2.7824
   42CHL1    C7 3045   1.248   0.367   7.420 -0.0566 -0.8261  0.1483
   42CHL1   H7A 3046   1.171   0.294   7.454 -0.9072 -0.7048 -1.4026
   42CHL1   H7B 3047   1.353   0.331   7.427  0.6433  0.6095 -1.8430
   42CHL1    C8 3048   1.227   0.488   7.516  0.2870  0.2497 -0.3612
   42CHL1    H8 3049   1.118   0.505   7.527  0.5731  0.9634  2.0196
   42CHL1   C14 3050   1.283   0.452   7.650 -0.7647 -1.0487  0.7516
   42CHL1   H14 3051   1.389   0.421   7.642 -1.1735 -2.9328  2.0792
   42CHL1   C15 3052   1.220   0.333   7.723  0.3687  0.0333  0.0850
   42CHL1  H15A 3053   1.110   0.346   7.718  0.1709 -0.7429  1.6988
   42CHL1  H15B 3054   1.247   0.238   7.673 -0.4223 -0.5354  0.7155
   42CHL1   C16 3055   1.275   0.345   7.863 -0.5482  0.2299 -0.5386
   42CHL1  H16A 3056   1.185   0.345   7.929 -0.2108  0.6577 -0.0728
   42CHL1  H16B 3057   1.342   0.259   7.885 -1.1592  0.0418  0.6720
   42CHL1   C17 3058   1.339   0.483   7.877 -0.4880 -0.1890  0.1242
   42CHL1   H17 3059   1.444   0.455   7.856 -0.0154  0.5992  1.3746
   42CHL1   C13 3060   1.286   0.564   7.753 -1.0730 -0.5474 -0.1458
   42CHL1   C18 3061   1.143   0.616   7.782  0.1997 -0.1222 -0.2714
   42CHL1  H18A 3062   1.090   0.649   7.690 -0.2237  1.4047  0.4748
   42CHL1  H18B 3063   1.089   0.533   7.834 -1.7192  1.5344  0.5542
   42CHL1  H18C 3064   1.143   0.711   7.840  0.2816 -0.3235  0.0661
   42CHL1   C12 3065   1.373   0.679   7.697  0.0061  0.2386  0.2634
   42CHL1  H12A 3066   1.364   0.767   7.764  1.4563 -0.7628  1.8852
   42CHL1  H12B 3067   1.476   0.640   7.681  0.4983  1.7158 -0.3562
   42CHL1   C11 3068   1.322   0.728   7.555 -0.2988  0.1265  0.2057
   42CHL1  H11A 3069   1.226   0.783   7.566  0.0165  1.1123 -1.6542
   42CHL1  H11B 3070   1.394   0.802   7.515  0.5845 -0.8213  0.0103
   42CHL1    C9 3071   1.299   0.611   7.458 -0.3365  0.3163 -0.0295
   42CHL1    H9 3072   1.399   0.566   7.437  0.7740  2.0271  1.3075
   42CHL1   C10 3073   1.248   0.649   7.319  0.5088  0.1405 -0.1191
   42CHL1   C19 3074   1.122   0.733   7.336 -0.0303 -0.4619  0.1313
   42CHL1  H19A 3075   1.049   0.695   7.411 -0.1028 -1.0271 -0.2218
   42CHL1  H19B 3076   1.152   0.833   7.375  0.4687 -0.2730 -0.7133
   42CHL1  H19C 3077   1.059   0.757   7.248  0.5872  1.7461  0.2260
   42CHL1    C1 3078   1.344   0.748   7.249  0.1389 -0.2117 -0.2225
   42CHL1   H1A 3079   1.365   0.844   7.300 -0.3796 -0.2276  0.0270
   42CHL1   H1B 3080   1.443   0.701   7.267 -0.1049 -1.1299 -1.1929
   42CHL1    C2 3081   1.321   0.770   7.096  0.1782  0.4029 -0.1177
   42CHL1   H2A 3082   1.413   0.802   7.044  0.3308 -3.1692 -2.3899
   42CHL1   H2B 3083   1.233   0.839   7.090  0.3790  0.6949  0.2633
   42CHL1   C20 3084   1.334   0.548   8.018 -0.3493  0.2609  0.6206
   42CHL1   H20 3085   1.228   0.559   8.050  0.1743  1.1739  2.1688
   42CHL1   C21 3086   1.407   0.687   8.030 -0.2086  0.2583  0.1520
   42CHL1  H21A 3087   1.349   0.770   7.984 -0.4893 -0.0271 -0.0087
   42CHL1  H21B 3088   1.503   0.682   7.974 -0.7040 -0.1699 -0.6887
   42CHL1  H21C 3089   1.426   0.710   8.137 -0.8811  1.0713  0.1044
   42CHL1   C22 3090   1.408   0.447   8.112 -0.2065 -0.2590  0.2494
   42CHL1  H22A 3091   1.353   0.351   8.103 -1.3348  0.4560 -0.7529
   42CHL1  H22B 3092   1.511   0.421   8.078  0.1149 -1.2670  1.8352
   42CHL1   C23 3093   1.405   0.485   8.259 -0.1987 -0.4264 -0.3100
   42CHL1  H23A 3094   1.488   0.559   8.268  0.7265 -1.2766 -1.5185
   42CHL1  H23B 3095   1.319   0.549   8.288 -0.6390 -1.4052  0.5992
   42CHL1   C24 3096   1.423   0.369   8.353  0.3967  0.8121  0.1363
   42CHL1  H24A 3097   1.381   0.279   8.303  1.7590 -0.4168  1.1128
   42CHL1  H24B 3098   1.530   0.342   8.371 -0.2082 -2.0385 -0.0511
   42CHL1   C25 3099   1.359   0.380   8.486  0.0491  0.6114  0.3946
   42CHL1   H25 3100   1.253   0.414   8.478 -1.1792 -2.5815  1.3868
   42CHL1   C26 3101   1.345   0.244   8.558  0.4258 -0.0873 -0.0556
   42CHL1  H26A 3102   1.278   0.173   8.505  0.9791  0.5855 -1.7260
   42CHL1  H26B 3103   1.446   0.205   8.582 -0.2047 -2.5223 -1.0304
   42CHL1  H26C 3104   1.296   0.272   8.654  0.1784  1.8914 -0.7185
   42CHL1   C27 3105   1.433   0.480   8.574 -0.0895  0.2580 -0.1017
   42CHL1  H27A 3106   1.439   0.576   8.518 -1.9307 -0.2396 -1.2245
   42CHL1  H27B 3107   1.535   0.441   8.595 -0.2463  0.6079  1.4871
   42CHL1  H27C 3108   1.378   0.486   8.671 -1.8055 -1.0527 -0.9383
   43CHL1    C3 3109   0.324   4.112   6.887  0.0701  0.3778  0.3113
   43CHL1    H3 3110   0.223   4.070   6.905 -0.0921  0.8956  0.6564
   43CHL1    O3 3111   0.339   4.138   6.747  0.2801 -0.9381 -0.2297
   43CHL1   H3' 3112   0.433   4.118   6.736  1.2056  1.8658  1.5071
   43CHL1    C4 3113   0.323   4.250   6.961 -0.0099 -0.5758  0.0506
   43CHL1   H4A 3114   0.414   4.308   6.933 -1.1101  0.6707 -1.0826
   43CHL1   H4B 3115   0.234   4.300   6.919 -0.0607  0.9665  1.8986
   43CHL1    C5 3116   0.302   4.231   7.109 -0.3593  0.4590  0.8258
   43CHL1    C6 3117   0.197   4.280   7.170  0.7545  0.2475  0.2089
   43CHL1    H6 3118   0.114   4.325   7.113  0.0173 -1.9878 -0.5785
   43CHL1    C7 3119   0.179   4.260   7.317  0.2381  0.2451 -1.5743
   43CHL1   H7A 3120   0.132   4.343   7.373 -1.6540 -1.2919 -0.7710
   43CHL1   H7B 3121   0.112   4.171   7.328 -0.0587  0.7720  1.8821
   43CHL1    C8 3122   0.304   4.202   7.390  0.2804  0.3745  0.0819
   43CHL1    H8 3123   0.380   4.280   7.411  0.4585  0.5765 -1.2197
   43CHL1   C14 3124   0.256   4.149   7.527  0.2093 -0.6159  0.0901
   43CHL1   H14 3125   0.197   4.059   7.498  2.1732 -2.1124  0.4956
   43CHL1   C15 3126   0.170   4.241   7.613 -0.2669 -0.6147 -0.1231
   43CHL1  H15A 3127   0.201   4.348   7.615 -4.4911  0.7565  0.3055
   43CHL1  H15B 3128   0.066   4.232   7.577 -0.7286  0.3214  0.9345
   43CHL1   C16 3129   0.179   4.180   7.751  0.2968  0.4803 -0.3882
   43CHL1  H16A 3130   0.214   4.262   7.817  2.0003 -0.4599 -0.0506
   43CHL1  H16B 3131   0.080   4.137   7.778  0.4038  0.3919 -0.1315
   43CHL1   C17 3132   0.286   4.060   7.743  0.1533  0.5592  0.4414
   43CHL1   H17 3133   0.219   3.976   7.717 -1.5949  2.6692 -2.5171
   43CHL1   C13 3134   0.368   4.096   7.614 -0.7995 -0.1007  0.1306
   43CHL1   C18 3135   0.465   4.210   7.659  0.3993 -0.3809  0.1920
   43CHL1  H18A 3136   0.413   4.291   7.715  0.7425  0.0948 -0.1695
   43CHL1  H18B 3137   0.547   4.170   7.722  0.3041 -1.1053 -0.1362
   43CHL1  H18C 3138   0.517   4.263   7.576  0.4543  2.0490  1.6965
   43CHL1   C12 3139   0.440   3.985   7.532 -0.4198  0.1819  0.4834
   43CHL1  H12A 3140   0.527   3.961   7.596  0.1326  3.1736  1.0231
   43CHL1  H12B 3141   0.380   3.893   7.517 -0.3385 -0.6196  4.0608
   43CHL1   C11 3142   0.486   4.031   7.388 -0.0226  0.2899 -0.1033
   43CHL1  H11A 3143   0.572   4.100   7.403  0.4156 -0.4903  1.1331
   43CHL1  H11B 3144   0.520   3.936   7.341 -2.5540 -0.4255 -0.6234
   43CHL1    C9 3145   0.371   4.096   7.308 -0.1385  0.4085  0.7966
   43CHL1    H9 3146   0.294   4.017   7.293  1.7141 -1.3206 -0.0762
   43CHL1   C10 3147   0.409   4.137   7.164 -0.5318 -0.5356  0.1606
   43CHL1   C19 3148   0.541   4.221   7.175 -0.6559 -0.6318  0.5075
   43CHL1  H19A 3149   0.566   4.282   7.085  1.6116  4.2342  4.0006
   43CHL1  H19B 3150   0.529   4.297   7.256 -0.5797  0.1299 -0.1758
   43CHL1  H19C 3151   0.633   4.168   7.205  0.3339  2.1597  2.9126
   43CHL1    C1 3152   0.434   4.013   7.087 -0.2686 -0.3083  0.5763
   43CHL1   H1A 3153   0.524   3.962   7.127  0.6027  1.4793  0.9588
   43CHL1   H1B 3154   0.344   3.950   7.108 -0.5607 -0.2322 -0.3974
   43CHL1    C2 3155   0.434   4.023   6.933  0.2248  0.2190  0.3775
   43CHL1   H2A 3156   0.429   3.920   6.892 -0.4092  0.1622  0.5935
   43CHL1   H2B 3157   0.529   4.062   6.891  0.5126 -1.6597 -0.8383
   43CHL1   C20 3158   0.362   4.022   7.867 -0.2628 -0.0785 -0.0341
   43CHL1   H20 3159   0.460   4.072   7.885  0.6434 -1.9082  0.3033
   43CHL1   C21 3160   0.398   3.877   7.852 -0.6176  0.6901  0.3844
   43CHL1  H21A 3161   0.432   3.847   7.751 -1.7886  1.6852 -0.3189
   43CHL1  H21B 3162   0.303   3.820   7.860 -0.1054 -0.7357 -2.3784
   43CHL1  H21C 3163   0.463   3.833   7.931  1.7113 -1.1652 -2.3401
   43CHL1   C22 3164   0.281   4.044   7.994  0.5838  0.3764 -0.3673
   43CHL1  H22A 3165   0.263   4.151   8.019 -0.3605  0.1509 -0.0163
   43CHL1  H22B 3166   0.179   4.007   7.967  0.9190 -1.5618  0.8299
   43CHL1   C23 3167   0.326   3.977   8.124 -0.6964 -0.5567  0.3994
   43CHL1  H23A 3168   0.330   3.868   8.103 -1.5876 -0.6149  0.5156
   43CHL1  H23B 3169   0.433   4.005   8.130 -0.5562 -0.8316 -0.5844
   43CHL1   C24 3170   0.259   4.014   8.255 -0.0350 -0.2572  0.2348
   43CHL1  H24A 3171   0.250   4.125   8.261  0.0289 -0.1811 -0.8971
   43CHL1  H24B 3172   0.154   3.985   8.235 -0.5706  1.8911 -0.3051
   43CHL1   C25 3173   0.331   3.952   8.375 -0.0678  0.6994  0.7494
   43CHL1   H25 3174   0.419   4.019   8.390 -0.2488  1.1702 -0.2263
   43CHL1   C26 3175   0.243   3.969   8.499 -0.5149  0.0289  0.1456
   43CHL1  H26A 3176   0.298   3.958   8.595 -2.4469  1.7472  1.5532
   43CHL1  H26B 3177   0.194   4.068   8.508  1.6070  0.8970  4.7606
   43CHL1  H26C 3178   0.165   3.890   8.498  0.3809 -0.8831 -0.5492
   43CHL1   C27 3179   0.361   3.803   8.357 -0.5914  0.2122  0.4939
   43CHL1  H27A 3180   0.428   3.794   8.270 -0.1539  1.2220  0.7168
   43CHL1  H27B 3181   0.407   3.761   8.449  0.4707 -0.8747 -0.5080
   43CHL1  H27C 3182   0.267   3.746   8.338 -0.0603 -0.1798 -1.0604
   44CHL1    C3 3183   1.081   3.123   6.846 -0.2365 -0.2787  0.4181
   44CHL1    H3 3184   1.089   3.013   6.857 -0.7539 -0.3220  0.3913
   44CHL1    O3 3185   1.109   3.160   6.710  0.0289  0.6454 -0.0653
   44CHL1   H3' 3186   1.041   3.118   6.657 -1.5359  0.7550  1.7662
   44CHL1    C4 3187   0.932   3.163   6.878  0.3645 -1.0820  0.1143
   44CHL1   H4A 3188   0.912   3.269   6.852  1.3474 -0.8142  0.4010
   44CHL1   H4B 3189   0.870   3.093   6.818  2.6204 -1.8784 -1.3955
   44CHL1    C5 3190   0.897   3.151   7.024  0.2515  0.5765  0.2275
   44CHL1    C6 3191   0.792   3.074   7.063  0.1292 -0.0338  0.3469
   44CHL1    H6 3192   0.729   3.035   6.982  0.1545  1.3627 -0.3804
   44CHL1    C7 3193   0.752   3.051   7.203 -0.3657 -0.2557  0.2874
   44CHL1   H7A 3194   0.641   3.052   7.211 -0.2788  0.2474  1.8798
   44CHL1   H7B 3195   0.789   2.949   7.229  3.0367  0.3846 -1.4063
   44CHL1    C8 3196   0.815   3.151   7.306 -0.0832  0.8260  0.8127
   44CHL1    H8 3197   0.771   3.253   7.301 -0.6808  0.9430  4.8094
   44CHL1   C14 3198   0.810   3.079   7.441 -0.1135 -0.5848 -0.2543
   44CHL1   H14 3199   0.858   2.979   7.435  0.9075 -0.3107  2.0842
   44CHL1   C15 3200   0.673   3.046   7.493  0.7882  0.9134 -0.0013
   44CHL1  H15A 3201   0.604   3.127   7.463 -0.5029 -0.2298 -0.1967
   44CHL1  H15B 3202   0.648   2.946   7.452  2.1756  0.4580  0.2189
   44CHL1   C16 3203   0.700   3.026   7.641  0.4908 -0.2869  0.7140
   44CHL1  H16A 3204   0.629   3.087   7.702 -0.5499  0.4906 -1.1774
   44CHL1  H16B 3205   0.664   2.924   7.668  0.0779 -0.4290 -0.3201
   44CHL1   C17 3206   0.847   3.058   7.669 -0.2714  0.1168  0.5906
   44CHL1   H17 3207   0.906   2.964   7.660 -0.4610 -0.2421  2.5439
   44CHL1   C13 3208   0.880   3.153   7.558 -0.0314  1.0321  1.1592
   44CHL1   C18 3209   0.811   3.286   7.591  0.2271 -0.1877 -0.0651
   44CHL1  H18A 3210   0.707   3.274   7.628  0.9202  0.0334  2.1041
   44CHL1  H18B 3211   0.863   3.345   7.669 -3.8466  0.7633  2.2465
   44CHL1  H18C 3212   0.814   3.351   7.501  0.4419 -0.5995 -0.3578
   44CHL1   C12 3213   1.021   3.187   7.525  0.2344  0.0468  0.2802
   44CHL1  H12A 3214   1.065   3.269   7.586  1.5157 -0.0897 -0.4266
   44CHL1  H12B 3215   1.083   3.096   7.537 -1.9645 -1.5461  0.1203
   44CHL1   C11 3216   1.039   3.243   7.378  0.2103 -0.4666 -0.0279
   44CHL1  H11A 3217   0.993   3.344   7.382 -3.5831 -2.0839  0.9897
   44CHL1  H11B 3218   1.145   3.271   7.356 -0.3149  2.4780  0.7163
   44CHL1    C9 3219   0.968   3.163   7.272  0.1731  0.1671 -0.2686
   44CHL1    H9 3220   1.001   3.057   7.274  1.2102  0.4584 -1.0149
   44CHL1   C10 3221   1.001   3.214   7.126  0.5013 -0.1800  0.3798
   44CHL1   C19 3222   0.984   3.367   7.120  0.2483 -0.2281 -0.6198
   44CHL1  H19A 3223   0.995   3.402   7.015  2.6325  0.3094 -0.2347
   44CHL1  H19B 3224   0.888   3.408   7.157 -0.2977  0.0631 -2.2635
   44CHL1  H19C 3225   1.063   3.418   7.179 -0.2570 -0.3100  0.1351
   44CHL1    C1 3226   1.141   3.162   7.091  0.7459 -0.3699  0.4748
   44CHL1   H1A 3227   1.227   3.205   7.148  0.8377 -0.7494  0.6239
   44CHL1   H1B 3228   1.136   3.052   7.094  0.3839 -0.3639  0.0932
   44CHL1    C2 3229   1.176   3.193   6.943 -0.0421 -0.6875 -0.4615
   44CHL1   H2A 3230   1.285   3.174   6.928  0.7570 -0.7770  4.0621
   44CHL1   H2B 3231   1.175   3.303   6.925 -2.3564  0.3119  4.2421
   44CHL1   C20 3232   0.864   3.107   7.812  0.1196  0.4268  0.8351
   44CHL1   H20 3233   0.814   3.205   7.825 -0.3819  0.1802  0.8024
   44CHL1   C21 3234   1.008   3.117   7.848 -0.0508 -0.0559 -0.7243
   44CHL1  H21A 3235   1.060   3.191   7.784 -1.9221  1.6386 -0.3885
   44CHL1  H21B 3236   1.061   3.020   7.856  1.2117  0.7201  1.0302
   44CHL1  H21C 3237   1.016   3.163   7.949  2.6764  0.0788 -0.9415
   44CHL1   C22 3238   0.790   3.019   7.912 -0.2297  0.2342  0.5936
   44CHL1  H22A 3239   0.679   3.025   7.900  0.0151  1.4539 -1.5433
   44CHL1  H22B 3240   0.821   2.916   7.887  0.0829  0.7520 -1.2845
   44CHL1   C23 3241   0.804   3.057   8.065  0.0643 -0.0667  0.0313
   44CHL1  H23A 3242   0.905   3.023   8.095  1.3855  3.9062  0.7786
   44CHL1  H23B 3243   0.796   3.167   8.080 -3.8874 -0.4452  2.2551
   44CHL1   C24 3244   0.698   2.985   8.149  0.1493 -0.9331 -0.3856
   44CHL1  H24A 3245   0.600   2.997   8.099  0.0972 -1.6664 -0.4775
   44CHL1  H24B 3246   0.719   2.876   8.141  0.1089 -0.9216 -0.6378
   44CHL1   C25 3247   0.705   3.034   8.289 -0.6472  0.4648  0.2051
   44CHL1   H25 3248   0.809   3.015   8.323 -0.2182 -0.2879 -1.4584
   44CHL1   C26 3249   0.680   3.181   8.307  0.1675 -0.0329  0.6745
   44CHL1  H26A 3250   0.770   3.240   8.281 -0.1755  0.0716 -0.3169
   44CHL1  H26B 3251   0.597   3.208   8.238 -0.0626  1.0052  1.3406
   44CHL1  H26C 3252   0.650   3.199   8.412  0.8758  0.0842  0.8609
   44CHL1   C27 3253   0.616   2.957   8.389 -0.6555 -0.4812  0.3992
   44CHL1  H27A 3254   0.512   2.974   8.355 -0.1370  1.8936 -0.2197
   44CHL1  H27B 3255   0.643   2.849   8.392  2.9271  0.1917 -1.3519
   44CHL1  H27C 3256   0.637   3.000   8.489 -2.3262 -0.2882  0.6813
   45CHL1    C3 3257   1.742   1.962   6.778 -0.4175  0.1446 -0.0378
   45CHL1    H3 3258   1.844   1.929   6.750  1.0385  2.3270  2.3949
   45CHL1    O3 3259   1.677   1.998   6.658 -0.0165 -0.6310  0.1782
   45CHL1   H3' 3260   1.674   1.925   6.596 -0.8379 -0.4352 -0.0272
   45CHL1    C4 3261   1.654   1.844   6.825 -0.7587  0.5028 -0.2970
   45CHL1   H4A 3262   1.549   1.851   6.792 -0.8512 -0.7071 -0.2855
   45CHL1   H4B 3263   1.690   1.761   6.761  0.5561  0.7071  0.1335
   45CHL1    C5 3264   1.671   1.806   6.976  0.3384 -0.0244  0.9360
   45CHL1    C6 3265   1.691   1.676   7.012  1.1288  0.0118 -0.1234
   45CHL1    H6 3266   1.695   1.594   6.939 -3.0976 -1.3628  0.9122
   45CHL1    C7 3267   1.699   1.628   7.155  0.0401  0.1739  0.3188
   45CHL1   H7A 3268   1.647   1.532   7.177 -1.1259  0.4507 -1.1203
   45CHL1   H7B 3269   1.805   1.606   7.181  1.1055  1.1413 -2.7998
   45CHL1    C8 3270   1.646   1.737   7.254 -0.3608  0.0833  0.5610
   45CHL1    H8 3271   1.536   1.745   7.250 -0.2655  1.0129 -1.3290
   45CHL1   C14 3272   1.678   1.700   7.397  0.0849 -0.1302 -1.1004
   45CHL1   H14 3273   1.786   1.694   7.421 -0.1167 -0.8353 -0.2834
   45CHL1   C15 3274   1.634   1.558   7.450  0.3748  0.3888  0.3382
   45CHL1  H15A 3275   1.527   1.543   7.422 -0.2392  0.4607  2.4648
   45CHL1  H15B 3276   1.693   1.475   7.408 -1.4582 -0.9074  0.1929
   45CHL1   C16 3277   1.636   1.571   7.606  0.3717 -0.2228  0.5672
   45CHL1  H16A 3278   1.546   1.526   7.654  1.2528 -1.7086  0.9226
   45CHL1  H16B 3279   1.727   1.529   7.655  1.7611  0.8863 -0.9670
   45CHL1   C17 3280   1.655   1.729   7.635 -0.1033 -0.5403 -0.4057
   45CHL1   H17 3281   1.763   1.754   7.645 -0.7664  1.8104  1.8245
   45CHL1   C13 3282   1.618   1.804   7.499  0.4603  0.6960 -0.4762
   45CHL1   C18 3283   1.461   1.800   7.498  0.2501  0.5958  0.9674
   45CHL1  H18A 3284   1.408   1.822   7.403  0.3604 -2.1937  0.1640
   45CHL1  H18B 3285   1.418   1.708   7.545 -1.4494  0.0388 -1.4742
   45CHL1  H18C 3286   1.440   1.885   7.566  1.3654  2.4110 -0.8490
   45CHL1   C12 3287   1.665   1.951   7.475  0.5356  0.1810 -0.6217
   45CHL1  H12A 3288   1.612   2.027   7.536  1.8802 -0.3760  1.3394
   45CHL1  H12B 3289   1.770   1.957   7.512 -0.0669 -0.9035  1.4225
   45CHL1   C11 3290   1.653   1.992   7.326 -0.3701  0.5166 -0.0299
   45CHL1  H11A 3291   1.545   2.006   7.304 -0.5120  1.7718  1.2981
   45CHL1  H11B 3292   1.703   2.089   7.302  0.4526  1.3028  4.1122
   45CHL1    C9 3293   1.696   1.881   7.219  0.0861  0.9211  0.3631
   45CHL1    H9 3294   1.807   1.878   7.219  0.0897  0.3280  1.5722
   45CHL1   C10 3295   1.668   1.920   7.066 -0.1911  0.2158  0.5845
   45CHL1   C19 3296   1.525   1.963   7.051  0.4713  0.9151 -0.0282
   45CHL1  H19A 3297   1.522   2.061   7.102 -1.0779  0.5112  0.7491
   45CHL1  H19B 3298   1.491   1.981   6.947  1.0058  0.1277 -0.3465
   45CHL1  H19C 3299   1.457   1.894   7.107  0.0753  1.7977  0.6024
   45CHL1    C1 3300   1.767   2.034   7.028  0.1424 -0.4431  0.7679
   45CHL1   H1A 3301   1.762   2.110   7.108  0.2951 -0.3000  0.6431
   45CHL1   H1B 3302   1.872   1.996   7.031  0.1980 -0.2752  0.9555
   45CHL1    C2 3303   1.743   2.084   6.879 -0.1477  1.0830  0.2412
   45CHL1   H2A 3304   1.809   2.164   6.839  0.4833  0.2099 -0.5125
   45CHL1   H2B 3305   1.641   2.129   6.879 -0.2429  0.9070  1.4349
   45CHL1   C20 3306   1.599   1.773   7.770  0.5555 -0.1391  0.6289
   45CHL1   H20 3307   1.488   1.777   7.762  0.4627 -0.1551  1.6786
   45CHL1   C21 3308   1.647   1.906   7.807 -0.6021 -0.6585  1.0607
   45CHL1  H21A 3309   1.566   1.982   7.813  0.0722  0.0333  1.7085
   45CHL1  H21B 3310   1.716   1.945   7.729 -2.3332  0.3410 -0.0444
   45CHL1  H21C 3311   1.698   1.901   7.906 -0.1084 -2.5501  0.7412
   45CHL1   C22 3312   1.614   1.660   7.881 -0.9248 -0.8025 -0.4583
   45CHL1  H22A 3313   1.559   1.566   7.856  1.1790 -2.4409  0.7532
   45CHL1  H22B 3314   1.719   1.638   7.909  0.0216  1.6217 -1.8181
   45CHL1   C23 3315   1.549   1.712   8.011 -0.1097  1.0178  0.3092
   45CHL1  H23A 3316   1.619   1.783   8.061  1.0734  1.0773 -1.3353
   45CHL1  H23B 3317   1.451   1.758   7.986 -0.6967  0.5768  1.7065
   45CHL1   C24 3318   1.519   1.592   8.109 -0.0004  0.2287  0.3077
   45CHL1  H24A 3319   1.464   1.519   8.044  1.3515  1.3095 -2.1848
   45CHL1  H24B 3320   1.617   1.547   8.136 -0.1203 -1.5632 -1.8976
   45CHL1   C25 3321   1.443   1.630   8.241 -0.4710  0.1890 -0.0075
   45CHL1   H25 3322   1.343   1.658   8.202 -1.0661 -0.6725  0.8656
   45CHL1   C26 3323   1.433   1.511   8.350  0.2897 -0.2833  0.3756
   45CHL1  H26A 3324   1.376   1.430   8.299  0.0263  0.1960 -0.1053
   45CHL1  H26B 3325   1.529   1.463   8.375  0.6386  1.2328  2.0993
   45CHL1  H26C 3326   1.370   1.541   8.437  1.1022 -1.2508  1.3175
   45CHL1   C27 3327   1.505   1.753   8.318 -0.2442 -0.0281  0.2223
   45CHL1  H27A 3328   1.495   1.839   8.248 -1.7776 -1.9265 -2.0775
   45CHL1  H27B 3329   1.450   1.772   8.412 -1.5620  1.1195 -0.7374
   45CHL1  H27C 3330   1.604   1.716   8.352 -1.1459 -1.7942  1.0566
   46CHL1    C3 3331   2.042   2.967   7.072  0.3395 -0.1203  0.2067
   46CHL1    H3 3332   2.135   3.011   7.113  0.7077 -0.3014 -0.4041
   46CHL1    O3 3333   2.040   2.960   6.928 -0.1823 -0.1164 -0.5603
   46CHL1   H3' 3334   2.108   2.898   6.902 -1.9420 -2.2866 -0.2735
   46CHL1    C4 3335   2.025   2.824   7.118  0.0845 -0.5644 -0.7866
   46CHL1   H4A 3336   1.930   2.781   7.080 -0.2371  0.0350 -0.6764
   46CHL1   H4B 3337   2.102   2.753   7.083  0.3253 -1.3902  1.2424
   46CHL1    C5 3338   2.022   2.817   7.272 -0.5121  0.3028  0.4094
   46CHL1    C6 3339   2.116   2.745   7.333 -0.2354 -0.6346  0.1716
   46CHL1    H6 3340   2.184   2.685   7.269 -1.8090 -1.4285 -0.8260
   46CHL1    C7 3341   2.132   2.733   7.481  0.7288 -0.6222  0.1180
   46CHL1   H7A 3342   2.163   2.635   7.525 -2.0599 -1.3915  0.5514
   46CHL1   H7B 3343   2.212   2.805   7.508  0.4498  1.1420 -3.2920
   46CHL1    C8 3344   2.009   2.792   7.561 -0.4289  0.2199 -0.1998
   46CHL1    H8 3345   1.932   2.713   7.566 -0.3957  0.2398  0.8030
   46CHL1   C14 3346   2.055   2.814   7.705  0.6174 -0.0169  0.3547
   46CHL1   H14 3347   2.145   2.879   7.710  0.5765 -0.0177  1.4914
   46CHL1   C15 3348   2.112   2.699   7.787 -0.3977 -0.7883  0.1845
   46CHL1  H15A 3349   2.041   2.614   7.774 -1.8378  0.4391 -0.2050
   46CHL1  H15B 3350   2.217   2.676   7.760 -0.7158 -0.3166 -1.5703
   46CHL1   C16 3351   2.108   2.752   7.935 -0.3251  0.7124  0.5100
   46CHL1  H16A 3352   2.053   2.674   7.992  1.2748 -0.3312  0.6771
   46CHL1  H16B 3353   2.209   2.779   7.974 -0.6498  1.1797  1.0389
   46CHL1   C17 3354   2.031   2.882   7.937 -0.3882 -0.7360 -0.1312
   46CHL1   H17 3355   2.111   2.958   7.925 -0.7797 -0.3600 -0.3926
   46CHL1   C13 3356   1.954   2.892   7.806 -0.2422  0.5139  1.0838
   46CHL1   C18 3357   1.822   2.807   7.825  0.1871  0.1745  0.2464
   46CHL1  H18A 3358   1.766   2.795   7.730 -0.8871  0.0163  0.8832
   46CHL1  H18B 3359   1.834   2.708   7.874  0.7080 -0.2013 -0.6152
   46CHL1  H18C 3360   1.754   2.860   7.895  1.0305  0.3118  0.9750
   46CHL1   C12 3361   1.927   3.029   7.744 -0.4841 -0.6135 -0.4329
   46CHL1  H12A 3362   1.855   3.088   7.804 -0.9267 -0.0380 -1.5032
   46CHL1  H12B 3363   2.017   3.095   7.744 -0.9487  0.0265  0.4425
   46CHL1   C11 3364   1.870   3.008   7.597  0.0099 -0.6180 -0.1768
   46CHL1  H11A 3365   1.773   2.956   7.610 -0.8409  1.0127  0.3641
   46CHL1  H11B 3366   1.853   3.110   7.555  1.1151 -0.5391 -0.4760
   46CHL1    C9 3367   1.962   2.925   7.495 -0.5814 -0.8546 -0.1461
   46CHL1    H9 3368   2.047   2.995   7.480 -0.4501 -1.5933 -3.5413
   46CHL1   C10 3369   1.929   2.918   7.347  0.1451 -0.1885 -0.0088
   46CHL1   C19 3370   1.797   2.852   7.331 -0.8556  0.0676  0.2108
   46CHL1  H19A 3371   1.756   2.869   7.229  1.5411 -0.9153 -1.0007
   46CHL1  H19B 3372   1.813   2.745   7.354  1.0010  0.3160  0.2039
   46CHL1  H19C 3373   1.719   2.892   7.398 -1.2530 -0.8384  0.3044
   46CHL1    C1 3374   1.940   3.060   7.283 -0.1569 -0.1940  0.0577
   46CHL1   H1A 3375   1.861   3.128   7.321  0.2532 -0.3931  1.3058
   46CHL1   H1B 3376   2.034   3.109   7.315 -0.8108 -0.8211  3.3441
   46CHL1    C2 3377   1.928   3.061   7.127 -0.4712  0.2914  0.0844
   46CHL1   H2A 3378   1.937   3.167   7.094 -2.5009  0.7144  0.7070
   46CHL1   H2B 3379   1.827   3.018   7.112  0.3863 -2.8592  2.3478
   46CHL1   C20 3380   1.974   2.915   8.079 -0.0357  0.5109  0.4094
   46CHL1   H20 3381   1.887   2.847   8.094  0.7230 -0.6872 -0.4079
   46CHL1   C21 3382   1.915   3.055   8.082  0.6467  0.2684  0.0816
   46CHL1  H21A 3383   1.836   3.043   8.005  0.7631  0.0341 -0.0018
   46CHL1  H21B 3384   1.990   3.132   8.053  0.1745  0.3087 -1.1056
   46CHL1  H21C 3385   1.855   3.076   8.173 -1.7992  2.1211 -1.8051
   46CHL1   C22 3386   2.079   2.901   8.194 -0.3429 -0.5315  0.5706
   46CHL1  H22A 3387   2.130   2.804   8.176 -3.2266 -1.9021 -0.8417
   46CHL1  H22B 3388   2.148   2.987   8.177 -1.7581  0.7228  0.9105
   46CHL1   C23 3389   2.023   2.933   8.333 -0.1741 -0.0100 -0.4614
   46CHL1  H23A 3390   2.011   3.043   8.341 -0.9656  0.0804 -2.4440
   46CHL1  H23B 3391   1.926   2.879   8.341 -0.1517 -0.0798 -0.6514
   46CHL1   C24 3392   2.120   2.883   8.437  0.0049  0.2812  0.3156
   46CHL1  H24A 3393   2.126   2.772   8.426 -1.6973  0.2632 -0.7587
   46CHL1  H24B 3394   2.218   2.930   8.414 -0.5004  0.7276 -0.9883
   46CHL1   C25 3395   2.081   2.907   8.586  0.0366 -0.1632 -0.0549
   46CHL1   H25 3396   2.147   2.838   8.643  0.3259  1.4283  1.5911
   46CHL1   C26 3397   2.100   3.048   8.631  0.0783 -0.5190  0.2846
   46CHL1  H26A 3398   2.047   3.120   8.565 -0.7349  0.2318  1.7154
   46CHL1  H26B 3399   2.064   3.056   8.735 -3.2617 -0.4068 -0.7867
   46CHL1  H26C 3400   2.205   3.085   8.622 -0.4101  0.4665 -2.5364
   46CHL1   C27 3401   1.938   2.859   8.617 -0.1729  0.4480  0.0748
   46CHL1  H27A 3402   1.862   2.909   8.554  1.0132  1.3268 -0.7038
   46CHL1  H27B 3403   1.929   2.752   8.591 -0.8654  0.5402 -0.0649
   46CHL1  H27C 3404   1.918   2.879   8.724 -0.1516  2.5623 -0.2638
   47CHL1    C3 3405   0.979   2.704   6.717 -0.5988 -0.7492  1.0981
   47CHL1    H3 3406   0.947   2.810   6.722 -1.6751 -0.9222 -0.9826
   47CHL1    O3 3407   1.015   2.676   6.582  0.2410 -0.2263  0.1081
   47CHL1   H3' 3408   0.986   2.590   6.551  1.3358 -1.0087  1.1420
   47CHL1    C4 3409   1.093   2.673   6.807  0.7030  0.2865 -0.2525
   47CHL1   H4A 3410   1.109   2.569   6.772 -2.1286 -1.0632  2.0742
   47CHL1   H4B 3411   1.176   2.737   6.768  1.5029 -0.6504 -0.1323
   47CHL1    C5 3412   1.063   2.687   6.961  0.2680  1.1119  0.1368
   47CHL1    C6 3413   1.132   2.770   7.037  0.3099  0.5131 -0.4814
   47CHL1    H6 3414   1.209   2.839   6.999  0.7170  0.5618  0.4051
   47CHL1    C7 3415   1.113   2.767   7.186 -0.0972 -0.7271 -0.0529
   47CHL1   H7A 3416   1.208   2.780   7.242 -0.6583 -1.2814  1.0523
   47CHL1   H7B 3417   1.052   2.858   7.204  1.7262  0.6448 -0.4551
   47CHL1    C8 3418   1.033   2.644   7.241  0.7620 -0.3207 -0.0662
   47CHL1    H8 3419   1.096   2.553   7.248  1.6308  0.1360 -1.5297
   47CHL1   C14 3420   0.986   2.682   7.385 -0.3330 -0.7763 -0.3242
   47CHL1   H14 3421   0.928   2.774   7.361  1.2542  0.4227  0.2748
   47CHL1   C15 3422   1.085   2.737   7.489 -0.4322  0.5863  0.1881
   47CHL1  H15A 3423   1.186   2.690   7.490 -0.8768 -0.4426  1.7588
   47CHL1  H15B 3424   1.095   2.847   7.484 -0.5443  0.6147  0.5365
   47CHL1   C16 3425   1.024   2.688   7.627  0.8086 -0.3522  0.5731
   47CHL1  H16A 3426   1.097   2.612   7.663  1.6949  0.1501 -0.0985
   47CHL1  H16B 3427   1.015   2.766   7.705  0.7098  2.6501 -2.2503
   47CHL1   C17 3428   0.882   2.628   7.591  0.6236 -0.0401 -0.5217
   47CHL1   H17 3429   0.807   2.708   7.575  0.1740  0.2008  2.2868
   47CHL1   C13 3430   0.899   2.572   7.449 -0.4654  0.1073  0.5148
   47CHL1   C18 3431   0.962   2.432   7.458 -0.2616 -0.1637 -0.2485
   47CHL1  H18A 3432   0.889   2.357   7.497 -0.6184  0.9874  1.3957
   47CHL1  H18B 3433   1.010   2.398   7.364 -1.3845 -0.2294 -0.8149
   47CHL1  H18C 3434   1.041   2.438   7.536  0.2513 -1.1864 -0.6690
   47CHL1   C12 3435   0.776   2.565   7.361  0.1384  0.3094 -0.7001
   47CHL1  H12A 3436   0.698   2.493   7.393  1.1053 -1.9388 -3.0159
   47CHL1  H12B 3437   0.734   2.667   7.365 -1.3362 -0.3129  1.9757
   47CHL1   C11 3438   0.807   2.525   7.214  0.8667  0.4115 -0.5970
   47CHL1  H11A 3439   0.851   2.424   7.228  0.2280  0.4641  2.5994
   47CHL1  H11B 3440   0.714   2.525   7.152  0.0281 -0.2335  0.6121
   47CHL1    C9 3441   0.907   2.619   7.155 -0.3268  0.6558  0.3878
   47CHL1    H9 3442   0.846   2.712   7.159 -1.3814 -0.0241  0.3441
   47CHL1   C10 3443   0.947   2.589   7.007 -0.2622  0.7423 -0.1405
   47CHL1   C19 3444   0.998   2.445   6.992 -0.5095  0.1171  0.0909
   47CHL1  H19A 3445   1.080   2.436   7.067  3.0991 -1.1912 -3.6146
   47CHL1  H19B 3446   0.914   2.374   7.000  0.1048 -0.4708  1.8375
   47CHL1  H19C 3447   1.053   2.436   6.896 -0.1846  1.0888  0.1695
   47CHL1    C1 3448   0.830   2.615   6.911 -0.0856  0.7364  0.7978
   47CHL1   H1A 3449   0.758   2.531   6.923  2.1568 -1.4221  0.0287
   47CHL1   H1B 3450   0.783   2.711   6.939 -0.2397  0.8125  0.2814
   47CHL1    C2 3451   0.859   2.610   6.757  0.1163  0.2348 -0.6433
   47CHL1   H2A 3452   0.763   2.632   6.706 -0.2808  3.4166  1.1869
   47CHL1   H2B 3453   0.901   2.508   6.742 -1.7178 -0.9074  1.4725
   47CHL1   C20 3454   0.835   2.544   7.711  0.4693 -0.0213 -0.9820
   47CHL1   H20 3455   0.900   2.454   7.717 -0.7347 -0.9473  5.0435
   47CHL1   C21 3456   0.697   2.489   7.691  0.2638  0.8407  0.6021
   47CHL1  H21A 3457   0.691   2.424   7.601 -1.4868  0.8319  0.6934
   47CHL1  H21B 3458   0.618   2.564   7.669 -0.3748  0.7148  2.2975
   47CHL1  H21C 3459   0.665   2.427   7.778  0.7317 -0.5292 -0.1723
   47CHL1   C22 3460   0.844   2.618   7.851 -0.7860  0.3534  0.0833
   47CHL1  H22A 3461   0.952   2.638   7.869 -1.2650  2.1103  1.3926
   47CHL1  H22B 3462   0.791   2.716   7.850  0.0821  0.8990  1.7987
   47CHL1   C23 3463   0.797   2.539   7.971 -0.4038 -0.0710 -0.0703
   47CHL1  H23A 3464   0.688   2.520   7.966 -0.1056 -1.9459 -0.5616
   47CHL1  H23B 3465   0.843   2.438   7.959 -0.8349 -0.3672  0.6958
   47CHL1   C24 3466   0.826   2.597   8.106 -0.1995  0.2898  0.5252
   47CHL1  H24A 3467   0.932   2.620   8.134  0.0143  0.6507 -0.5274
   47CHL1  H24B 3468   0.774   2.695   8.108 -1.1614 -0.0885 -2.0884
   47CHL1   C25 3469   0.764   2.520   8.226  0.9583 -0.1274 -0.0488
   47CHL1   H25 3470   0.654   2.529   8.218  0.8096  0.1843  1.8321
   47CHL1   C26 3471   0.791   2.369   8.238  0.1677  0.8055  0.3448
   47CHL1  H26A 3472   0.760   2.309   8.150  2.1103  1.7010 -1.0125
   47CHL1  H26B 3473   0.902   2.365   8.239  0.1509 -1.1079 -0.3720
   47CHL1  H26C 3474   0.733   2.324   8.322 -1.1265 -3.0824 -2.3241
   47CHL1   C27 3475   0.795   2.591   8.357 -0.3621  0.2696  0.1586
   47CHL1  H27A 3476   0.732   2.542   8.434 -0.7310  0.1154 -0.2348
   47CHL1  H27B 3477   0.905   2.586   8.367 -0.3394  2.2466  1.0971
   47CHL1  H27C 3478   0.766   2.697   8.348  1.0145  1.0439  3.4737
   48CHL1    C3 3479   4.628   5.363   6.587  0.9646  0.0584  0.0423
   48CHL1    H3 3480   4.550   5.437   6.613  1.7501  0.7188  0.6071
   48CHL1    O3 3481   4.627   5.345   6.450  0.1917  0.2679 -0.0422
   48CHL1   H3' 3482   4.662   5.256   6.444  2.9067  1.0323  2.0985
   48CHL1    C4 3483   4.762   5.423   6.627 -0.2596  0.5125  0.3830
   48CHL1   H4A 3484   4.839   5.349   6.598  0.7392  1.5372  0.3658
   48CHL1   H4B 3485   4.787   5.517   6.574  0.8165  0.4326  0.7165
   48CHL1    C5 3486   4.779   5.432   6.777  0.0191 -0.5749 -0.0104
   48CHL1    C6 3487   4.815   5.554   6.827 -0.0215  0.1156 -0.1344
   48CHL1    H6 3488   4.834   5.641   6.763 -0.9699  1.3958  1.2734
   48CHL1    C7 3489   4.840   5.586   6.976 -0.1050 -0.6722  0.1565
   48CHL1   H7A 3490   4.941   5.627   6.997 -0.7591  0.9448  0.2870
   48CHL1   H7B 3491   4.761   5.649   7.022  0.1241 -0.0493 -0.2985
   48CHL1    C8 3492   4.819   5.455   7.065 -0.6592 -0.0843 -0.5535
   48CHL1    H8 3493   4.916   5.401   7.068 -0.3054  0.5961  1.0732
   48CHL1   C14 3494   4.802   5.494   7.214  0.0742 -0.1113 -0.7789
   48CHL1   H14 3495   4.697   5.530   7.217  0.1789  0.3280 -1.8613
   48CHL1   C15 3496   4.871   5.609   7.284 -0.5023  0.2953  0.3041
   48CHL1  H15A 3497   4.979   5.592   7.263 -0.2978  0.2553  1.3175
   48CHL1  H15B 3498   4.836   5.713   7.263 -0.1371  0.6664  1.4348
   48CHL1   C16 3499   4.854   5.587   7.432 -0.0237  1.0517 -0.7882
   48CHL1  H16A 3500   4.958   5.588   7.470 -0.6075  0.9884  0.9272
   48CHL1  H16B 3501   4.792   5.672   7.468  0.8649  0.9190  1.2381
   48CHL1   C17 3502   4.777   5.451   7.452  0.1692  0.1226 -0.1955
   48CHL1   H17 3503   4.668   5.475   7.453  0.5310  2.2759  3.0799
   48CHL1   C13 3504   4.807   5.379   7.316  0.1060 -0.5911 -0.5180
   48CHL1   C18 3505   4.949   5.320   7.329 -0.3557  0.1245  0.0752
   48CHL1  H18A 3506   5.027   5.399   7.328  0.8032 -0.9771 -1.3714
   48CHL1  H18B 3507   4.951   5.240   7.406  0.4594 -0.8620 -0.9303
   48CHL1  H18C 3508   4.975   5.262   7.238 -1.9507 -1.4559  0.5614
   48CHL1   C12 3509   4.696   5.281   7.267  0.1794 -0.5923  0.3852
   48CHL1  H12A 3510   4.687   5.201   7.343  0.3699  2.1809  3.5132
   48CHL1  H12B 3511   4.603   5.339   7.283 -0.9831 -2.3933  0.4486
   48CHL1   C11 3512   4.704   5.240   7.120  0.5228 -0.8676  0.1021
   48CHL1  H11A 3513   4.799   5.184   7.107  1.2305  0.7536 -2.3238
   48CHL1  H11B 3514   4.615   5.174   7.105  1.0197 -1.4243 -0.4214
   48CHL1    C9 3515   4.714   5.360   7.019  0.0629  0.3668 -0.1151
   48CHL1    H9 3516   4.619   5.418   7.026 -0.2786 -0.3689  2.7939
   48CHL1   C10 3517   4.733   5.322   6.871 -0.1721 -0.1263 -0.5335
   48CHL1   C19 3518   4.841   5.210   6.866  0.1970 -0.9610  0.1929
   48CHL1  H19A 3519   4.874   5.179   6.764 -0.1269 -1.5746  0.2697
   48CHL1  H19B 3520   4.937   5.236   6.915  0.2316 -0.9844  0.1388
   48CHL1  H19C 3521   4.808   5.118   6.918  1.3671 -0.0906  2.6129
   48CHL1    C1 3522   4.605   5.267   6.814 -0.2067 -0.5683  0.1921
   48CHL1   H1A 3523   4.597   5.170   6.868  1.0657 -1.1442 -0.6190
   48CHL1   H1B 3524   4.520   5.337   6.828  1.3533  0.9142  2.9892
   48CHL1    C2 3525   4.618   5.227   6.660  0.3065  0.2439  0.0569
   48CHL1   H2A 3526   4.525   5.168   6.644  0.6682 -0.0892 -0.8247
   48CHL1   H2B 3527   4.707   5.165   6.640  1.3149  0.7277  2.6469
   48CHL1   C20 3528   4.805   5.391   7.593  0.0558 -0.4855  0.2232
   48CHL1   H20 3529   4.915   5.383   7.608  0.0400  1.6346  2.1337
   48CHL1   C21 3530   4.740   5.257   7.593 -0.0767 -0.0091  0.3473
   48CHL1  H21A 3531   4.746   5.210   7.694 -0.5604  1.2791  1.0067
   48CHL1  H21B 3532   4.787   5.191   7.518  0.7312  0.5039  0.3916
   48CHL1  H21C 3533   4.632   5.262   7.567 -0.5599  0.7851  2.2767
   48CHL1   C22 3534   4.749   5.489   7.698  0.1967  0.0909  0.3108
   48CHL1  H22A 3535   4.809   5.582   7.687 -0.5769  0.4643 -0.8862
   48CHL1  H22B 3536   4.647   5.521   7.670 -0.3516 -1.0045  0.9877
   48CHL1   C23 3537   4.756   5.445   7.847 -0.2090 -0.5462 -0.8158
   48CHL1  H23A 3538   4.686   5.358   7.853 -1.8369  0.6567 -1.5705
   48CHL1  H23B 3539   4.856   5.403   7.872 -1.3725 -2.4016  1.1664
   48CHL1   C24 3540   4.705   5.560   7.946 -0.2413 -0.4533  0.6347
   48CHL1  H24A 3541   4.756   5.658   7.929  2.0410 -1.7592 -0.6303
   48CHL1  H24B 3542   4.598   5.579   7.925  0.5170  3.6277 -0.3910
   48CHL1   C25 3543   4.740   5.534   8.092  0.5423  0.2183  0.3948
   48CHL1   H25 3544   4.697   5.434   8.112  0.5315 -0.1173 -1.1932
   48CHL1   C26 3545   4.892   5.535   8.112  0.2181  0.0551  0.1546
   48CHL1  H26A 3546   4.924   5.472   8.198 -1.4024 -0.0483  0.7074
   48CHL1  H26B 3547   4.945   5.497   8.022 -1.3836  3.3947 -2.4338
   48CHL1  H26C 3548   4.936   5.637   8.118 -0.9153  0.5155  1.0179
   48CHL1   C27 3549   4.671   5.628   8.188  0.1518 -0.0775 -0.4938
   48CHL1  H27A 3550   4.679   5.574   8.284 -1.4077 -0.4698 -0.5558
   48CHL1  H27B 3551   4.714   5.729   8.204  1.9379 -0.9005  0.2164
   48CHL1  H27C 3552   4.562   5.635   8.170 -0.0859  0.1566  0.9336
   49CHL1    C3 3553   3.290   5.962   6.751  0.2551 -0.4648  0.2486
   49CHL1    H3 3554   3.370   6.039   6.748  0.4271 -0.5902  1.3184
   49CHL1    O3 3555   3.266   5.905   6.625 -0.8273 -0.1549 -0.8062
   49CHL1   H3' 3556   3.200   5.838   6.643 -0.3882  0.1415  2.4578
   49CHL1    C4 3557   3.350   5.849   6.838 -0.4534 -0.4310 -0.3744
   49CHL1   H4A 3558   3.289   5.759   6.814 -2.5888  0.1622  2.3248
   49CHL1   H4B 3559   3.450   5.826   6.796 -0.3532  1.3608 -1.2383
   49CHL1    C5 3560   3.359   5.889   6.984  0.2391  0.0051 -0.2396
   49CHL1    C6 3561   3.473   5.876   7.059  0.3349 -0.5932  0.4077
   49CHL1    H6 3562   3.562   5.848   7.001  1.3659 -0.4283  1.8708
   49CHL1    C7 3563   3.500   5.924   7.201 -0.1583 -0.4175 -0.2433
   49CHL1   H7A 3564   3.563   5.850   7.254  0.4721 -0.9519 -1.6937
   49CHL1   H7B 3565   3.546   6.025   7.206 -1.3883  0.2802 -1.8827
   49CHL1    C8 3566   3.365   5.940   7.279 -0.2766 -0.0784  0.3329
   49CHL1    H8 3567   3.326   5.839   7.304  0.8529 -0.2787  1.3955
   49CHL1   C14 3568   3.398   6.026   7.396 -0.1434  0.0206 -0.4316
   49CHL1   H14 3569   3.416   6.126   7.351 -2.1052  0.3971 -0.4574
   49CHL1   C15 3570   3.504   5.984   7.495 -0.3214 -0.2188 -0.3346
   49CHL1  H15A 3571   3.519   5.875   7.509  1.0756 -0.2189 -1.6042
   49CHL1  H15B 3572   3.607   6.014   7.465 -0.0996 -1.8024 -1.3136
   49CHL1   C16 3573   3.474   6.061   7.624  0.2426  0.1430 -0.4762
   49CHL1  H16A 3574   3.440   5.989   7.701 -1.6388  0.8940 -0.5392
   49CHL1  H16B 3575   3.558   6.117   7.671  0.5207  0.1554 -0.9818
   49CHL1   C17 3576   3.347   6.147   7.590 -0.1257 -0.8316 -0.5721
   49CHL1   H17 3577   3.371   6.240   7.535 -2.1148  0.4417  0.5663
   49CHL1   C13 3578   3.275   6.063   7.487  0.5912 -0.5976  0.4127
   49CHL1   C18 3579   3.205   5.939   7.540 -0.3771 -0.7425  0.1746
   49CHL1  H18A 3580   3.153   5.882   7.460 -0.9515  0.2568 -0.1875
   49CHL1  H18B 3581   3.259   5.858   7.592 -1.9457 -1.3689  0.8833
   49CHL1  H18C 3582   3.126   5.971   7.612 -0.1308  0.3000  0.0062
   49CHL1   C12 3583   3.172   6.131   7.401 -0.4416 -0.3350 -0.0077
   49CHL1  H12A 3584   3.087   6.153   7.468  2.2841 -0.0020  3.6435
   49CHL1  H12B 3585   3.208   6.229   7.362  0.4391 -0.6585 -0.0409
   49CHL1   C11 3586   3.136   6.058   7.266  0.3729  0.4737 -0.2426
   49CHL1  H11A 3587   3.081   5.966   7.296 -1.8350  1.9435  0.4674
   49CHL1  H11B 3588   3.076   6.119   7.196  0.3769  2.0638  1.0680
   49CHL1    C9 3589   3.263   6.015   7.187 -0.5037  0.1043 -0.6633
   49CHL1    H9 3590   3.310   6.115   7.173 -3.0158  1.9813  2.7849
   49CHL1   C10 3591   3.232   5.950   7.047  0.2090 -0.2524 -0.6471
   49CHL1   C19 3592   3.138   5.828   7.065 -0.1664  0.3707 -0.4903
   49CHL1  H19A 3593   3.123   5.776   6.968 -0.7958 -1.8912  0.7408
   49CHL1  H19B 3594   3.173   5.760   7.145  0.0575  0.8549 -0.1722
   49CHL1  H19C 3595   3.038   5.856   7.105  0.6107  0.7920  1.2907
   49CHL1    C1 3596   3.164   6.059   6.954 -0.4803 -0.0578 -0.1728
   49CHL1   H1A 3597   3.064   6.079   6.997 -0.1897 -0.1664  0.5781
   49CHL1   H1B 3598   3.211   6.159   6.955 -1.7459  0.5598  0.8141
   49CHL1    C2 3599   3.152   6.010   6.803 -0.6639 -0.1295 -0.0492
   49CHL1   H2A 3600   3.109   6.078   6.726  2.5525 -1.7150 -3.6026
   49CHL1   H2B 3601   3.089   5.919   6.814  0.2100 -0.8499 -0.8383
   49CHL1   C20 3602   3.264   6.192   7.712 -0.1761 -0.3131 -0.2054
   49CHL1   H20 3603   3.157   6.204   7.686 -0.2920 -0.4827  0.1899
   49CHL1   C21 3604   3.310   6.342   7.757 -0.1377  1.2728  0.1965
   49CHL1  H21A 3605   3.250   6.404   7.827  0.1813  1.7446  0.0591
   49CHL1  H21B 3606   3.295   6.384   7.655 -0.7590 -1.6850 -1.0472
   49CHL1  H21C 3607   3.418   6.331   7.782 -0.4129 -0.1189  0.8934
   49CHL1   C22 3608   3.261   6.111   7.842  0.1759 -0.3359  0.1512
   49CHL1  H22A 3609   3.224   6.011   7.811  0.1766  0.2276 -1.8241
   49CHL1  H22B 3610   3.364   6.107   7.885 -0.4770 -0.2457  1.8066
   49CHL1   C23 3611   3.177   6.175   7.960 -0.5217  0.0695  0.2104
   49CHL1  H23A 3612   3.234   6.255   8.012 -0.5880  0.0394  0.3301
   49CHL1  H23B 3613   3.082   6.213   7.915 -0.5131  2.0246  1.6889
   49CHL1   C24 3614   3.148   6.066   8.071  0.4624  0.2608  0.0188
   49CHL1  H24A 3615   3.107   5.975   8.024  0.7403 -1.0055  2.1195
   49CHL1  H24B 3616   3.247   6.037   8.113 -0.0075  2.1312  2.6987
   49CHL1   C25 3617   3.054   6.113   8.185  0.0515  0.3623 -0.6689
   49CHL1   H25 3618   3.097   6.210   8.218 -1.9582  1.3155 -0.7047
   49CHL1   C26 3619   2.915   6.114   8.136  0.0295  0.1828 -0.0153
   49CHL1  H26A 3620   2.858   6.166   8.216  0.6931  1.7646 -0.5160
   49CHL1  H26B 3621   2.888   6.160   8.039  2.7374 -2.3372 -2.1243
   49CHL1  H26C 3622   2.881   6.009   8.123 -1.1787  0.7443 -1.6369
   49CHL1   C27 3623   3.082   6.027   8.316  0.8767 -0.0636  0.1786
   49CHL1  H27A 3624   3.049   5.924   8.291  0.0586  0.7406 -2.3212
   49CHL1  H27B 3625   3.189   6.032   8.343  0.7508  0.4636  0.6036
   49CHL1  H27C 3626   3.015   6.051   8.401  0.2248 -0.2578 -0.2723
   50CHL1    C3 3627   5.183   1.192   6.797  0.5636 -0.4058  0.5490
   50CHL1    H3 3628   5.193   1.082   6.789 -1.2219 -0.6814  1.7188
   50CHL1    O3 3629   5.157   1.244   6.668  0.2856 -0.3762 -0.2598
   50CHL1   H3' 3630   5.119   1.331   6.682 -1.1575 -1.1093  0.5745
   50CHL1    C4 3631   5.065   1.227   6.888 -0.4273  0.0401  0.0122
   50CHL1   H4A 3632   5.040   1.334   6.872  1.3083  0.3242 -1.0809
   50CHL1   H4B 3633   4.972   1.175   6.857 -0.9953  0.5812  0.7620
   50CHL1    C5 3634   5.083   1.210   7.035 -0.2687 -0.7704  0.1852
   50CHL1    C6 3635   4.996   1.130   7.105  0.2046 -0.7922  0.3577
   50CHL1    H6 3636   4.914   1.081   7.051  0.6406 -0.1425 -0.9537
   50CHL1    C7 3637   5.015   1.097   7.250  0.5309 -0.0941 -0.3759
   50CHL1   H7A 3638   4.927   1.109   7.316 -0.3075  0.4513 -1.5546
   50CHL1   H7B 3639   5.046   0.991   7.264  1.6750  0.5190  2.2586
   50CHL1    C8 3640   5.112   1.188   7.324 -0.2010 -0.0353  0.2282
   50CHL1    H8 3641   5.067   1.288   7.339 -0.9249 -0.4528  0.9147
   50CHL1   C14 3642   5.150   1.131   7.460 -0.7900  0.2002  0.1243
   50CHL1   H14 3643   5.191   1.031   7.434  0.9603  0.6608  0.9356
   50CHL1   C15 3644   5.041   1.100   7.565 -0.5063 -0.3461 -0.0901
   50CHL1  H15A 3645   4.976   1.189   7.555 -0.1625  0.2471  2.3565
   50CHL1  H15B 3646   4.980   1.012   7.536 -2.4753  0.7670  0.4732
   50CHL1   C16 3647   5.120   1.077   7.693 -0.0957 -0.4082  0.2373
   50CHL1  H16A 3648   5.071   1.148   7.763 -1.6175 -2.8902  1.8082
   50CHL1  H16B 3649   5.105   0.977   7.738  1.3220 -1.6051 -1.7821
   50CHL1   C17 3650   5.265   1.115   7.664  0.0121  0.2593  0.6740
   50CHL1   H17 3651   5.331   1.027   7.649 -1.2104 -0.4626 -0.7233
   50CHL1   C13 3652   5.265   1.205   7.540  0.3860  0.1480  1.0251
   50CHL1   C18 3653   5.218   1.346   7.587  0.2024  0.2283  0.3392
   50CHL1  H18A 3654   5.186   1.421   7.512  1.3076  1.1319  0.7560
   50CHL1  H18B 3655   5.144   1.334   7.670 -0.4267 -0.0385 -0.2503
   50CHL1  H18C 3656   5.312   1.377   7.637  0.5409 -3.5064  2.4016
   50CHL1   C12 3657   5.386   1.205   7.450  0.1995  0.2008  0.2819
   50CHL1  H12A 3658   5.474   1.245   7.503  1.2104 -1.6436  0.0717
   50CHL1  H12B 3659   5.410   1.099   7.427 -3.9305 -1.2614  1.7919
   50CHL1   C11 3660   5.347   1.275   7.321  0.5456 -0.2369 -0.5276
   50CHL1  H11A 3661   5.308   1.375   7.351  0.6908 -0.8566  1.9875
   50CHL1  H11B 3662   5.430   1.295   7.250  2.4927 -0.6233  1.4924
   50CHL1    C9 3663   5.236   1.207   7.240 -0.1543  0.5380  0.2571
   50CHL1    H9 3664   5.282   1.108   7.217 -1.1896  0.7830 -3.4994
   50CHL1   C10 3665   5.213   1.265   7.101  0.6468  0.8548  0.2754
   50CHL1   C19 3666   5.205   1.424   7.112 -0.4607  0.3800  0.7125
   50CHL1  H19A 3667   5.301   1.468   7.146  0.5693  0.8293 -2.4424
   50CHL1  H19B 3668   5.181   1.470   7.014  0.0334  0.3726  0.5824
   50CHL1  H19C 3669   5.127   1.454   7.185 -0.1967 -0.3061  1.2941
   50CHL1    C1 3670   5.324   1.214   6.996 -0.0579 -0.7434 -1.0066
   50CHL1   H1A 3671   5.418   1.255   7.039 -0.9962  1.5873 -1.0481
   50CHL1   H1B 3672   5.319   1.104   7.008 -2.3681 -0.7420 -1.4264
   50CHL1    C2 3673   5.310   1.261   6.849  0.3319  0.2154 -0.5501
   50CHL1   H2A 3674   5.394   1.221   6.788  0.3113 -0.5046 -0.1177
   50CHL1   H2B 3675   5.292   1.371   6.850  2.3809  0.5853  0.5474
   50CHL1   C20 3676   5.327   1.169   7.798  0.2832  0.5275  0.6705
   50CHL1   H20 3677   5.263   1.253   7.834 -0.0616  0.0710  1.1290
   50CHL1   C21 3678   5.477   1.203   7.776  0.4582 -0.5567  0.0250
   50CHL1  H21A 3679   5.484   1.289   7.706 -0.2775 -0.9111 -0.4870
   50CHL1  H21B 3680   5.533   1.117   7.736 -1.6455 -2.7011  1.4248
   50CHL1  H21C 3681   5.536   1.229   7.867 -0.1472 -3.0217  1.2014
   50CHL1   C22 3682   5.317   1.062   7.907 -0.0646  0.3702 -0.5767
   50CHL1  H22A 3683   5.226   0.998   7.905  1.6539 -2.4297  1.5815
   50CHL1  H22B 3684   5.408   0.998   7.897  0.6334  1.3031 -0.3462
   50CHL1   C23 3685   5.323   1.120   8.047  0.0709 -0.2452 -0.7467
   50CHL1  H23A 3686   5.419   1.176   8.039 -0.2412  0.3246 -0.5476
   50CHL1  H23B 3687   5.237   1.184   8.076 -1.7595 -1.2088 -3.6673
   50CHL1   C24 3688   5.344   1.016   8.153  0.3438  0.5259 -0.2447
   50CHL1  H24A 3689   5.256   0.949   8.167  0.3590  0.8267  1.4722
   50CHL1  H24B 3690   5.430   0.951   8.125 -0.8077 -0.9854 -0.4710
   50CHL1   C25 3691   5.366   1.083   8.292  0.9420 -0.3077 -0.3305
   50CHL1   H25 3692   5.422   1.178   8.276  2.4949 -1.1626 -0.1343
   50CHL1   C26 3693   5.222   1.127   8.355  0.0655  0.4224  0.5870
   50CHL1  H26A 3694   5.166   1.192   8.284  1.2324  0.4014 -0.3749
   50CHL1  H26B 3695   5.157   1.037   8.368  0.9300 -0.6512 -1.9169
   50CHL1  H26C 3696   5.242   1.183   8.448 -0.6537  5.2701 -1.8784
   50CHL1   C27 3697   5.446   0.986   8.382  0.1126  0.2710 -0.3345
   50CHL1  H27A 3698   5.551   0.977   8.346 -0.0487  2.1838 -1.4086
   50CHL1  H27B 3699   5.429   1.007   8.489 -1.9365 -0.0254 -0.5688
   50CHL1  H27C 3700   5.408   0.881   8.376  0.5503  0.0847  0.0425
   51CHL1    C3 3701   4.557   1.005   7.140 -0.1613 -0.7415  0.6365
   51CHL1    H3 3702   4.666   0.992   7.119 -0.1255  0.5276 -0.0786
   51CHL1    O3 3703   4.490   0.989   7.012  0.4710  0.0769  0.0284
   51CHL1   H3' 3704   4.486   0.894   6.999 -1.7744  0.1507 -0.1566
   51CHL1    C4 3705   4.490   0.909   7.246 -0.1526  0.8982 -0.7946
   51CHL1   H4A 3706   4.386   0.947   7.251 -1.1918 -1.9166  1.1379
   51CHL1   H4B 3707   4.493   0.806   7.204 -0.0510 -0.1069  1.5450
   51CHL1    C5 3708   4.549   0.921   7.383 -1.1593 -0.7299 -0.8194
   51CHL1    C6 3709   4.591   0.814   7.448 -0.2685  0.0020 -1.0923
   51CHL1    H6 3710   4.579   0.715   7.400  1.1586 -1.5610  1.5159
   51CHL1    C7 3711   4.662   0.813   7.580 -0.1720 -0.0540 -0.0702
   51CHL1   H7A 3712   4.633   0.727   7.644 -0.5558 -0.2701 -0.5252
   51CHL1   H7B 3713   4.771   0.802   7.562  0.6449  1.8583  2.9787
   51CHL1    C8 3714   4.635   0.942   7.666 -0.3592  0.2017 -0.8230
   51CHL1    H8 3715   4.528   0.937   7.694  0.2392 -0.0100  1.5635
   51CHL1   C14 3716   4.724   0.958   7.787 -0.1412  0.4788  0.6921
   51CHL1   H14 3717   4.828   0.974   7.752  0.0979  0.7916  1.5393
   51CHL1   C15 3718   4.734   0.834   7.885 -0.3307 -0.0741 -0.0739
   51CHL1  H15A 3719   4.636   0.786   7.900 -0.5244  0.5863  0.8272
   51CHL1  H15B 3720   4.803   0.761   7.837  0.2763  0.0057  0.6597
   51CHL1   C16 3721   4.784   0.898   8.015 -0.0416 -0.1325  0.4439
   51CHL1  H16A 3722   4.704   0.871   8.088 -3.6985  0.2056 -3.0579
   51CHL1  H16B 3723   4.880   0.864   8.058 -0.8206 -0.7019  1.7983
   51CHL1   C17 3724   4.787   1.049   7.989  0.5912 -0.2595 -0.6239
   51CHL1   H17 3725   4.885   1.057   7.937  0.5632 -0.7284 -0.7530
   51CHL1   C13 3726   4.688   1.073   7.874 -0.2578  0.1424 -0.5184
   51CHL1   C18 3727   4.547   1.071   7.917 -0.3180  0.0661 -0.0212
   51CHL1  H18A 3728   4.476   1.049   7.835  1.0694 -1.8459 -0.7682
   51CHL1  H18B 3729   4.529   0.994   7.995  0.6931  1.0412  1.2266
   51CHL1  H18C 3730   4.523   1.172   7.957 -0.6456  0.4994 -1.2508
   51CHL1   C12 3731   4.707   1.205   7.793 -0.0933 -0.5790  0.2289
   51CHL1  H12A 3732   4.700   1.303   7.844  0.7283  0.2588 -1.1943
   51CHL1  H12B 3733   4.816   1.211   7.769 -0.0735  1.5650  0.6743
   51CHL1   C11 3734   4.618   1.203   7.664 -0.5895  0.2372  0.1331
   51CHL1  H11A 3735   4.519   1.220   7.711  0.5543 -1.5542  3.5560
   51CHL1  H11B 3736   4.645   1.284   7.592 -1.9234  0.6435  0.0609
   51CHL1    C9 3737   4.648   1.072   7.583  0.5192  0.5457  0.2367
   51CHL1    H9 3738   4.753   1.079   7.546  0.2057  0.7704 -0.6518
   51CHL1   C10 3739   4.557   1.061   7.453  0.5948 -0.0824 -0.1920
   51CHL1   C19 3740   4.412   1.090   7.507  0.0398  0.4128 -0.3659
   51CHL1  H19A 3741   4.394   1.042   7.605  1.1042 -1.8884 -1.2154
   51CHL1  H19B 3742   4.409   1.201   7.510  2.5998  0.6276 -2.1747
   51CHL1  H19C 3743   4.334   1.061   7.433  0.6274 -0.5088 -0.6426
   51CHL1    C1 3744   4.604   1.156   7.344 -0.5814 -0.2387  1.0064
   51CHL1   H1A 3745   4.613   1.260   7.381 -1.4121 -0.2084  1.1363
   51CHL1   H1B 3746   4.705   1.112   7.325 -0.3048  1.3639 -1.8464
   51CHL1    C2 3747   4.542   1.150   7.197  0.0812 -0.3961 -0.0742
   51CHL1   H2A 3748   4.599   1.213   7.126  0.9149 -0.0218  0.8892
   51CHL1   H2B 3749   4.442   1.195   7.216  1.7468  2.4409  3.1883
   51CHL1   C20 3750   4.779   1.150   8.113  0.0186  0.0232  0.4865
   51CHL1   H20 3751   4.731   1.241   8.071  0.2550  0.4552  1.1540
   51CHL1   C21 3752   4.927   1.179   8.148  0.3965  0.2585 -0.1633
   51CHL1  H21A 3753   4.928   1.265   8.219  1.0113 -0.3194  0.5387
   51CHL1  H21B 3754   4.985   1.209   8.058  1.9346 -1.0253  0.3645
   51CHL1  H21C 3755   4.984   1.096   8.195  0.5367  0.5457  0.1810
   51CHL1   C22 3756   4.695   1.098   8.233  0.0907 -0.1111 -0.9266
   51CHL1  H22A 3757   4.600   1.056   8.194  0.4002 -0.6377 -1.1296
   51CHL1  H22B 3758   4.756   1.013   8.269 -1.2181 -0.9818 -0.6699
   51CHL1   C23 3759   4.662   1.190   8.353  0.2204 -0.0293 -0.0844
   51CHL1  H23A 3760   4.750   1.254   8.377 -0.0854  0.1842  0.5019
   51CHL1  H23B 3761   4.575   1.255   8.327 -2.3443 -2.7563  1.1346
   51CHL1   C24 3762   4.630   1.110   8.475  0.3018 -0.2212 -0.4183
   51CHL1  H24A 3763   4.544   1.041   8.459  1.2809 -1.2527 -1.4871
   51CHL1  H24B 3764   4.721   1.054   8.506  1.4512  1.1284 -1.2044
   51CHL1   C25 3765   4.581   1.193   8.594  0.3267  0.4032 -0.2239
   51CHL1   H25 3766   4.658   1.267   8.625  1.8031 -0.5162 -1.5378
   51CHL1   C26 3767   4.447   1.262   8.567 -0.2838  0.5239 -0.8700
   51CHL1  H26A 3768   4.462   1.357   8.513 -0.8849  0.7786 -0.6012
   51CHL1  H26B 3769   4.374   1.206   8.504 -1.2626  0.8828 -0.0858
   51CHL1  H26C 3770   4.395   1.280   8.663  0.8916 -0.4636 -0.0221
   51CHL1   C27 3771   4.571   1.091   8.712 -0.8547 -0.6897  0.6981
   51CHL1  H27A 3772   4.675   1.063   8.737 -0.5854  1.1508  1.8276
   51CHL1  H27B 3773   4.530   1.144   8.801  0.2068  0.4352  0.5356
   51CHL1  H27C 3774   4.501   1.008   8.688 -1.6311 -0.5431  2.2753
   52CHL1    C3 3775   6.727   1.254   6.978 -0.8203  0.0498  0.0384
   52CHL1    H3 3776   6.820   1.193   6.985  0.1080  0.8885 -3.2443
   52CHL1    O3 3777   6.699   1.284   6.838 -0.1336 -0.6766  0.2426
   52CHL1   H3' 3778   6.614   1.326   6.831 -0.8251 -2.0900 -0.2811
   52CHL1    C4 3779   6.615   1.191   7.055  0.0904  0.0272  0.2942
   52CHL1   H4A 3780   6.516   1.239   7.038  0.6242  1.1391  0.2365
   52CHL1   H4B 3781   6.602   1.089   7.013  2.1035 -1.2361  2.4448
   52CHL1    C5 3782   6.640   1.180   7.203  0.6166 -0.1358  0.4310
   52CHL1    C6 3783   6.633   1.065   7.271 -0.4571 -0.0421  0.0177
   52CHL1    H6 3784   6.601   0.977   7.213  1.5687 -1.1160  0.4367
   52CHL1    C7 3785   6.644   1.046   7.416 -0.2284  0.1485 -0.9383
   52CHL1   H7A 3786   6.570   0.972   7.455  1.2650 -0.7711  0.2506
   52CHL1   H7B 3787   6.738   0.991   7.439  0.1811  1.8827  2.0340
   52CHL1    C8 3788   6.632   1.176   7.489  0.0357 -0.0990 -0.6424
   52CHL1    H8 3789   6.523   1.199   7.492 -0.3794 -1.9696 -0.0291
   52CHL1   C14 3790   6.691   1.164   7.628  0.4339 -0.7969 -0.2254
   52CHL1   H14 3791   6.798   1.148   7.605  0.1882 -1.6653 -0.8289
   52CHL1   C15 3792   6.643   1.048   7.719  1.0017 -0.6050 -0.0752
   52CHL1  H15A 3793   6.535   1.025   7.707  0.9697 -2.2673  2.6168
   52CHL1  H15B 3794   6.702   0.957   7.700  2.0788  0.2846 -1.1745
   52CHL1   C16 3795   6.672   1.091   7.865  0.0264  0.3242  0.0689
   52CHL1  H16A 3796   6.576   1.090   7.920  0.0448  0.5381  0.1078
   52CHL1  H16B 3797   6.742   1.025   7.921  1.2142  0.6862 -0.9550
   52CHL1   C17 3798   6.729   1.241   7.857 -0.6268 -0.6664 -0.8144
   52CHL1   H17 3799   6.838   1.226   7.845  0.0819  0.1235  3.2520
   52CHL1   C13 3800   6.684   1.294   7.719  0.0228 -0.4505 -0.3577
   52CHL1   C18 3801   6.543   1.361   7.737 -0.1434 -0.1201  1.0588
   52CHL1  H18A 3802   6.541   1.467   7.772 -1.1990  0.7231 -1.3102
   52CHL1  H18B 3803   6.504   1.360   7.633  0.0699  2.1179  0.9090
   52CHL1  H18C 3804   6.472   1.305   7.800  0.1690  0.0993  1.6099
   52CHL1   C12 3805   6.782   1.398   7.646  0.4360 -0.4144  0.2266
   52CHL1  H12A 3806   6.773   1.498   7.694 -0.7317  0.3663 -1.5075
   52CHL1  H12B 3807   6.888   1.367   7.660  0.6682  0.2452 -0.0395
   52CHL1   C11 3808   6.740   1.417   7.497  0.4829 -0.6823 -0.3655
   52CHL1  H11A 3809   6.648   1.479   7.498 -1.9224 -3.8793 -2.6695
   52CHL1  H11B 3810   6.817   1.474   7.441 -0.6301 -0.9064 -2.1974
   52CHL1    C9 3811   6.719   1.288   7.422  0.2009 -0.1984  0.4269
   52CHL1    H9 3812   6.822   1.250   7.408 -0.1060 -0.8252 -0.1562
   52CHL1   C10 3813   6.667   1.315   7.277  0.3538  0.4399 -0.0928
   52CHL1   C19 3814   6.532   1.391   7.285 -0.5987 -0.0397 -0.2470
   52CHL1  H19A 3815   6.491   1.402   7.183 -0.3444  0.2632 -0.3183
   52CHL1  H19B 3816   6.458   1.321   7.329 -0.5820 -0.2390 -0.5393
   52CHL1  H19C 3817   6.527   1.490   7.337 -0.3146  0.7476 -1.6544
   52CHL1    C1 3818   6.773   1.386   7.193 -0.5053  1.0412  0.4838
   52CHL1   H1A 3819   6.794   1.492   7.219  0.6022  1.3269 -1.4003
   52CHL1   H1B 3820   6.872   1.336   7.204 -0.1659  1.4752 -0.5469
   52CHL1    C2 3821   6.752   1.392   7.044  0.3881 -0.2974  0.3073
   52CHL1   H2A 3822   6.833   1.441   6.986  1.0035  0.3210  1.6418
   52CHL1   H2B 3823   6.666   1.461   7.028  2.3395  1.6861 -2.5946
   52CHL1   C20 3824   6.717   1.328   7.979 -0.8535 -0.4721  0.4797
   52CHL1   H20 3825   6.615   1.369   7.996  0.3117  2.3308  1.2290
   52CHL1   C21 3826   6.808   1.457   7.972 -0.2166  0.4365  0.0180
   52CHL1  H21A 3827   6.812   1.507   8.071  0.5513 -0.5955  0.5307
   52CHL1  H21B 3828   6.776   1.537   7.902 -1.4161  1.5638  1.7832
   52CHL1  H21C 3829   6.916   1.438   7.959  0.5052  2.3469  2.3967
   52CHL1   C22 3830   6.754   1.250   8.110 -0.5396 -0.7029  0.7947
   52CHL1  H22A 3831   6.683   1.164   8.114 -0.3531 -0.8589  0.7304
   52CHL1  H22B 3832   6.854   1.203   8.104 -1.4615 -2.6404 -0.8203
   52CHL1   C23 3833   6.737   1.347   8.228 -0.0765 -0.0085  0.1201
   52CHL1  H23A 3834   6.833   1.402   8.241 -0.5202  0.7490  0.2767
   52CHL1  H23B 3835   6.658   1.420   8.200  0.9629 -0.0383 -3.4285
   52CHL1   C24 3836   6.685   1.275   8.356 -0.2556 -0.1638  0.2211
   52CHL1  H24A 3837   6.585   1.227   8.354 -1.3653  2.0538 -0.4492
   52CHL1  H24B 3838   6.751   1.185   8.346  0.2616 -0.0641  2.3849
   52CHL1   C25 3839   6.708   1.354   8.482  0.5338 -0.1062 -0.3951
   52CHL1   H25 3840   6.813   1.391   8.478  1.1876 -1.4259  2.3700
   52CHL1   C26 3841   6.615   1.477   8.488 -0.9810  0.8048 -0.1974
   52CHL1  H26A 3842   6.628   1.550   8.570 -1.6798  0.8181 -0.0941
   52CHL1  H26B 3843   6.637   1.540   8.399  1.3078  1.1452  0.5448
   52CHL1  H26C 3844   6.506   1.457   8.480 -0.5413 -1.3089 -2.2030
   52CHL1   C27 3845   6.702   1.270   8.610  0.0907  0.1494  0.0344
   52CHL1  H27A 3846   6.792   1.205   8.616 -0.9268 -1.2668  0.4932
   52CHL1  H27B 3847   6.720   1.335   8.698  1.5451 -0.2775  0.0819
   52CHL1  H27C 3848   6.611   1.209   8.629 -0.8876  1.1818 -1.2002
   53CHL1    C3 3849   2.458   4.627   7.057  0.4456 -0.1506 -0.2521
   53CHL1    H3 3850   2.411   4.527   7.062 -0.4484  0.1926 -1.3535
   53CHL1    O3 3851   2.505   4.669   6.931  0.3569 -0.3692 -0.1086
   53CHL1   H3' 3852   2.562   4.746   6.938 -0.8254  0.7723 -2.0841
   53CHL1    C4 3853   2.357   4.738   7.105  0.4142 -0.0025  0.6776
   53CHL1   H4A 3854   2.407   4.836   7.091  0.3146  0.2164  1.7977
   53CHL1   H4B 3855   2.278   4.743   7.027 -0.0108  2.0333  1.1754
   53CHL1    C5 3856   2.303   4.721   7.252 -0.8550  0.7326  1.3053
   53CHL1    C6 3857   2.171   4.697   7.278  0.1788  0.0703  0.6146
   53CHL1    H6 3858   2.102   4.692   7.192  1.2743  2.7169 -0.5364
   53CHL1    C7 3859   2.124   4.664   7.417  0.3367 -0.1413  0.5134
   53CHL1   H7A 3860   2.025   4.712   7.431  0.7319  1.4496 -1.6248
   53CHL1   H7B 3861   2.111   4.554   7.415 -0.0243 -0.1053 -1.8265
   53CHL1    C8 3862   2.236   4.713   7.521 -0.0061  0.4642 -0.1330
   53CHL1    H8 3863   2.235   4.824   7.518  0.2749  0.5277  1.4827
   53CHL1   C14 3864   2.200   4.673   7.660 -0.0981 -0.1449 -0.1289
   53CHL1   H14 3865   2.199   4.562   7.658 -1.3043 -0.1928  1.4190
   53CHL1   C15 3866   2.069   4.723   7.713 -0.6054  0.0075  0.0923
   53CHL1  H15A 3867   2.056   4.831   7.689 -1.9641 -0.3066 -0.7022
   53CHL1  H15B 3868   1.981   4.675   7.664 -0.0325  0.0963 -1.0534
   53CHL1   C16 3869   2.085   4.690   7.867 -0.4277  0.5671  0.4911
   53CHL1  H16A 3870   2.061   4.784   7.922  1.2152  1.0487  0.4239
   53CHL1  H16B 3871   2.018   4.611   7.907  1.0466 -1.3247 -0.6201
   53CHL1   C17 3872   2.235   4.660   7.895  0.2542 -0.1077 -0.2407
   53CHL1   H17 3873   2.242   4.549   7.888  1.6322  0.0022 -0.8714
   53CHL1   C13 3874   2.307   4.710   7.770 -0.6698  0.3657  0.4750
   53CHL1   C18 3875   2.324   4.866   7.774  0.3304 -0.4275 -1.0250
   53CHL1  H18A 3876   2.398   4.887   7.855  0.2287 -0.2821 -0.9672
   53CHL1  H18B 3877   2.352   4.908   7.675  1.2540  2.7219  0.4162
   53CHL1  H18C 3878   2.230   4.915   7.809 -0.3371 -1.0134 -1.9670
   53CHL1   C12 3879   2.438   4.639   7.735  0.3535  0.0397 -0.3675
   53CHL1  H12A 3880   2.517   4.669   7.806  0.0295 -0.1704  0.0867
   53CHL1  H12B 3881   2.452   4.529   7.727  0.4364 -0.0771  1.0861
   53CHL1   C11 3882   2.479   4.681   7.596 -0.1763 -0.2317 -0.1308
   53CHL1  H11A 3883   2.509   4.787   7.612 -0.9452 -0.0690  0.2622
   53CHL1  H11B 3884   2.567   4.615   7.576 -0.0435 -0.0049 -0.2909
   53CHL1    C9 3885   2.373   4.656   7.487 -0.1539 -0.2141 -0.1814
   53CHL1    H9 3886   2.359   4.546   7.481 -1.8045 -0.0511  0.2051
   53CHL1   C10 3887   2.422   4.703   7.344 -0.0589  0.0885 -0.9138
   53CHL1   C19 3888   2.500   4.839   7.358  0.4435  0.1558 -0.0861
   53CHL1  H19A 3889   2.429   4.911   7.405  0.8908  0.4131  0.2000
   53CHL1  H19B 3890   2.591   4.827   7.421  0.9202 -2.0843 -1.0915
   53CHL1  H19C 3891   2.537   4.877   7.260  5.3798 -0.7005  1.1647
   53CHL1    C1 3892   2.517   4.594   7.291  0.0795  1.0777  0.4159
   53CHL1   H1A 3893   2.599   4.580   7.365 -0.6245 -0.2300  0.9793
   53CHL1   H1B 3894   2.464   4.497   7.300  0.8908  0.7919  3.0756
   53CHL1    C2 3895   2.574   4.628   7.151  0.0263  0.6841  0.1132
   53CHL1   H2A 3896   2.662   4.569   7.119 -0.3108 -0.4689  1.2395
   53CHL1   H2B 3897   2.620   4.729   7.154 -0.5428  1.0080 -1.1001
   53CHL1   C20 3898   2.292   4.692   8.034 -0.0628 -0.8218  0.4876
   53CHL1   H20 3899   2.402   4.696   8.025 -0.1528  0.6082 -0.2445
   53CHL1   C21 3900   2.239   4.587   8.119  0.2886  0.1756 -0.7035
   53CHL1  H21A 3901   2.135   4.606   8.156  0.4770 -0.1735  0.0141
   53CHL1  H21B 3902   2.306   4.573   8.206 -2.1982 -1.0410  1.1353
   53CHL1  H21C 3903   2.221   4.486   8.077 -0.8362 -0.1627  0.5099
   53CHL1   C22 3904   2.254   4.829   8.101 -0.7074 -0.0958  0.0444
   53CHL1  H22A 3905   2.250   4.915   8.031  0.1399  0.3145  0.4868
   53CHL1  H22B 3906   2.147   4.818   8.132 -0.4937  0.9228  1.2080
   53CHL1   C23 3907   2.354   4.873   8.215 -0.6561 -1.0369  0.4518
   53CHL1  H23A 3908   2.342   4.789   8.286 -1.4776 -2.3857 -1.2039
   53CHL1  H23B 3909   2.456   4.871   8.170 -0.1861 -1.3299  1.5001
   53CHL1   C24 3910   2.320   5.015   8.277  0.1384  0.0069  0.1153
   53CHL1  H24A 3911   2.334   5.092   8.199  2.2650 -1.0292 -0.6036
   53CHL1  H24B 3912   2.215   5.002   8.311  0.6564 -0.3972  1.6505
   53CHL1   C25 3913   2.404   5.036   8.402 -0.0565  0.5116  0.3147
   53CHL1   H25 3914   2.502   4.987   8.388  0.4018  1.2925  0.7422
   53CHL1   C26 3915   2.415   5.185   8.430 -0.1125 -0.5199  0.6486
   53CHL1  H26A 3916   2.474   5.205   8.522  0.8497 -0.2762 -0.0061
   53CHL1  H26B 3917   2.473   5.231   8.347  0.7081 -0.7590  1.0745
   53CHL1  H26C 3918   2.315   5.233   8.426 -0.6891 -1.7093 -2.8163
   53CHL1   C27 3919   2.335   4.973   8.523  0.3398 -0.0617  0.3377
   53CHL1  H27A 3920   2.421   4.942   8.587 -1.0724 -1.4744  1.6108
   53CHL1  H27B 3921   2.273   5.035   8.591  0.2726 -1.2011  1.3472
   53CHL1  H27C 3922   2.286   4.881   8.485 -1.8839  0.6926  1.2740
   54CHL1    C3 3923   2.634   0.661   6.966 -0.7422  0.0913  0.7570
   54CHL1    H3 3924   2.536   0.713   6.958 -0.6592  0.1982  0.3987
   54CHL1    O3 3925   2.666   0.620   6.836  0.8189 -0.0128  0.4758
   54CHL1   H3' 3926   2.690   0.699   6.786 -2.7261  1.2663  0.5327
   54CHL1    C4 3927   2.743   0.754   7.006 -0.6849  0.4807  0.0066
   54CHL1   H4A 3928   2.833   0.690   6.995 -2.4902 -1.9811 -1.5425
   54CHL1   H4B 3929   2.737   0.842   6.939 -1.6528  0.6963  0.3687
   54CHL1    C5 3930   2.737   0.791   7.153 -0.7164  0.1137 -0.0487
   54CHL1    C6 3931   2.730   0.924   7.184 -0.1897  0.0463 -0.8214
   54CHL1    H6 3932   2.723   1.002   7.107 -1.4638  1.7800  0.9439
   54CHL1    C7 3933   2.736   0.963   7.333  0.1225 -0.4003 -0.3942
   54CHL1   H7A 3934   2.816   1.034   7.364 -1.1586  0.7181  0.4961
   54CHL1   H7B 3935   2.637   1.005   7.361 -1.3351 -0.6213 -4.5946
   54CHL1    C8 3936   2.772   0.846   7.430  0.4259 -0.4715 -0.1164
   54CHL1    H8 3937   2.880   0.827   7.411 -0.1108 -2.2923 -1.6543
   54CHL1   C14 3938   2.740   0.889   7.569  0.2829  0.1653  0.2239
   54CHL1   H14 3939   2.632   0.914   7.574  0.4532  0.8547  0.5394
   54CHL1   C15 3940   2.807   1.011   7.627  0.6469 -0.2862  0.0728
   54CHL1  H15A 3941   2.916   1.028   7.622  0.3598  1.6315 -0.2315
   54CHL1  H15B 3942   2.766   1.102   7.578  0.4019  0.2255  1.1974
   54CHL1   C16 3943   2.765   1.018   7.774  0.0601 -0.6687 -0.2544
   54CHL1  H16A 3944   2.845   1.056   7.840 -0.5926 -1.2135  0.8873
   54CHL1  H16B 3945   2.679   1.089   7.774 -0.5891 -1.3544  2.3715
   54CHL1   C17 3946   2.704   0.872   7.798  0.0837 -0.4906  0.2915
   54CHL1   H17 3947   2.595   0.887   7.786  0.1441 -0.9751 -1.0153
   54CHL1   C13 3948   2.734   0.783   7.678  0.1820  0.2351 -0.5702
   54CHL1   C18 3949   2.879   0.726   7.698  0.3215  0.1479  0.5625
   54CHL1  H18A 3950   2.886   0.639   7.768  3.5414 -0.5073 -0.4392
   54CHL1  H18B 3951   2.923   0.702   7.600 -0.6543  1.9782 -0.3716
   54CHL1  H18C 3952   2.945   0.796   7.753  1.4598 -0.7344  0.3659
   54CHL1   C12 3953   2.627   0.678   7.639 -0.6680  0.2118 -0.0063
   54CHL1  H12A 3954   2.627   0.595   7.712 -0.3010 -0.4455 -0.7404
   54CHL1  H12B 3955   2.526   0.724   7.637  0.7306  3.5662 -0.8041
   54CHL1   C11 3956   2.666   0.616   7.501 -0.3158  0.6172 -1.2384
   54CHL1  H11A 3957   2.764   0.566   7.514 -0.6493 -0.3879 -2.4394
   54CHL1  H11B 3958   2.594   0.535   7.479  0.1139 -0.8429  2.1494
   54CHL1    C9 3959   2.686   0.725   7.395 -0.0784 -0.3225  0.0320
   54CHL1    H9 3960   2.581   0.760   7.385 -0.8869 -2.6462 -0.0840
   54CHL1   C10 3961   2.731   0.672   7.253 -0.6127 -0.1569 -0.3290
   54CHL1   C19 3962   2.867   0.600   7.260  0.1358 -0.4405  0.1761
   54CHL1  H19A 3963   2.947   0.674   7.279 -1.4473  1.1702  0.9291
   54CHL1  H19B 3964   2.880   0.544   7.354  0.6310  1.2167  1.1417
   54CHL1  H19C 3965   2.893   0.551   7.164  3.1984 -1.0321  1.1966
   54CHL1    C1 3966   2.614   0.578   7.199  0.1932  0.0047 -0.3607
   54CHL1   H1A 3967   2.616   0.485   7.258  1.2538 -0.3212 -0.8802
   54CHL1   H1B 3968   2.517   0.630   7.216  1.4185  2.1122  0.6774
   54CHL1    C2 3969   2.616   0.542   7.055 -0.7180  0.4481 -0.2136
   54CHL1   H2A 3970   2.516   0.500   7.029 -1.3975  2.3512 -0.7771
   54CHL1   H2B 3971   2.689   0.459   7.045 -1.5762 -0.3773  0.1570
   54CHL1   C20 3972   2.731   0.825   7.939  0.5709 -0.1230  0.0526
   54CHL1   H20 3973   2.836   0.790   7.944  0.7476  0.3787 -0.1396
   54CHL1   C21 3974   2.636   0.710   7.969  0.5965  0.3045 -0.5497
   54CHL1  H21A 3975   2.643   0.625   7.898  0.8404 -1.0647  1.0648
   54CHL1  H21B 3976   2.528   0.732   7.984  0.1664 -2.2798  0.6450
   54CHL1  H21C 3977   2.670   0.652   8.057 -3.4288 -2.2184 -0.4172
   54CHL1   C22 3978   2.716   0.936   8.056  0.5041  0.3527 -0.2034
   54CHL1  H22A 3979   2.780   1.025   8.039  1.1649  0.0305  0.5071
   54CHL1  H22B 3980   2.610   0.967   8.046  0.6436  0.1857 -3.4759
   54CHL1   C23 3981   2.751   0.887   8.195  0.4267 -0.6097 -0.3715
   54CHL1  H23A 3982   2.665   0.822   8.220 -1.0742 -0.0992 -3.6442
   54CHL1  H23B 3983   2.846   0.830   8.182  2.1718  2.3065 -1.5197
   54CHL1   C24 3984   2.754   1.002   8.298  0.5241  0.0449  0.6083
   54CHL1  H24A 3985   2.828   1.083   8.279  0.1075  0.8758  2.3375
   54CHL1  H24B 3986   2.658   1.058   8.298 -0.1223 -0.8671 -2.4570
   54CHL1   C25 3987   2.775   0.951   8.436 -0.4319 -0.1321 -0.2105
   54CHL1   H25 3988   2.730   0.852   8.459  0.8401 -0.4413  1.0916
   54CHL1   C26 3989   2.922   0.922   8.456  0.1640  0.0985  0.6816
   54CHL1  H26A 3990   2.938   0.842   8.380 -0.4914  0.2227  0.4052
   54CHL1  H26B 3991   2.983   1.013   8.439  0.6250  0.1094  2.2559
   54CHL1  H26C 3992   2.951   0.880   8.555  0.7152  1.4773  1.1231
   54CHL1   C27 3993   2.737   1.060   8.537  0.1192 -0.3302  0.1345
   54CHL1  H27A 3994   2.763   1.027   8.640  3.5137 -1.1379 -0.8646
   54CHL1  H27B 3995   2.818   1.136   8.532  2.3324 -2.5580  0.0072
   54CHL1  H27C 3996   2.633   1.098   8.546  0.9702  1.9746  1.1166
   55CHL1    C3 3997   2.128   1.880   7.175  0.3981 -0.0949  0.3099
   55CHL1    H3 3998   2.034   1.940   7.176 -1.5613 -2.9485 -0.0940
   55CHL1    O3 3999   2.181   1.861   7.042 -0.1404 -0.3187  0.7990
   55CHL1   H3' 4000   2.118   1.815   6.986  1.1640 -0.8129 -0.2956
   55CHL1    C4 4001   2.236   1.948   7.258  0.6230  0.6249  0.1189
   55CHL1   H4A 4002   2.338   1.906   7.244  0.4857 -0.1214  1.3022
   55CHL1   H4B 4003   2.233   2.053   7.221 -0.9190  0.5741  0.0484
   55CHL1    C5 4004   2.213   1.958   7.403 -0.1902 -0.1002 -0.1874
   55CHL1    C6 4005   2.202   2.081   7.460 -0.4398  0.6757 -0.0143
   55CHL1    H6 4006   2.209   2.173   7.400 -1.1255  2.0049  1.8185
   55CHL1    C7 4007   2.197   2.100   7.609 -0.3285 -0.7637 -0.4956
   55CHL1   H7A 4008   2.285   2.160   7.643 -0.5048  0.4189 -2.0167
   55CHL1   H7B 4009   2.111   2.165   7.636  0.2026 -0.7928  1.4334
   55CHL1    C8 4010   2.194   1.967   7.690  0.5516 -0.4993  0.1650
   55CHL1    H8 4011   2.295   1.921   7.697  1.1512  0.4430 -1.6574
   55CHL1   C14 4012   2.130   1.987   7.826  0.5761 -0.0144 -0.3472
   55CHL1   H14 4013   2.029   2.030   7.811 -0.1607 -0.8139  1.8932
   55CHL1   C15 4014   2.192   2.098   7.914 -0.2257  0.1747 -0.2194
   55CHL1  H15A 4015   2.298   2.066   7.913 -0.7794 -1.9753  1.5459
   55CHL1  H15B 4016   2.178   2.200   7.873 -1.0824  0.6804  1.2748
   55CHL1   C16 4017   2.128   2.069   8.051  0.8841 -0.0323 -0.2515
   55CHL1  H16A 4018   2.215   2.063   8.120 -0.1410  0.4409  1.1102
   55CHL1  H16B 4019   2.063   2.152   8.086  1.2108  0.5815 -1.0477
   55CHL1   C17 4020   2.046   1.933   8.039 -0.8970  0.8422 -0.5411
   55CHL1   H17 4021   1.942   1.963   8.014 -3.3673 -2.1035  4.5963
   55CHL1   C13 4022   2.107   1.862   7.914  0.0832 -0.0688 -0.6692
   55CHL1   C18 4023   2.245   1.797   7.938  0.6812  0.1488 -0.2464
   55CHL1  H18A 4024   2.307   1.768   7.851  0.8822 -0.4481  0.0920
   55CHL1  H18B 4025   2.305   1.863   8.004 -0.9830  0.3055  1.1937
   55CHL1  H18C 4026   2.220   1.707   7.999  0.7232  1.2183  1.4344
   55CHL1   C12 4027   2.007   1.771   7.838  0.3918  0.3552 -0.2852
   55CHL1  H12A 4028   1.991   1.680   7.900 -1.9032  2.7071  2.8980
   55CHL1  H12B 4029   1.905   1.816   7.835  0.9916  1.7278 -0.5004
   55CHL1   C11 4030   2.077   1.740   7.706 -0.0906 -0.0795 -0.0460
   55CHL1  H11A 4031   2.163   1.678   7.737  0.6147  1.5214  1.3899
   55CHL1  H11B 4032   2.007   1.670   7.654  0.4110  0.7399 -1.9064
   55CHL1    C9 4033   2.115   1.860   7.618  0.6428 -0.5450  0.1075
   55CHL1    H9 4034   2.017   1.904   7.592 -0.6722 -1.9682  2.4007
   55CHL1   C10 4035   2.178   1.827   7.481 -0.5819 -0.7745 -0.3958
   55CHL1   C19 4036   2.299   1.727   7.502  0.5326  0.2548  0.1184
   55CHL1  H19A 4037   2.353   1.763   7.592  1.5684 -0.5328 -0.1771
   55CHL1  H19B 4038   2.268   1.621   7.510  2.2614 -0.3374 -0.6473
   55CHL1  H19C 4039   2.361   1.736   7.411  1.1392  1.2078  0.6018
   55CHL1    C1 4040   2.070   1.761   7.386  0.1307  0.5060 -0.0601
   55CHL1   H1A 4041   2.032   1.665   7.427  1.7184 -1.3362 -2.6705
   55CHL1   H1B 4042   1.978   1.824   7.382 -0.1820 -0.0143 -1.3718
   55CHL1    C2 4043   2.100   1.740   7.234 -0.3732 -0.3864  1.2372
   55CHL1   H2A 4044   2.008   1.688   7.199  0.5627 -3.5311  2.9919
   55CHL1   H2B 4045   2.191   1.678   7.220  0.9600  1.8455 -0.5109
   55CHL1   C20 4046   2.034   1.855   8.174 -0.0323 -0.0754  0.4166
   55CHL1   H20 4047   2.134   1.813   8.196  0.5776 -0.0923 -2.0852
   55CHL1   C21 4048   1.935   1.737   8.165 -0.2288  0.2029 -0.3518
   55CHL1  H21A 4049   1.930   1.690   8.265 -0.8902  1.3550  0.1827
   55CHL1  H21B 4050   1.955   1.659   8.089  1.9523  0.5056 -0.1754
   55CHL1  H21C 4051   1.837   1.787   8.155 -0.1938  0.9344  2.2196
   55CHL1   C22 4052   2.002   1.947   8.290  0.1684  0.0215  1.1118
   55CHL1  H22A 4053   2.027   1.892   8.383 -2.2619 -1.4450  0.9837
   55CHL1  H22B 4054   2.075   2.031   8.284 -0.2732  0.3216 -1.0228
   55CHL1   C23 4055   1.863   2.007   8.297  0.2985 -0.4205 -0.4885
   55CHL1  H23A 4056   1.838   2.048   8.197  1.5921  1.8416  0.0583
   55CHL1  H23B 4057   1.781   1.932   8.303 -0.9295  0.8851 -0.4611
   55CHL1   C24 4058   1.840   2.097   8.412 -0.7730  0.0473 -0.1600
   55CHL1  H24A 4059   1.877   2.045   8.503  1.5939  2.7629  0.5779
   55CHL1  H24B 4060   1.890   2.195   8.395 -2.5045  0.8559 -0.7930
   55CHL1   C25 4061   1.689   2.131   8.452  0.1353  0.1683  1.0279
   55CHL1   H25 4062   1.630   2.121   8.358  1.0798 -2.4169  0.6432
   55CHL1   C26 4063   1.637   2.039   8.563  0.6002  0.6887  0.0237
   55CHL1  H26A 4064   1.534   2.076   8.585 -0.3810  0.9582 -4.2028
   55CHL1  H26B 4065   1.626   1.933   8.535  0.7772  1.1765 -2.0522
   55CHL1  H26C 4066   1.694   2.053   8.657  2.4766 -0.4349 -0.8868
   55CHL1   C27 4067   1.674   2.278   8.493 -0.6001 -0.2676  0.1068
   55CHL1  H27A 4068   1.691   2.340   8.403 -0.2955 -0.1280  0.2622
   55CHL1  H27B 4069   1.570   2.306   8.519 -1.0551 -2.4932  0.9817
   55CHL1  H27C 4070   1.745   2.313   8.571  2.1118  0.9360 -2.7205
   56CHL1    C3 4071   2.581   0.007   6.919 -1.0949 -0.2356 -0.1384
   56CHL1    H3 4072   2.551   0.113   6.910 -2.4150 -0.5811 -0.0718
   56CHL1    O3 4073   2.580  -0.051   6.791  0.2483 -0.5227 -0.1243
   56CHL1   H3' 4074   2.495  -0.095   6.797 -0.1369  0.3593  1.3641
   56CHL1    C4 4075   2.722   0.009   6.981  0.5313  0.5070  0.2742
   56CHL1   H4A 4076   2.745  -0.098   6.997  0.4755  0.1707 -1.5826
   56CHL1   H4B 4077   2.784   0.053   6.900  0.2620 -0.0624 -0.2580
   56CHL1    C5 4078   2.730   0.067   7.121  0.4988  0.3332  0.3806
   56CHL1    C6 4079   2.817   0.161   7.155  0.6761  0.9032 -0.3801
   56CHL1    H6 4080   2.891   0.197   7.081  0.5310  0.0445 -0.9536
   56CHL1    C7 4081   2.835   0.213   7.288  0.2012 -0.2117 -0.2379
   56CHL1   H7A 4082   2.943   0.209   7.314  0.0924 -1.7176  0.0763
   56CHL1   H7B 4083   2.802   0.318   7.276  0.0618 -0.3011 -0.6482
   56CHL1    C8 4084   2.764   0.131   7.400 -0.7007 -0.0609  0.4117
   56CHL1    H8 4085   2.827   0.040   7.408 -0.7475 -0.2093 -0.7523
   56CHL1   C14 4086   2.765   0.213   7.532  0.7603 -0.0694  0.1248
   56CHL1   H14 4087   2.694   0.297   7.513 -0.3528 -0.9438  0.3248
   56CHL1   C15 4088   2.890   0.276   7.588  0.4394  0.5338 -0.1725
   56CHL1  H15A 4089   2.973   0.203   7.574  0.3982  0.8224 -2.2996
   56CHL1  H15B 4090   2.920   0.368   7.533 -0.9234 -0.6363 -3.0343
   56CHL1   C16 4091   2.861   0.308   7.737  0.1310  0.0937 -1.1796
   56CHL1  H16A 4092   2.932   0.258   7.806 -0.7356 -0.4109 -0.6322
   56CHL1  H16B 4093   2.856   0.417   7.755 -0.6309 -0.4034  2.1183
   56CHL1   C17 4094   2.717   0.254   7.765  0.1695 -1.2074  0.7641
   56CHL1   H17 4095   2.656   0.346   7.752  1.3096 -0.0442  3.0600
   56CHL1   C13 4096   2.687   0.144   7.649  0.2375 -0.3559  0.3558
   56CHL1   C18 4097   2.757   0.013   7.689  0.3501  0.3657 -0.4239
   56CHL1  H18A 4098   2.773  -0.059   7.605 -0.5931 -0.6478  0.2404
   56CHL1  H18B 4099   2.850   0.024   7.748 -0.1363 -2.9208  1.1530
   56CHL1  H18C 4100   2.691  -0.035   7.764 -0.0937  0.9241 -0.4451
   56CHL1   C12 4101   2.543   0.130   7.594 -0.3211 -0.4903 -0.2291
   56CHL1  H12A 4102   2.463   0.095   7.662 -0.7860  0.0798 -0.4754
   56CHL1  H12B 4103   2.509   0.231   7.564 -3.2874 -0.7689  1.8425
   56CHL1   C11 4104   2.538   0.049   7.464 -0.0489  0.6539 -0.0041
   56CHL1  H11A 4105   2.579  -0.052   7.487 -2.1817 -0.4815 -0.9099
   56CHL1  H11B 4106   2.433   0.032   7.431  0.1697 -0.5324 -0.1289
   56CHL1    C9 4107   2.624   0.100   7.351 -0.9524  0.0458  0.0571
   56CHL1    H9 4108   2.588   0.196   7.307  0.9101  1.0828  0.6878
   56CHL1   C10 4109   2.627   0.012   7.219  0.7454 -0.2303  0.3559
   56CHL1   C19 4110   2.664  -0.134   7.258  0.3850 -0.0004 -0.5189
   56CHL1  H19A 4111   2.566  -0.179   7.283 -0.4912  1.3638 -1.3778
   56CHL1  H19B 4112   2.690  -0.196   7.170 -3.0478 -1.0569 -0.9540
   56CHL1  H19C 4113   2.738  -0.139   7.341 -0.7224 -0.8757  0.4529
   56CHL1    C1 4114   2.486   0.012   7.145  0.4934 -0.0309  0.4575
   56CHL1   H1A 4115   2.403  -0.031   7.205 -1.5402  0.8677 -1.5855
   56CHL1   H1B 4116   2.460   0.119   7.138 -0.0051 -0.1137  0.9752
   56CHL1    C2 4117   2.488  -0.060   7.011  0.5561 -0.2138 -0.0793
   56CHL1   H2A 4118   2.388  -0.060   6.963  0.8373  0.9103 -0.6930
   56CHL1   H2B 4119   2.522  -0.163   7.034 -0.6545 -0.1632  2.2022
   56CHL1   C20 4120   2.687   0.220   7.904 -0.6189 -0.4506  0.1577
   56CHL1   H20 4121   2.728   0.118   7.919 -1.3047 -0.9884 -1.3795
   56CHL1   C21 4122   2.535   0.216   7.930  0.3774  0.5046  0.4419
   56CHL1  H21A 4123   2.485   0.142   7.864  1.4814 -0.0454  0.1980
   56CHL1  H21B 4124   2.496   0.319   7.918  0.1174  0.6578  2.3497
   56CHL1  H21C 4125   2.513   0.189   8.036 -1.7354  1.2148  0.2328
   56CHL1   C22 4126   2.763   0.313   8.006  0.1020 -0.6430  0.5166
   56CHL1  H22A 4127   2.868   0.278   8.008  0.2677 -0.2057 -0.2376
   56CHL1  H22B 4128   2.761   0.423   7.990  2.7827 -0.4303  1.1896
   56CHL1   C23 4129   2.715   0.308   8.151  0.0702  0.2904 -0.1826
   56CHL1  H23A 4130   2.609   0.334   8.172  1.2010  2.5396  3.5499
   56CHL1  H23B 4131   2.729   0.199   8.172 -0.8272  0.3358  0.7352
   56CHL1   C24 4132   2.812   0.378   8.248  0.5477 -0.4244 -0.1057
   56CHL1  H24A 4133   2.916   0.381   8.209  0.9214  0.7192  0.8968
   56CHL1  H24B 4134   2.769   0.480   8.262  0.1573 -0.6137  0.0813
   56CHL1   C25 4135   2.814   0.318   8.388  0.5377  0.1914 -0.0503
   56CHL1   H25 4136   2.865   0.219   8.388  1.9705  0.7921 -3.2034
   56CHL1   C26 4137   2.902   0.412   8.476 -0.0548  0.3714  0.0428
   56CHL1  H26A 4138   2.849   0.507   8.498  1.1394  0.4825  2.8113
   56CHL1  H26B 4139   2.993   0.441   8.418  0.6733 -0.8930  0.5140
   56CHL1  H26C 4140   2.941   0.355   8.563 -0.2696 -1.1017 -0.7945
   56CHL1   C27 4141   2.677   0.312   8.445  0.6496  0.0720 -0.2381
   56CHL1  H27A 4142   2.678   0.270   8.548 -0.9009 -0.7749 -0.5329
   56CHL1  H27B 4143   2.623   0.410   8.447  0.3737 -0.0779 -0.2258
   56CHL1  H27C 4144   2.608   0.246   8.388  1.8016 -1.8882  0.5492
   57SAPC     N 4145   2.603   0.576  10.910 -0.8171 -0.2491 -0.4100
   57SAPC   C12 4146   2.705   0.666  10.845 -0.0303  0.0773  0.3946
   57SAPC  H12A 4147   2.780   0.696  10.916 -0.5507  2.2839  0.0894
   57SAPC  H12B 4148   2.659   0.754  10.801  0.3264 -0.9380 -2.1927
   57SAPC   C13 4149   2.528   0.657  11.009  0.4600 -0.5126 -0.1707
   57SAPC  H13A 4150   2.479   0.745  10.969  0.2815  0.3484  1.8332
   57SAPC  H13B 4151   2.456   0.595  11.059  0.7000  0.2180  1.1292
   57SAPC  H13C 4152   2.594   0.694  11.086 -1.6222  1.2736  0.8823
   57SAPC   C14 4153   2.502   0.522  10.816  0.2941 -0.0574 -0.6055
   57SAPC  H14A 4154   2.559   0.448  10.761  1.4161  0.8620 -0.7269
   57SAPC  H14B 4155   2.427   0.471  10.874 -0.0054 -0.8660 -1.6732
   57SAPC  H14C 4156   2.443   0.585  10.750  0.1279 -1.6878 -2.0925
   57SAPC   C15 4157   2.669   0.468  10.983 -0.2402 -0.0198  0.4894
   57SAPC  H15A 4158   2.750   0.427  10.924  1.0076  1.0648  1.4038
   57SAPC  H15B 4159   2.712   0.507  11.074  0.2213  1.0747 -0.1752
   57SAPC  H15C 4160   2.604   0.387  11.011 -0.5802  0.5374  1.3180
   57SAPC   C11 4161   2.788   0.595  10.734 -0.3532  0.1980 -0.4119
   57SAPC  H11A 4162   2.837   0.684  10.690  0.5705 -0.2178 -0.2587
   57SAPC  H11B 4163   2.714   0.548  10.666  0.2499 -1.1770 -0.1606
   57SAPC     P 4164   2.968   0.429  10.679 -0.1387  0.3343  0.3412
   57SAPC   O13 4165   3.070   0.514  10.613 -0.4694 -0.7135  0.2368
   57SAPC   O14 4166   3.013   0.305  10.743  0.3135  0.2587 -0.0041
   57SAPC   O12 4167   2.886   0.510  10.780 -0.0895  0.5548 -0.1086
   57SAPC   O11 4168   2.858   0.390  10.570 -0.5274 -0.1077 -0.3290
   57SAPC    C1 4169   2.899   0.325  10.448 -0.0770 -0.0772 -0.2268
   57SAPC    HA 4170   2.995   0.275  10.473 -0.4024  0.9336  3.8000
   57SAPC    HB 4171   2.822   0.247  10.427  0.3833 -1.1423  1.7861
   57SAPC    C2 4172   2.898   0.422  10.329 -0.6170 -0.6412  0.1558
   57SAPC    HS 4173   2.894   0.362  10.235  0.0398  1.8266 -1.5594
   57SAPC   O21 4174   3.027   0.494  10.330 -0.5528  0.1706 -0.2209
   57SAPC   C21 4175   3.125   0.421  10.271 -0.2030 -0.5390  0.3371
   57SAPC   O22 4176   3.111   0.307  10.236 -0.4114 -0.5241 -0.9191
   57SAPC   C22 4177   3.257   0.506  10.257  1.0994  0.1166 -0.0106
   57SAPC   H2R 4178   3.269   0.589  10.330  1.3412 -0.2028  0.3204
   57SAPC   H2S 4179   3.344   0.442  10.283  1.1611 -0.1978 -0.9503
   57SAPC    C3 4180   2.786   0.529  10.332  0.9639  0.3935 -0.0798
   57SAPC    HX 4181   2.806   0.597  10.417 -0.4676  0.8492 -0.0783
   57SAPC    HY 4182   2.696   0.470  10.358  0.3206  1.8401  1.1319
   57SAPC   O31 4183   2.760   0.604  10.210 -0.1670  0.3674  0.5521
   57SAPC   C31 4184   2.804   0.726  10.207  0.1097 -0.1614 -0.2681
   57SAPC   O32 4185   2.890   0.775  10.282 -0.1964  0.2531  0.5405
   57SAPC   C32 4186   2.750   0.798  10.086 -0.0553  0.1771  0.2052
   57SAPC   H2X 4187   2.830   0.862  10.042  0.5900 -0.7617 -0.0204
   57SAPC   H2Y 4188   2.668   0.867  10.113 -1.0293 -0.6304 -0.6118
   57SAPC   C23 4189   3.276   0.560  10.111  0.6554  0.4372 -0.4112
   57SAPC   H3R 4190   3.208   0.645  10.091 -0.9749 -0.9634 -1.0146
   57SAPC   H3S 4191   3.254   0.482  10.035  2.5725 -1.1858  0.6076
   57SAPC   C24 4192   3.426   0.604  10.078  1.0150  0.3302  0.5360
   57SAPC   H4R 4193   3.429   0.607   9.967  0.1127 -3.1701  0.3242
   57SAPC   H4S 4194   3.481   0.515  10.115  0.4499 -0.1678  0.1923
   57SAPC   C25 4195   3.474   0.720  10.156 -0.7260 -0.1762  0.0190
   57SAPC   H5R 4196   3.502   0.710  10.262  2.0328  1.4666 -0.4624
   57SAPC   C26 4197   3.465   0.843  10.104  0.2086 -0.3577 -0.1782
   57SAPC   H6R 4198   3.505   0.925  10.165  1.2424 -1.3995  0.6040
   57SAPC   C27 4199   3.407   0.878   9.965  1.0549  0.4130  0.4360
   57SAPC   H7R 4200   3.423   0.800   9.888  0.8952  0.7567  0.0522
   57SAPC   H7S 4201   3.471   0.962   9.928  0.9561  1.3160  2.2102
   57SAPC   C28 4202   3.258   0.919   9.969 -0.4702 -0.0600  0.2356
   57SAPC   H8R 4203   3.216   0.945  10.067 -1.5432 -1.1873  0.1102
   57SAPC   C29 4204   3.185   0.939   9.858  0.3210  0.2404 -0.7099
   57SAPC   H9R 4205   3.081   0.976   9.865  0.2787 -0.0693  0.4832
   57SAPC  C210 4206   3.226   0.917   9.714 -0.0137  0.3399 -0.6848
   57SAPC  H10R 4207   3.135   0.886   9.658 -0.4370 -0.5035  0.4209
   57SAPC  H10S 4208   3.288   0.825   9.704  0.1234  0.3502 -0.0149
   57SAPC  C211 4209   3.312   1.019   9.643 -0.4664 -0.5707  0.5896
   57SAPC  H11R 4210   3.383   1.081   9.700  0.4680  0.2349 -1.3779
   57SAPC  C212 4211   3.335   1.022   9.511  0.1535  0.0202 -0.3525
   57SAPC  H12R 4212   3.410   1.094   9.476 -0.6820  0.9876 -0.2162
   57SAPC  C213 4213   3.282   0.930   9.407 -0.1776 -0.4526  0.9422
   57SAPC  H13R 4214   3.219   0.993   9.340 -0.3601 -1.8063 -0.2007
   57SAPC  H13S 4215   3.219   0.847   9.445 -0.5782 -1.1572 -1.1456
   57SAPC  C214 4216   3.388   0.873   9.317  0.5689 -0.0963  0.2303
   57SAPC  H14R 4217   3.464   0.813   9.370 -0.3990 -1.0067  0.6392
   57SAPC  C215 4218   3.367   0.861   9.185  0.3657  0.1610 -0.0796
   57SAPC  H15R 4219   3.444   0.811   9.126 -1.4644 -1.4741 -1.1758
   57SAPC  C216 4220   3.246   0.893   9.108  0.4031  0.4975  0.4391
   57SAPC  H16R 4221   3.215   0.992   9.146 -0.7462 -0.9251  3.5143
   57SAPC  H16S 4222   3.160   0.829   9.137  1.5188 -0.6298  1.3950
   57SAPC  C217 4223   3.247   0.898   8.954 -0.6031  0.1150 -0.1323
   57SAPC  H17R 4224   3.151   0.930   8.908  0.3983  1.0250 -1.6702
   57SAPC  H17S 4225   3.285   0.802   8.915 -1.6562  0.3290 -1.7875
   57SAPC  C218 4226   3.347   1.000   8.896  0.7763  0.0770 -0.2962
   57SAPC  H18R 4227   3.447   0.961   8.924  0.1266 -1.4237  0.0354
   57SAPC  H18S 4228   3.345   1.102   8.939 -0.1832 -0.1031  0.1091
   57SAPC  C219 4229   3.347   1.010   8.747 -0.0218  0.6299 -0.1354
   57SAPC  H19R 4230   3.352   0.906   8.707 -0.1296 -0.6258  2.8222
   57SAPC  H19S 4231   3.443   1.060   8.722 -0.2893  0.1523 -2.3023
   57SAPC  C220 4232   3.227   1.088   8.689 -0.3320  0.0978  0.3350
   57SAPC  H20R 4233   3.233   1.078   8.578 -0.3431  1.6853  0.1728
   57SAPC  H20S 4234   3.230   1.193   8.725  1.9417 -0.5250  2.2400
   57SAPC  H20T 4235   3.133   1.034   8.713 -0.9995  1.5685  1.1497
   57SAPC   C33 4236   2.692   0.704   9.976  0.0009  0.2898  1.1032
   57SAPC   H3X 4237   2.612   0.642  10.023 -0.9262  1.0673  0.5858
   57SAPC   H3Y 4238   2.767   0.630   9.941  0.7735  1.7024 -0.3258
   57SAPC   C34 4239   2.652   0.776   9.848 -0.9762  0.7487  0.1618
   57SAPC   H4X 4240   2.673   0.882   9.870 -0.6864  0.3896  1.7170
   57SAPC   H4Y 4241   2.544   0.771   9.821 -0.8018 -1.5763 -0.3615
   57SAPC   C35 4242   2.730   0.735   9.722  0.1052 -0.1057 -0.2274
   57SAPC   H5X 4243   2.684   0.646   9.674  1.1851  0.2282 -1.9611
   57SAPC   H5Y 4244   2.834   0.716   9.758 -1.0722 -0.6421  3.2965
   57SAPC   C36 4245   2.744   0.851   9.619  0.0017  0.6103 -0.1460
   57SAPC   H6X 4246   2.825   0.925   9.639  1.2505 -0.0690 -2.3241
   57SAPC   H6Y 4247   2.648   0.904   9.632  0.3695  0.8425  2.0273
   57SAPC   C37 4248   2.774   0.797   9.475  0.3672 -0.0893  0.1827
   57SAPC   H7X 4249   2.741   0.866   9.395  1.0610  0.2152  0.1453
   57SAPC   H7Y 4250   2.733   0.695   9.460  0.4356  0.0719 -1.2759
   57SAPC   C38 4251   2.926   0.783   9.460 -0.3539  0.2183  0.6845
   57SAPC   H8X 4252   2.957   0.716   9.542  2.5790  1.8295  1.0531
   57SAPC   H8Y 4253   2.975   0.879   9.487  2.2270 -0.9353  0.4009
   57SAPC   C39 4254   2.965   0.743   9.316  0.4612  0.0140  0.0746
   57SAPC   H9X 4255   3.075   0.729   9.306  0.8658  1.6555  1.6256
   57SAPC   H9Y 4256   2.935   0.827   9.249  1.6568 -0.7118 -1.4419
   57SAPC  C310 4257   2.904   0.610   9.263 -0.3211 -0.3720 -0.0752
   57SAPC  H10X 4258   2.794   0.621   9.266 -0.5667 -2.2227 -0.9862
   57SAPC  H10Y 4259   2.940   0.526   9.327  2.1276 -0.3541 -1.3174
   57SAPC  C311 4260   2.938   0.587   9.116  0.0108  0.1770  0.5786
   57SAPC  H11X 4261   3.044   0.575   9.083 -0.7678 -0.5922 -1.8742
   57SAPC  H11Y 4262   2.893   0.666   9.051  1.3829  2.2607  2.0214
   57SAPC  C312 4263   2.879   0.447   9.073  0.2398  0.2652  0.3966
   57SAPC  H12X 4264   2.772   0.451   9.103  0.8326  1.4049  2.6115
   57SAPC  H12Y 4265   2.923   0.363   9.131  0.2772  1.5530  2.3278
   57SAPC  C313 4266   2.898   0.415   8.923 -0.3997  0.0182  0.5033
   57SAPC  H13X 4267   3.002   0.417   8.886 -0.4724  0.5812  0.3100
   57SAPC  H13Y 4268   2.835   0.496   8.880 -0.3280  0.2477  0.8225
   57SAPC  C314 4269   2.850   0.275   8.882  0.5884 -0.7054 -0.0968
   57SAPC  H14X 4270   2.815   0.264   8.777 -1.3420 -1.2687  0.5687
   57SAPC  H14Y 4271   2.759   0.241   8.936 -1.0180 -0.3808 -2.4399
   57SAPC  C315 4272   2.957   0.172   8.907 -0.1869  0.1495 -0.2248
   57SAPC  H15X 4273   3.025   0.201   8.990 -0.7385  2.4591 -0.5120
   57SAPC  H15Y 4274   3.023   0.159   8.818  0.2665  1.1448 -0.0487
   57SAPC  C316 4275   2.896   0.037   8.931  0.8808 -0.3567 -0.5425
   57SAPC  H16X 4276   2.812   0.047   9.002  0.8232  0.4924 -0.7238
   57SAPC  H16Y 4277   2.965  -0.042   8.968 -0.8791 -1.3505  0.7632
   57SAPC  C317 4278   2.841  -0.027   8.801 -0.8471  0.0346 -0.3156
   57SAPC  H17X 4279   2.924  -0.038   8.728 -0.5759 -1.1117  0.1505
   57SAPC  H17Y 4280   2.758   0.036   8.761 -0.9552 -0.0866 -0.2802
   57SAPC  C318 4281   2.790  -0.177   8.810 -0.2047  0.9153 -0.3165
   57SAPC  H18X 4282   2.857  -0.246   8.866 -2.3410 -1.6018 -0.6667
   57SAPC  H18Y 4283   2.782  -0.200   8.702  2.0279  1.2024 -0.5896
   57SAPC  H18Z 4284   2.690  -0.172   8.858  0.7994  3.3327  1.7534
   58SAPC     N 4285   3.391   5.688  11.026 -0.4141  0.3793  0.1902
   58SAPC   C12 4286   3.382   5.832  10.990 -0.3618  0.5950 -0.3280
   58SAPC  H12A 4287   3.453   5.855  10.911  1.1064 -0.7266  0.5525
   58SAPC  H12B 4288   3.407   5.893  11.075 -2.5406  1.7157 -0.4320
   58SAPC   C13 4289   3.527   5.651  11.079  0.0651 -0.1461  0.0444
   58SAPC  H13A 4290   3.549   5.707  11.168 -1.7992  1.5313 -0.4720
   58SAPC  H13B 4291   3.537   5.548  11.108 -2.3192  0.0457  1.8381
   58SAPC  H13C 4292   3.605   5.683  11.012  1.4795 -0.4304  1.5065
   58SAPC   C14 4293   3.287   5.647  11.128  0.0740 -0.1721 -0.2212
   58SAPC  H14A 4294   3.302   5.686  11.228 -0.2516 -0.2960 -0.1224
   58SAPC  H14B 4295   3.191   5.677  11.089 -0.0896  1.4930  1.3052
   58SAPC  H14C 4296   3.289   5.539  11.125 -1.5773 -0.3569  2.1569
   58SAPC   C15 4297   3.369   5.598  10.909 -0.2910  0.7494  0.3556
   58SAPC  H15A 4298   3.355   5.494  10.934  3.3648 -0.0998 -0.4489
   58SAPC  H15B 4299   3.286   5.643  10.856  0.3816  0.4037 -1.0382
   58SAPC  H15C 4300   3.463   5.594  10.856 -0.0406 -0.8408  0.8724
   58SAPC   C11 4301   3.248   5.886  10.946  0.2153 -0.3117 -0.3094
   58SAPC  H11A 4302   3.264   5.996  10.943  0.5926 -0.3364  0.3937
   58SAPC  H11B 4303   3.165   5.876  11.019  1.0909  1.2296  0.9774
   58SAPC     P 4304   3.249   5.918  10.688 -0.2173  0.3298  0.0332
   58SAPC   O13 4305   3.205   6.059  10.697 -0.2647  0.2921 -0.8823
   58SAPC   O14 4306   3.394   5.902  10.674 -0.3337 -0.3212 -0.3741
   58SAPC   O12 4307   3.205   5.832  10.818 -0.0246  0.2897 -0.5834
   58SAPC   O11 4308   3.171   5.851  10.575 -0.0437 -0.2061 -0.2086
   58SAPC    C1 4309   3.086   5.736  10.590  0.1541 -0.1989 -0.4571
   58SAPC    HA 4310   3.153   5.650  10.609  0.4066  0.3012  1.0219
   58SAPC    HB 4311   3.019   5.756  10.676 -1.1803 -0.4667 -1.4059
   58SAPC    C2 4312   2.999   5.708  10.459 -0.2619 -0.1043  0.4046
   58SAPC    HS 4313   2.928   5.623  10.464  0.0706 -0.4872 -0.9458
   58SAPC   O21 4314   3.091   5.702  10.354 -1.0042  0.5172  0.1955
   58SAPC   C21 4315   3.146   5.584  10.329  0.5506  0.3369 -0.2928
   58SAPC   O22 4316   3.132   5.481  10.395 -1.3325  0.0837 -0.2275
   58SAPC   C22 4317   3.236   5.590  10.204  0.1304  0.3236  0.2368
   58SAPC   H2R 4318   3.168   5.561  10.121 -2.3437 -1.5174  2.7142
   58SAPC   H2S 4319   3.266   5.696  10.199  0.3627  0.4002  2.5116
   58SAPC    C3 4320   2.908   5.825  10.438 -0.1443 -0.1435 -0.2206
   58SAPC    HX 4321   2.961   5.923  10.438  0.3245 -0.3552 -2.1338
   58SAPC    HY 4322   2.859   5.818  10.538  1.7335 -2.3341  0.6563
   58SAPC   O31 4323   2.808   5.794  10.344 -0.7995 -0.0041 -0.2971
   58SAPC   C31 4324   2.823   5.861  10.229 -0.4062 -0.8922 -0.4343
   58SAPC   O32 4325   2.887   5.967  10.215  0.8762 -0.1328  0.6091
   58SAPC   C32 4326   2.762   5.781  10.125 -0.6781  0.4229 -0.1297
   58SAPC   H2X 4327   2.652   5.778  10.141 -0.6602  1.3482  0.2224
   58SAPC   H2Y 4328   2.805   5.679  10.132  0.1215  0.7398 -0.3645
   58SAPC   C23 4329   3.361   5.501  10.220  0.7750  0.0922  0.2301
   58SAPC   H3R 4330   3.324   5.397  10.230 -0.5870  0.6109  0.8101
   58SAPC   H3S 4331   3.420   5.527  10.310  1.9517  1.1501 -0.8089
   58SAPC   C24 4332   3.450   5.507  10.095 -0.3090  0.2858 -0.0303
   58SAPC   H4R 4333   3.406   5.459  10.005  2.4632  0.5794 -1.6730
   58SAPC   H4S 4334   3.543   5.449  10.114 -1.1847 -1.3826 -0.6455
   58SAPC   C25 4335   3.495   5.648  10.063  0.4561 -0.0844  0.4732
   58SAPC   H5R 4336   3.524   5.709  10.151 -2.2520  1.4530  0.4465
   58SAPC   C26 4337   3.489   5.703   9.945  0.2126 -0.2407  0.1832
   58SAPC   H6R 4338   3.500   5.812   9.939 -2.8826  0.1000 -0.9774
   58SAPC   C27 4339   3.424   5.637   9.828  0.3795  0.1863 -0.4297
   58SAPC   H7R 4340   3.387   5.716   9.759 -2.8852 -0.9559 -0.1170
   58SAPC   H7S 4341   3.321   5.605   9.852  0.0587  1.7251  0.3987
   58SAPC   C28 4342   3.503   5.523   9.764  0.2404  0.2809  0.3453
   58SAPC   H8R 4343   3.552   5.450   9.830 -0.6772 -1.0022 -0.3379
   58SAPC   C29 4344   3.510   5.496   9.630  0.1589 -0.3760  0.2159
   58SAPC   H9R 4345   3.577   5.411   9.609  0.2436 -0.1415 -0.4854
   58SAPC  C210 4346   3.457   5.583   9.518  0.0709  0.8426  0.3342
   58SAPC  H10R 4347   3.427   5.673   9.575  4.6143  1.6855  1.7681
   58SAPC  H10S 4348   3.364   5.550   9.466  0.9400  0.2511 -0.8901
   58SAPC  C211 4349   3.576   5.605   9.424  0.2809  0.2331  0.3511
   58SAPC  H11R 4350   3.672   5.636   9.468  0.7341 -0.6824  0.0312
   58SAPC  C212 4351   3.572   5.593   9.289 -0.3144 -0.0401 -0.0778
   58SAPC  H12R 4352   3.671   5.598   9.242  1.0638  1.6039  2.6993
   58SAPC  C213 4353   3.448   5.547   9.211 -1.0015  0.1226 -0.5633
   58SAPC  H13R 4354   3.405   5.465   9.272 -0.2146 -0.3919 -0.6788
   58SAPC  H13S 4355   3.484   5.482   9.128  2.9186  0.6343  0.5552
   58SAPC  C214 4356   3.357   5.658   9.159 -0.3019 -0.3266  0.0713
   58SAPC  H14R 4357   3.298   5.697   9.243 -0.0782 -0.5891  0.3486
   58SAPC  C215 4358   3.341   5.701   9.028  0.1019  0.0045 -0.2121
   58SAPC  H15R 4359   3.271   5.783   9.004  1.4184  1.0632 -0.5262
   58SAPC  C216 4360   3.423   5.658   8.909  0.5515  0.6465 -0.2519
   58SAPC  H16R 4361   3.383   5.558   8.880 -0.3915  0.3690  1.7822
   58SAPC  H16S 4362   3.526   5.641   8.946 -0.1375 -2.9294  0.3835
   58SAPC  C217 4363   3.433   5.764   8.795 -0.0921  0.0008  0.5267
   58SAPC  H17R 4364   3.459   5.863   8.841 -0.4041  1.0606 -1.4726
   58SAPC  H17S 4365   3.333   5.775   8.749 -0.1172 -0.1295  0.5535
   58SAPC  C218 4366   3.526   5.713   8.682  0.5853  0.1244  0.1173
   58SAPC  H18R 4367   3.493   5.615   8.643  1.1538 -1.3972  3.1908
   58SAPC  H18S 4368   3.632   5.717   8.713  0.3004  2.3813  1.0346
   58SAPC  C219 4369   3.516   5.814   8.561  0.2228 -0.2923 -0.8644
   58SAPC  H19R 4370   3.570   5.907   8.589  0.1832  0.3702 -2.8469
   58SAPC  H19S 4371   3.412   5.852   8.551  0.1669  0.8822  2.6071
   58SAPC  C220 4372   3.563   5.766   8.429 -0.3024  0.8574 -0.2678
   58SAPC  H20R 4373   3.523   5.665   8.406  0.4014  0.5029  0.0354
   58SAPC  H20S 4374   3.673   5.753   8.422 -0.0966  2.3161 -0.0815
   58SAPC  H20T 4375   3.535   5.834   8.346  0.4740 -0.3076 -1.5398
   58SAPC   C33 4376   2.802   5.832   9.984  0.4217 -1.1998  0.0483
   58SAPC   H3X 4377   2.755   5.931   9.968  0.3422 -0.9761  1.5129
   58SAPC   H3Y 4378   2.753   5.755   9.920 -1.2534  0.4259 -0.7203
   58SAPC   C34 4379   2.952   5.824   9.954  0.2189  0.4005  0.4508
   58SAPC   H4X 4380   2.990   5.725   9.988  0.5490 -0.4537 -2.1275
   58SAPC   H4Y 4381   3.004   5.913   9.994  1.3377  2.1615 -4.2690
   58SAPC   C35 4382   2.974   5.826   9.798 -0.4594 -0.3784 -0.1196
   58SAPC   H5X 4383   2.921   5.913   9.754  0.5315  0.2480 -0.0906
   58SAPC   H5Y 4384   2.917   5.738   9.760 -0.9017  0.0713 -0.5293
   58SAPC   C36 4385   3.120   5.825   9.752 -0.5399 -0.0620 -0.1888
   58SAPC   H6X 4386   3.124   5.808   9.642 -1.7279 -1.0458 -0.1068
   58SAPC   H6Y 4387   3.174   5.737   9.790  0.4616  0.4346 -0.4294
   58SAPC   C37 4388   3.200   5.954   9.788  0.6015 -0.2782  0.2607
   58SAPC   H7X 4389   3.304   5.952   9.748  0.5681  1.2380  0.0438
   58SAPC   H7Y 4390   3.212   5.959   9.898 -2.9696 -1.0819  0.8091
   58SAPC   C38 4391   3.126   6.088   9.754 -0.1681 -0.5858  0.4405
   58SAPC   H8X 4392   3.053   6.117   9.832  1.4679  3.5436  0.6899
   58SAPC   H8Y 4393   3.072   6.060   9.661 -1.4308 -1.2944  1.3583
   58SAPC   C39 4394   3.227   6.208   9.744  0.4075 -0.1151 -0.1248
   58SAPC   H9X 4395   3.314   6.185   9.679  0.1444  1.5451 -1.1147
   58SAPC   H9Y 4396   3.249   6.244   9.847 -0.4730 -0.5137  0.2122
   58SAPC  C310 4397   3.150   6.330   9.681 -0.2268 -0.1225 -0.5392
   58SAPC  H10X 4398   3.076   6.290   9.608 -1.0473  1.4627 -0.6168
   58SAPC  H10Y 4399   3.229   6.391   9.633  1.3610 -1.1312  0.6668
   58SAPC  C311 4400   3.072   6.410   9.790 -0.7140  0.0799 -0.0087
   58SAPC  H11X 4401   3.140   6.466   9.857 -0.6973 -0.8033  0.7367
   58SAPC  H11Y 4402   3.003   6.342   9.845 -0.6090 -0.9739 -1.1372
   58SAPC  C312 4403   2.977   6.514   9.727  0.1998  0.7283 -0.5367
   58SAPC  H12X 4404   2.914   6.552   9.810 -1.0145 -1.3455 -0.4356
   58SAPC  H12Y 4405   2.908   6.452   9.666  0.2922 -2.0183  1.9154
   58SAPC  C313 4406   3.049   6.630   9.654  0.3109  0.5314 -0.1190
   58SAPC  H13X 4407   3.112   6.608   9.566  1.4545  1.1841  0.5139
   58SAPC  H13Y 4408   3.134   6.653   9.721  1.7271 -1.5104 -1.1334
   58SAPC  C314 4409   2.952   6.743   9.614 -0.6004 -0.3122 -0.3592
   58SAPC  H14X 4410   2.912   6.784   9.710  1.8071  1.2322  0.0614
   58SAPC  H14Y 4411   2.869   6.719   9.544 -3.3864  0.6050  2.3355
   58SAPC  C315 4412   3.019   6.865   9.557  1.2771 -0.9823  0.3541
   58SAPC  H15X 4413   3.082   6.839   9.469 -2.2988 -0.4995 -2.6044
   58SAPC  H15Y 4414   3.092   6.898   9.635  0.1532 -1.3629  1.5902
   58SAPC  C316 4415   2.926   6.978   9.511  0.4928 -0.2975  0.4738
   58SAPC  H16X 4416   2.860   6.946   9.428  1.8756  0.3082 -0.9141
   58SAPC  H16Y 4417   2.985   7.061   9.465 -1.5924  1.2016  0.3330
   58SAPC  C317 4418   2.835   7.038   9.618  0.0390 -1.0064 -0.4964
   58SAPC  H17X 4419   2.887   7.063   9.713 -0.7326  2.8155 -0.9118
   58SAPC  H17Y 4420   2.753   6.970   9.649  0.0599 -0.5260  0.6780
   58SAPC  C318 4421   2.772   7.173   9.581 -0.2262 -0.0956 -0.1769
   58SAPC  H18X 4422   2.707   7.145   9.495 -1.0105  2.5785 -0.5432
   58SAPC  H18Y 4423   2.845   7.254   9.562 -0.3419 -0.0284 -0.3401
   58SAPC  H18Z 4424   2.705   7.193   9.667 -2.6925 -2.9104 -1.2759
   59SAPC     N 4425   6.038   0.231  11.414  0.4667 -0.0379 -0.1661
   59SAPC   C12 4426   6.134   0.307  11.323 -0.1712  0.1631 -0.1170
   59SAPC  H12A 4427   6.237   0.278  11.340 -0.0169  1.5559  1.5677
   59SAPC  H12B 4428   6.122   0.410  11.353 -0.1900 -0.7114  3.2322
   59SAPC   C13 4429   6.039   0.090  11.361  0.7809  0.6759 -0.4646
   59SAPC  H13A 4430   6.131   0.043  11.393  2.7880  2.9529 -2.4429
   59SAPC  H13B 4431   5.949   0.044  11.399  2.8178 -1.8917  1.5664
   59SAPC  H13C 4432   6.043   0.100  11.253 -0.6844  0.8302 -0.5264
   59SAPC   C14 4433   6.102   0.232  11.547 -0.1444  0.7018  0.3409
   59SAPC  H14A 4434   6.042   0.179  11.620 -1.3263  3.6135  1.6514
   59SAPC  H14B 4435   6.199   0.185  11.553 -0.9573 -1.0047  0.5376
   59SAPC  H14C 4436   6.112   0.332  11.587 -2.3043 -0.2380  3.6494
   59SAPC   C15 4437   5.896   0.273  11.419 -0.2693  0.4222  0.1220
   59SAPC  H15A 4438   5.828   0.212  11.477 -0.9522  0.8626 -0.2039
   59SAPC  H15B 4439   5.888   0.363  11.479 -1.8306 -1.1867  2.4568
   59SAPC  H15C 4440   5.849   0.285  11.322 -0.1132 -2.1547 -0.3444
   59SAPC   C11 4441   6.104   0.315  11.174  1.0981  0.2735  0.3465
   59SAPC  H11A 4442   6.119   0.222  11.116 -2.5401  0.2527 -0.8206
   59SAPC  H11B 4443   6.188   0.376  11.135  1.5214  0.1291  1.0195
   59SAPC     P 4444   5.943   0.530  11.162  0.1040  0.0867  0.0369
   59SAPC   O13 4445   5.798   0.542  11.182 -0.3694 -0.1450  1.0347
   59SAPC   O14 4446   6.036   0.590  11.262  0.2552 -0.2707 -0.2206
   59SAPC   O12 4447   5.975   0.376  11.155 -0.1056 -0.5304 -0.5593
   59SAPC   O11 4448   5.978   0.574  11.018  0.5123 -0.1463  0.0920
   59SAPC    C1 4449   5.934   0.508  10.906 -0.2757  0.0928  0.1928
   59SAPC    HA 4450   5.864   0.425  10.928 -1.0447  0.7554  0.2784
   59SAPC    HB 4451   5.881   0.582  10.843 -0.7067 -0.1992  0.2053
   59SAPC    C2 4452   6.034   0.434  10.808  0.1433  0.1118 -0.1542
   59SAPC    HS 4453   6.066   0.349  10.873 -0.2767  1.6103  2.1470
   59SAPC   O21 4454   6.136   0.529  10.783 -0.5034 -0.1686  0.0974
   59SAPC   C21 4455   6.252   0.466  10.747  0.1889 -0.6327  0.6316
   59SAPC   O22 4456   6.267   0.344  10.740  0.1964  0.1289 -0.2911
   59SAPC   C22 4457   6.340   0.573  10.688  0.1651  0.5857 -0.4328
   59SAPC   H2R 4458   6.369   0.646  10.767 -0.1835 -1.4090  1.6550
   59SAPC   H2S 4459   6.440   0.531  10.665  0.2048  0.3849  0.0893
   59SAPC    C3 4460   5.966   0.372  10.684  0.0596 -0.3969 -0.3544
   59SAPC    HX 4461   5.885   0.303  10.715 -0.3281  0.2805  0.1803
   59SAPC    HY 4462   6.043   0.307  10.637  0.5921 -0.1847  0.2055
   59SAPC   O31 4463   5.929   0.481  10.602 -0.0731  0.0472 -0.4389
   59SAPC   C31 4464   5.799   0.502  10.584 -0.9394 -0.9296 -0.7676
   59SAPC   O32 4465   5.710   0.448  10.646 -0.2441 -0.3737  0.0178
   59SAPC   C32 4466   5.783   0.597  10.461 -0.5338 -0.3984 -0.2585
   59SAPC   H2X 4467   5.787   0.703  10.494  1.6503 -0.2854 -0.6834
   59SAPC   H2Y 4468   5.681   0.577  10.422 -0.1657 -0.7334 -1.0904
   59SAPC   C23 4469   6.282   0.660  10.575  0.2605  0.0602  0.2271
   59SAPC   H3R 4470   6.346   0.750  10.574  1.5726 -0.8516  0.2862
   59SAPC   H3S 4471   6.184   0.699  10.611  0.3731 -0.0891  0.7024
   59SAPC   C24 4472   6.265   0.585  10.444  0.8318  0.3929  0.3413
   59SAPC   H4R 4473   6.226   0.655  10.367 -0.6825 -1.4807 -0.6999
   59SAPC   H4S 4474   6.187   0.505  10.445 -1.3165  2.3726  0.8811
   59SAPC   C25 4475   6.389   0.518  10.396 -0.6238  0.3370 -0.3771
   59SAPC   H5R 4476   6.407   0.421  10.445  0.2332  0.8867  0.4212
   59SAPC   C26 4477   6.476   0.571  10.311 -0.0591 -0.1356  0.0974
   59SAPC   H6R 4478   6.546   0.505  10.257 -0.3914  0.7972 -1.5392
   59SAPC   C27 4479   6.464   0.703  10.229 -0.3920 -0.6236 -0.2014
   59SAPC   H7R 4480   6.560   0.753  10.207 -0.5136 -0.9212 -1.5416
   59SAPC   H7S 4481   6.410   0.777  10.292 -0.9408 -0.2294 -1.1147
   59SAPC   C28 4482   6.399   0.690  10.098  0.1243  0.5914 -0.1673
   59SAPC   H8R 4483   6.303   0.638  10.104  0.2379  0.5685  3.2841
   59SAPC   C29 4484   6.434   0.737   9.974  0.7793 -0.9027 -0.6500
   59SAPC   H9R 4485   6.373   0.712   9.887  0.2696 -0.7803 -0.3306
   59SAPC  C210 4486   6.550   0.822   9.940 -0.4825 -0.4981  0.7322
   59SAPC  H10R 4487   6.579   0.879  10.031  2.8781 -0.0592 -0.4514
   59SAPC  H10S 4488   6.523   0.897   9.863  2.0481  1.4763  1.6200
   59SAPC  C211 4489   6.671   0.739   9.896  0.5537 -0.0132  0.6048
   59SAPC  H11R 4490   6.715   0.683   9.980 -0.7142  0.8892  1.9260
   59SAPC  C212 4491   6.731   0.724   9.777 -0.0640  0.7996  0.3186
   59SAPC  H12R 4492   6.819   0.658   9.764 -1.2506 -0.3022 -3.5291
   59SAPC  C213 4493   6.689   0.783   9.643 -0.2742 -0.3657 -0.0704
   59SAPC  H13R 4494   6.780   0.818   9.590  0.7125 -2.0316  0.4715
   59SAPC  H13S 4495   6.609   0.859   9.656 -0.0383  0.6856 -3.6136
   59SAPC  C214 4496   6.635   0.675   9.548  0.2692  0.3392  0.6598
   59SAPC  H14R 4497   6.637   0.570   9.579 -0.2424  0.7759  2.2511
   59SAPC  C215 4498   6.597   0.705   9.427 -0.1255  0.2298  0.2385
   59SAPC  H15R 4499   6.582   0.623   9.355  0.9228  0.3387 -0.1132
   59SAPC  C216 4500   6.599   0.839   9.362 -0.8235  0.1002 -0.5471
   59SAPC  H16R 4501   6.700   0.858   9.321 -1.0262 -0.7053 -1.4510
   59SAPC  H16S 4502   6.586   0.912   9.445  1.6128  0.5691 -0.4965
   59SAPC  C217 4503   6.479   0.857   9.263 -0.7921  0.1137 -0.3088
   59SAPC  H17R 4504   6.453   0.965   9.261  1.3884  0.6815 -1.6257
   59SAPC  H17S 4505   6.390   0.805   9.305 -1.4392  0.8012 -0.7988
   59SAPC  C218 4506   6.508   0.804   9.122  0.2213 -0.1534  0.7304
   59SAPC  H18R 4507   6.510   0.693   9.131  1.5579 -0.2598 -0.5928
   59SAPC  H18S 4508   6.607   0.840   9.089  0.9983 -2.0330  0.8874
   59SAPC  C219 4509   6.401   0.862   9.030  0.0404  0.3043  0.8624
   59SAPC  H19R 4510   6.394   0.972   9.045 -0.9763  0.2530  0.8153
   59SAPC  H19S 4511   6.301   0.817   9.049  1.1226 -3.0876 -0.6689
   59SAPC  C220 4512   6.432   0.833   8.881 -0.3021 -0.6850 -0.5252
   59SAPC  H20R 4513   6.365   0.885   8.809 -0.5676 -0.2148  0.0517
   59SAPC  H20S 4514   6.418   0.726   8.857  1.8500 -0.7815 -1.6234
   59SAPC  H20T 4515   6.538   0.863   8.861 -0.6615  1.8972  0.9433
   59SAPC   C33 4516   5.892   0.583  10.344 -0.2534 -0.1865  0.2081
   59SAPC   H3X 4517   5.929   0.480  10.325  2.4271  0.3718  1.9528
   59SAPC   H3Y 4518   5.976   0.639  10.390  0.1758 -0.0434 -0.7324
   59SAPC   C34 4519   5.850   0.651  10.217  0.0594  0.8048 -0.4097
   59SAPC   H4X 4520   5.793   0.744  10.238 -0.4217  0.5169 -0.4053
   59SAPC   H4Y 4521   5.779   0.583  10.165  1.9698 -0.7635 -1.1068
   59SAPC   C35 4522   5.956   0.691  10.113 -0.7651  1.0337 -0.2542
   59SAPC   H5X 4523   6.026   0.605  10.106 -3.6439 -1.4771 -0.0152
   59SAPC   H5Y 4524   6.023   0.775  10.144  0.1307 -0.6480  2.7540
   59SAPC   C36 4525   5.904   0.708   9.974  0.7671 -0.3017 -0.5670
   59SAPC   H6X 4526   5.817   0.778   9.974  0.9369 -0.0831  0.2759
   59SAPC   H6Y 4527   5.883   0.611   9.925  1.3812 -2.8153  3.6853
   59SAPC   C37 4528   6.003   0.791   9.892  0.0479  0.0546 -0.0363
   59SAPC   H7X 4529   6.094   0.727   9.892 -1.1943 -1.8974 -2.6575
   59SAPC   H7Y 4530   6.032   0.890   9.934  0.6446 -0.7403  1.4917
   59SAPC   C38 4531   5.957   0.811   9.745  0.1991  0.1890 -1.1478
   59SAPC   H8X 4532   6.009   0.903   9.710  0.7872 -0.4207 -1.8914
   59SAPC   H8Y 4533   5.847   0.829   9.753  0.0995 -0.6782 -0.3024
   59SAPC   C39 4534   5.983   0.690   9.655 -0.6274  0.3876 -0.5293
   59SAPC   H9X 4535   5.962   0.593   9.704 -0.2419  0.9150  0.7303
   59SAPC   H9Y 4536   6.093   0.689   9.637 -0.8150 -1.2688 -1.7983
   59SAPC  C310 4537   5.890   0.695   9.535 -0.4097  0.4985  0.2940
   59SAPC  H10X 4538   5.906   0.787   9.473  1.7549 -0.7857 -1.1898
   59SAPC  H10Y 4539   5.782   0.694   9.564 -0.4019  0.2414  0.3090
   59SAPC  C311 4540   5.924   0.577   9.440  0.4262 -0.0786  0.0069
   59SAPC  H11X 4541   5.884   0.484   9.487  1.0592 -0.6809 -0.6394
   59SAPC  H11Y 4542   6.034   0.569   9.437  0.3664 -0.7056 -2.0056
   59SAPC  C312 4543   5.869   0.581   9.295  0.6052 -0.0802 -0.2595
   59SAPC  H12X 4544   5.934   0.647   9.233  0.8002 -1.0504 -1.1182
   59SAPC  H12Y 4545   5.771   0.632   9.296  0.8040  0.3130  1.3993
   59SAPC  C313 4546   5.855   0.448   9.232  0.0935 -0.2735 -0.4358
   59SAPC  H13X 4547   5.810   0.370   9.297 -0.6276  0.7526  0.3355
   59SAPC  H13Y 4548   5.952   0.399   9.208 -0.0874 -0.8464  0.0078
   59SAPC  C314 4549   5.771   0.456   9.104  0.2795  0.4369 -0.2821
   59SAPC  H14X 4550   5.828   0.520   9.033 -0.1826  2.2365  0.9239
   59SAPC  H14Y 4551   5.671   0.497   9.126  0.2699 -0.5516  1.8081
   59SAPC  C315 4552   5.760   0.335   9.021 -0.4967 -0.5931 -0.7312
   59SAPC  H15X 4553   5.731   0.249   9.085  1.5395  0.9353  2.5159
   59SAPC  H15Y 4554   5.861   0.314   8.979  1.4055  2.2270  1.9801
   59SAPC  C316 4555   5.667   0.362   8.903  0.3225  0.0695 -0.1902
   59SAPC  H16X 4556   5.693   0.438   8.826 -0.0455 -0.5191 -0.9043
   59SAPC  H16Y 4557   5.570   0.399   8.941 -0.5944 -3.0440  0.7858
   59SAPC  C317 4558   5.623   0.235   8.824 -0.4572  0.2023  0.3599
   59SAPC  H17X 4559   5.531   0.188   8.863 -0.4189  0.2289  0.4819
   59SAPC  H17Y 4560   5.697   0.153   8.834 -1.6493 -1.1117 -1.1200
   59SAPC  C318 4561   5.586   0.270   8.677  0.3040 -0.3780 -1.0767
   59SAPC  H18X 4562   5.514   0.354   8.670  2.5236  1.8079  0.4033
   59SAPC  H18Y 4563   5.537   0.180   8.633 -0.9352  0.9006 -2.4549
   59SAPC  H18Z 4564   5.681   0.297   8.625  1.6197 -4.0074 -0.8254
   60SAPC     N 4565   1.671   6.758  11.007 -0.3162 -0.6329 -0.4152
   60SAPC   C12 4566   1.544   6.718  10.946  0.2764  0.0874  0.1148
   60SAPC  H12A 4567   1.461   6.750  11.006 -0.8648 -0.4543 -1.1159
   60SAPC  H12B 4568   1.541   6.610  10.939  1.8182 -0.0337  0.9890
   60SAPC   C13 4569   1.678   6.903  11.050  0.1612  0.7378 -0.1601
   60SAPC  H13A 4570   1.772   6.927  11.096 -0.6874  2.7298  0.6163
   60SAPC  H13B 4571   1.679   6.961  10.959 -0.8672 -2.6406 -2.5722
   60SAPC  H13C 4572   1.586   6.933  11.098 -0.5313 -1.3982 -0.0345
   60SAPC   C14 4573   1.687   6.669  11.132 -0.5653  0.4096 -0.4766
   60SAPC  H14A 4574   1.695   6.569  11.091  0.2057  0.3668 -0.2239
   60SAPC  H14B 4575   1.774   6.688  11.191 -2.1432  2.5338  1.3160
   60SAPC  H14C 4576   1.596   6.672  11.190  0.0523 -0.4326  0.5798
   60SAPC   C15 4577   1.790   6.725  10.913 -0.0771 -0.4479  0.0307
   60SAPC  H15A 4578   1.883   6.755  10.960 -1.8573  0.3302  3.4318
   60SAPC  H15B 4579   1.798   6.618  10.902 -1.9787 -0.4124 -2.6845
   60SAPC  H15C 4580   1.782   6.774  10.817 -1.0896  0.7228  0.6773
   60SAPC   C11 4581   1.513   6.768  10.795 -0.2986 -0.0385  0.1497
   60SAPC  H11A 4582   1.522   6.879  10.794 -0.9218  0.0487 -2.6395
   60SAPC  H11B 4583   1.408   6.748  10.767 -0.0526 -0.9912 -0.1330
   60SAPC     P 4584   1.578   6.567  10.650  0.4743 -0.5572  0.5708
   60SAPC   O13 4585   1.704   6.522  10.587  0.3977 -0.1457  0.2961
   60SAPC   O14 4586   1.536   6.488  10.765  0.3463  0.9752 -0.2642
   60SAPC   O12 4587   1.601   6.718  10.693 -0.2324 -0.5025  0.1243
   60SAPC   O11 4588   1.456   6.581  10.552 -0.5746 -0.0828  0.0184
   60SAPC    C1 4589   1.471   6.612  10.413 -0.1169 -0.4054 -0.3645
   60SAPC    HA 4590   1.576   6.594  10.382  0.0614 -0.2121  0.1136
   60SAPC    HB 4591   1.399   6.554  10.351 -0.3160  0.5348 -1.0289
   60SAPC    C2 4592   1.425   6.760  10.378 -0.4671  0.7350  0.1087
   60SAPC    HS 4593   1.441   6.826  10.466 -2.6690  0.5589  0.6982
   60SAPC   O21 4594   1.295   6.758  10.312  0.0333  0.0491 -0.0077
   60SAPC   C21 4595   1.223   6.870  10.331  0.4472  0.1299 -0.3480
   60SAPC   O22 4596   1.258   6.962  10.396 -0.3109  0.4209 -0.4082
   60SAPC   C22 4597   1.075   6.844  10.289 -0.9691  0.3366  0.0573
   60SAPC   H2R 4598   1.067   6.818  10.181  2.0508  0.4352 -0.2533
   60SAPC   H2S 4599   1.039   6.751  10.339 -1.1336 -0.6220 -1.7649
   60SAPC    C3 4600   1.516   6.808  10.262  0.0385  0.1817 -0.0225
   60SAPC    HX 4601   1.490   6.904  10.214  0.1185  0.8479  1.2284
   60SAPC    HY 4602   1.520   6.731  10.181  0.0482 -2.0616  2.0065
   60SAPC   O31 4603   1.648   6.809  10.306  0.0358 -0.3748  0.3177
   60SAPC   C31 4604   1.682   6.926  10.366 -0.6160 -0.3882 -0.1720
   60SAPC   O32 4605   1.603   7.018  10.385  0.0304  0.8790  0.5480
   60SAPC   C32 4606   1.833   6.922  10.414 -0.0938  0.1194 -0.0668
   60SAPC   H2X 4607   1.834   6.837  10.486  0.6159  1.0028  0.9923
   60SAPC   H2Y 4608   1.862   7.021  10.455  0.3751 -0.9880  2.4105
   60SAPC   C23 4609   0.985   6.952  10.349 -0.8017 -0.0957  0.6885
   60SAPC   H3R 4610   1.003   6.980  10.455  3.1867  2.0793 -0.3228
   60SAPC   H3S 4611   0.876   6.935  10.337 -0.7628  0.2319 -0.1884
   60SAPC   C24 4612   0.992   7.084  10.276 -0.3128 -0.4623  0.4716
   60SAPC   H4R 4613   1.091   7.133  10.279 -0.0284 -1.0413  2.6975
   60SAPC   H4S 4614   0.938   7.154  10.343  2.5669  1.9473  0.4772
   60SAPC   C25 4615   0.936   7.083  10.134  0.2251  0.3537 -0.3389
   60SAPC   H5R 4616   0.827   7.090  10.124  0.1244 -1.2259 -0.5388
   60SAPC   C26 4617   1.016   7.062  10.024  0.1982  0.2607  0.3891
   60SAPC   H6R 4618   0.969   7.075   9.925  0.6929 -4.2089 -0.6300
   60SAPC   C27 4619   1.163   7.046  10.019 -0.4413 -0.4772  0.2517
   60SAPC   H7R 4620   1.189   6.942   9.988 -0.0760 -0.1278 -0.6416
   60SAPC   H7S 4621   1.207   7.050  10.120 -0.1568  0.3366  0.1030
   60SAPC   C28 4622   1.243   7.128   9.917  0.3979  0.5086  0.4509
   60SAPC   H8R 4623   1.250   7.233   9.950 -0.0000  0.6939 -0.0555
   60SAPC   C29 4624   1.307   7.090   9.804  0.2647 -0.0391 -0.0863
   60SAPC   H9R 4625   1.359   7.165   9.743  1.5567 -2.3848 -2.0572
   60SAPC  C210 4626   1.305   6.946   9.751 -0.1190  0.1606  0.5689
   60SAPC  H10R 4627   1.197   6.922   9.747 -0.4053  1.4453  0.0035
   60SAPC  H10S 4628   1.344   6.865   9.816  0.6484  0.6530  0.7310
   60SAPC  C211 4629   1.360   6.928   9.612  0.0078 -0.0684 -0.2393
   60SAPC  H11R 4630   1.459   6.882   9.598  0.1328 -0.1584  0.8319
   60SAPC  C212 4631   1.303   6.970   9.502  0.1119 -0.3307  0.3497
   60SAPC  H12R 4632   1.358   6.952   9.409 -0.2447  0.1859  0.0366
   60SAPC  C213 4633   1.169   7.046   9.492  0.5543  0.2103  0.4200
   60SAPC  H13R 4634   1.188   7.155   9.493  1.4588  0.1186  3.2058
   60SAPC  H13S 4635   1.099   7.019   9.574 -2.1424  0.2400 -1.7335
   60SAPC  C214 4636   1.098   7.005   9.362  0.1162 -0.4118 -0.3823
   60SAPC  H14R 4637   1.036   6.915   9.376  0.1337 -0.1548  1.8084
   60SAPC  C215 4638   1.087   7.079   9.250  0.1862 -0.0116 -0.4354
   60SAPC  H15R 4639   1.023   7.046   9.167 -1.8663  1.1373  0.5991
   60SAPC  C216 4640   1.150   7.214   9.229  0.1185 -0.1126 -0.2582
   60SAPC  H16R 4641   1.240   7.233   9.291 -0.5576 -0.7918  0.9787
   60SAPC  H16S 4642   1.081   7.297   9.254  0.3651 -0.1901  0.7302
   60SAPC  C217 4643   1.179   7.220   9.083  0.0176  0.0762  0.3903
   60SAPC  H17R 4644   1.246   7.134   9.060  1.5537  0.9407  1.4240
   60SAPC  H17S 4645   1.242   7.311   9.071  0.8290 -0.3787  1.0592
   60SAPC  C218 4646   1.059   7.248   8.993 -0.3908 -0.2171 -0.0297
   60SAPC  H18R 4647   1.023   7.338   9.048  2.8254  0.8143  0.6303
   60SAPC  H18S 4648   0.983   7.171   9.019 -1.0118  1.0010  2.0280
   60SAPC  C219 4649   1.090   7.242   8.840  0.3303 -0.4823 -0.3595
   60SAPC  H19R 4650   1.121   7.146   8.794 -1.9702 -1.4662  0.0313
   60SAPC  H19S 4651   1.181   7.303   8.822  0.3003 -0.6364 -1.0669
   60SAPC  C220 4652   0.986   7.303   8.754 -0.0541  0.4915 -0.1664
   60SAPC  H20R 4653   0.939   7.397   8.787 -2.5648 -0.6601 -0.2048
   60SAPC  H20S 4654   0.902   7.231   8.748 -0.9199  1.5415 -1.0107
   60SAPC  H20T 4655   1.032   7.310   8.653  1.4658 -1.1607  0.3558
   60SAPC   C33 4656   1.918   6.891  10.288 -0.3107 -0.3443 -0.4934
   60SAPC   H3X 4657   1.862   6.860  10.198  0.0163 -0.9954 -0.4787
   60SAPC   H3Y 4658   1.990   6.808  10.303  0.4256  0.3437 -0.1079
   60SAPC   C34 4659   1.998   7.010  10.248 -0.0147  0.1095  0.2174
   60SAPC   H4X 4660   2.074   7.033  10.325 -0.8371 -2.1833  1.7884
   60SAPC   H4Y 4661   1.934   7.101  10.239 -0.3960 -0.1453  0.3584
   60SAPC   C35 4662   2.072   6.988  10.115  0.3040 -0.2597 -0.3826
   60SAPC   H5X 4663   1.996   6.985  10.034 -1.3952  0.2975  1.1337
   60SAPC   H5Y 4664   2.132   6.895  10.111  1.0973  0.2635 -0.7486
   60SAPC   C36 4665   2.169   7.108  10.089  0.6164 -0.5357  0.6577
   60SAPC   H6X 4666   2.264   7.094  10.146  1.5832 -1.0842 -1.0119
   60SAPC   H6Y 4667   2.110   7.196  10.120  0.9782 -0.4644  1.1802
   60SAPC   C37 4668   2.208   7.130   9.944  1.0913 -0.7562 -0.1126
   60SAPC   H7X 4669   2.290   7.206   9.942 -0.4090  0.9189 -0.4668
   60SAPC   H7Y 4670   2.123   7.165   9.881  1.2027 -0.7462 -0.2587
   60SAPC   C38 4671   2.282   7.008   9.887  0.5825 -0.6274 -0.1063
   60SAPC   H8X 4672   2.216   6.921   9.904 -1.9370  1.2470  0.2237
   60SAPC   H8Y 4673   2.380   6.985   9.936  0.4052 -2.4248 -0.5236
   60SAPC   C39 4674   2.309   7.031   9.734  0.1182  0.8343  0.7387
   60SAPC   H9X 4675   2.216   7.073   9.691  0.9923  2.4632  0.3824
   60SAPC   H9Y 4676   2.339   6.933   9.691 -1.6343  0.8096 -0.5537
   60SAPC  C310 4677   2.422   7.124   9.706 -0.1659  0.1045 -0.1463
   60SAPC  H10X 4678   2.518   7.082   9.742  0.2137  1.5864  0.6420
   60SAPC  H10Y 4679   2.408   7.218   9.762  1.7489  0.0117  0.5584
   60SAPC  C311 4680   2.423   7.170   9.552 -0.2635 -0.1233  0.7820
   60SAPC  H11X 4681   2.495   7.253   9.537 -0.0592 -0.1719  1.4295
   60SAPC  H11Y 4682   2.328   7.226   9.545  0.2214  0.5621 -0.6578
   60SAPC  C312 4683   2.431   7.064   9.440  0.3914 -0.7170  0.0343
   60SAPC  H12X 4684   2.333   7.012   9.429  0.6846 -1.7150  1.7220
   60SAPC  H12Y 4685   2.498   6.982   9.473  0.3981  0.4086  3.1466
   60SAPC  C313 4686   2.468   7.115   9.299 -0.3518 -0.3175 -0.0257
   60SAPC  H13X 4687   2.571   7.155   9.299 -0.0084 -1.1280 -1.6626
   60SAPC  H13Y 4688   2.387   7.189   9.280 -0.8759 -0.5325  1.2877
   60SAPC  C314 4689   2.442   7.013   9.189  0.2258 -0.0471 -0.4759
   60SAPC  H14X 4690   2.335   6.990   9.208  0.4292  1.2309  2.8253
   60SAPC  H14Y 4691   2.494   6.922   9.228  0.9597  0.8112  0.6052
   60SAPC  C315 4692   2.479   7.052   9.050  0.0485  0.2034  0.3966
   60SAPC  H15X 4693   2.438   6.975   8.980 -2.5699  1.9756 -0.1681
   60SAPC  H15Y 4694   2.588   7.043   9.033 -0.0352 -1.9036  0.6501
   60SAPC  C316 4695   2.407   7.182   9.004 -0.1751  0.6153 -0.0518
   60SAPC  H16X 4696   2.427   7.260   9.080 -0.0298  1.4998 -0.9846
   60SAPC  H16Y 4697   2.297   7.174   9.003 -0.2268  1.2910 -0.1445
   60SAPC  C317 4698   2.459   7.217   8.865  0.8473 -0.0488  0.6081
   60SAPC  H17X 4699   2.507   7.128   8.820 -3.0507 -2.2752  0.3712
   60SAPC  H17Y 4700   2.536   7.294   8.885  2.4156 -0.9331 -1.6677
   60SAPC  C318 4701   2.356   7.271   8.768 -1.1093  0.2650  0.0472
   60SAPC  H18X 4702   2.304   7.359   8.810  2.1934  1.2193  2.5691
   60SAPC  H18Y 4703   2.273   7.199   8.752 -3.0001  2.3479  0.0572
   60SAPC  H18Z 4704   2.409   7.285   8.672  0.9992 -1.9791  0.7633
   61SAPC     N 4705   2.091   3.694  11.029  0.4964 -0.1057 -0.1663
   61SAPC   C12 4706   2.141   3.841  11.044 -0.3575 -0.0052  0.0098
   61SAPC  H12A 4707   2.180   3.856  11.143 -0.0919 -1.9241  0.2444
   61SAPC  H12B 4708   2.054   3.903  11.033  0.4638  0.9979 -1.0074
   61SAPC   C13 4709   2.024   3.688  10.903 -0.1167  0.3248 -0.2451
   61SAPC  H13A 4710   1.934   3.748  10.902  1.2395  2.6856  2.8617
   61SAPC  H13B 4711   2.098   3.726  10.835  0.9427 -1.3815 -0.1245
   61SAPC  H13C 4712   1.987   3.592  10.870 -3.2163  0.7570  1.4932
   61SAPC   C14 4713   2.205   3.598  11.031  0.5808  0.0649 -0.9193
   61SAPC  H14A 4714   2.177   3.497  11.008 -0.0933  0.3404 -1.3348
   61SAPC  H14B 4715   2.287   3.625  10.967  1.3336  0.4061  0.1589
   61SAPC  H14C 4716   2.248   3.605  11.130 -0.4435  0.4987 -0.4897
   61SAPC   C15 4717   2.006   3.666  11.151 -0.9504 -0.4698  0.4257
   61SAPC  H15A 4718   1.957   3.570  11.142 -2.4009  0.2738  0.0019
   61SAPC  H15B 4719   2.059   3.684  11.243 -4.0172  0.4717  2.1788
   61SAPC  H15C 4720   1.923   3.735  11.155 -1.3944 -0.7330 -2.4238
   61SAPC   C11 4721   2.233   3.905  10.933 -0.2584  0.2101  0.7147
   61SAPC  H11A 4722   2.261   4.009  10.961 -0.0207 -0.1526  1.8777
   61SAPC  H11B 4723   2.163   3.907  10.846 -0.7309 -3.1243  0.9009
   61SAPC     P 4724   2.493   3.868  10.961  0.0759 -0.1347  0.0966
   61SAPC   O13 4725   2.467   3.938  11.088  0.2931 -0.2816 -0.3330
   61SAPC   O14 4726   2.557   3.741  10.952 -0.8973  0.1011  0.1477
   61SAPC   O12 4727   2.352   3.834  10.894  0.1744 -0.6883 -0.4613
   61SAPC   O11 4728   2.556   3.969  10.857 -0.2889 -0.5614  0.2080
   61SAPC    C1 4729   2.558   3.955  10.711  0.0601  0.1139 -0.3264
   61SAPC    HA 4730   2.657   3.920  10.674 -0.0414  0.6452 -1.1172
   61SAPC    HB 4731   2.485   3.877  10.681 -0.3331  0.6785 -0.8605
   61SAPC    C2 4732   2.536   4.092  10.640  0.2524  0.6787  0.0995
   61SAPC    HS 4733   2.628   4.147  10.670  0.4971  0.4169 -0.1631
   61SAPC   O21 4734   2.417   4.158  10.692  0.4621 -0.4210  0.3495
   61SAPC   C21 4735   2.428   4.297  10.685 -0.0793 -0.2488 -0.6497
   61SAPC   O22 4736   2.513   4.359  10.632 -0.2067 -0.0729  0.9574
   61SAPC   C22 4737   2.313   4.360  10.762  0.6904 -0.0789  0.4802
   61SAPC   H2R 4738   2.240   4.277  10.772  0.5216  0.0560  0.3746
   61SAPC   H2S 4739   2.337   4.405  10.861  1.5494  1.8838 -0.5546
   61SAPC    C3 4740   2.534   4.066  10.481  0.1428  0.2433 -0.3530
   61SAPC    HX 4741   2.447   4.000  10.459  0.0275 -0.0127  0.7884
   61SAPC    HY 4742   2.620   3.996  10.472  0.5264  0.6458  0.1471
   61SAPC   O31 4743   2.531   4.180  10.398  0.2283 -0.1399  0.3128
   61SAPC   C31 4744   2.652   4.223  10.368  0.1607  0.1432  0.8390
   61SAPC   O32 4745   2.752   4.170  10.410  0.9706 -0.0368  0.1708
   61SAPC   C32 4746   2.641   4.329  10.255 -0.1855  1.3010  0.8109
   61SAPC   H2X 4747   2.606   4.422  10.305 -1.3963  1.0234  0.5050
   61SAPC   H2Y 4748   2.565   4.285  10.187  2.1973 -3.5622  0.8273
   61SAPC   C23 4749   2.230   4.452  10.672 -0.6940 -0.9444 -0.5091
   61SAPC   H3R 4750   2.133   4.463  10.725  0.0297 -0.6468  0.7958
   61SAPC   H3S 4751   2.204   4.417  10.569 -0.5470  0.3603 -1.0164
   61SAPC   C24 4752   2.282   4.599  10.663 -0.1082  1.0827 -0.1935
   61SAPC   H4R 4753   2.390   4.587  10.641 -0.5066 -2.5993 -0.7792
   61SAPC   H4S 4754   2.277   4.640  10.766 -2.4521 -1.0758  0.6631
   61SAPC   C25 4755   2.208   4.689  10.569 -0.0157 -0.4692  0.0165
   61SAPC   H5R 4756   2.138   4.754  10.623  0.6468 -0.7165  1.2216
   61SAPC   C26 4757   2.208   4.701  10.441 -1.1244 -0.5419  0.6372
   61SAPC   H6R 4758   2.145   4.780  10.399  0.0708  0.0731 -0.0533
   61SAPC   C27 4759   2.289   4.617  10.340 -0.3933 -0.2911 -0.2505
   61SAPC   H7R 4760   2.326   4.529  10.396 -0.3145  0.8333  1.5592
   61SAPC   H7S 4761   2.374   4.673  10.297 -1.1155  0.5476 -0.6156
   61SAPC   C28 4762   2.189   4.571  10.237 -0.3722 -0.4921 -0.1202
   61SAPC   H8R 4763   2.094   4.542  10.284 -0.9332 -1.0159 -1.5508
   61SAPC   C29 4764   2.207   4.577  10.105  0.3670 -0.4419 -0.0293
   61SAPC   H9R 4765   2.128   4.534  10.041 -0.4972 -1.8277  1.8570
   61SAPC  C210 4766   2.321   4.637  10.027  0.4454 -0.2904 -0.0945
   61SAPC  H10R 4767   2.397   4.675  10.099 -0.9228 -1.0233  1.8221
   61SAPC  H10S 4768   2.278   4.722   9.971 -1.0103  1.1128  2.9580
   61SAPC  C211 4769   2.374   4.533   9.928  0.6923  0.2138  0.0053
   61SAPC  H11R 4770   2.392   4.438   9.979  1.1288 -0.1239 -0.7754
   61SAPC  C212 4771   2.385   4.534   9.797  0.7487 -0.6350  0.7360
   61SAPC  H12R 4772   2.414   4.437   9.752 -0.6328 -0.0863 -1.4468
   61SAPC  C213 4773   2.370   4.650   9.704 -0.3164  0.3913 -0.3808
   61SAPC  H13R 4774   2.392   4.735   9.772  0.7513 -1.0771  1.1580
   61SAPC  H13S 4775   2.267   4.669   9.666 -1.2464 -1.5255  1.0406
   61SAPC  C214 4776   2.481   4.647   9.607 -0.3124  0.6453 -0.4671
   61SAPC  H14R 4777   2.577   4.657   9.660 -2.6331  2.9581  3.8527
   61SAPC  C215 4778   2.472   4.659   9.474  0.5973 -0.4803 -0.0888
   61SAPC  H15R 4779   2.569   4.646   9.425  1.8127 -0.0265  2.0651
   61SAPC  C216 4780   2.348   4.691   9.393  0.0562  0.2801  0.7707
   61SAPC  H16R 4781   2.282   4.747   9.463 -1.0672  0.3284 -0.3105
   61SAPC  H16S 4782   2.285   4.603   9.368  1.6180 -0.7040  0.1087
   61SAPC  C217 4783   2.377   4.775   9.258 -0.4817 -0.5053 -0.3951
   61SAPC  H17R 4784   2.471   4.834   9.257 -0.2922 -0.7692 -1.9766
   61SAPC  H17S 4785   2.284   4.836   9.248 -1.1135 -1.5577 -1.3013
   61SAPC  C218 4786   2.390   4.682   9.131 -0.0328 -0.5972 -0.0709
   61SAPC  H18R 4787   2.306   4.610   9.127  1.4225 -2.3231 -1.3351
   61SAPC  H18S 4788   2.483   4.621   9.143  0.2619 -0.2179 -0.4092
   61SAPC  C219 4789   2.391   4.766   9.001 -0.4858 -0.3367  0.7795
   61SAPC  H19R 4790   2.466   4.847   9.015 -0.9676  0.3243 -0.2549
   61SAPC  H19S 4791   2.299   4.825   8.983 -0.8291 -1.6421 -2.4795
   61SAPC  C220 4792   2.420   4.686   8.873 -0.2089 -0.5979  0.2290
   61SAPC  H20R 4793   2.513   4.627   8.883 -0.3883 -0.9691 -0.2229
   61SAPC  H20S 4794   2.406   4.739   8.776 -2.9218  1.5623  1.6573
   61SAPC  H20T 4795   2.345   4.604   8.866 -2.1014  0.7895  2.3664
   61SAPC   C33 4796   2.781   4.343  10.193 -0.2005  0.2682  0.6962
   61SAPC   H3X 4797   2.828   4.244  10.175  0.2145  0.5556  0.1949
   61SAPC   H3Y 4798   2.852   4.402  10.255  1.2602 -1.6987  1.0034
   61SAPC   C34 4799   2.779   4.413  10.056  0.5103  0.2532  0.5422
   61SAPC   H4X 4800   2.878   4.463  10.051  0.3836  0.4471 -0.0536
   61SAPC   H4Y 4801   2.696   4.487  10.059 -1.8554 -1.8797 -3.5619
   61SAPC   C35 4802   2.774   4.308   9.945  0.4185  0.1752  1.1519
   61SAPC   H5X 4803   2.675   4.258   9.944 -0.2045  1.0342 -3.1125
   61SAPC   H5Y 4804   2.863   4.242   9.952  0.3109  0.1169  2.0096
   61SAPC   C36 4805   2.792   4.387   9.818  0.4441  0.1915  0.1257
   61SAPC   H6X 4806   2.889   4.440   9.806  0.2142  0.3100 -1.5299
   61SAPC   H6Y 4807   2.714   4.466   9.816  1.2177  1.0591 -3.4206
   61SAPC   C37 4808   2.784   4.308   9.686  0.3265  0.4137 -0.2224
   61SAPC   H7X 4809   2.863   4.229   9.687 -0.6428 -0.5797  0.7423
   61SAPC   H7Y 4810   2.815   4.384   9.612 -0.1813  0.9893  0.1473
   61SAPC   C38 4811   2.647   4.245   9.655 -0.0417  0.3084  0.3215
   61SAPC   H8X 4812   2.565   4.318   9.670 -0.6169 -0.2784  0.0539
   61SAPC   H8Y 4813   2.630   4.157   9.720 -0.4096  0.8142  0.9201
   61SAPC   C39 4814   2.652   4.190   9.509  0.1674 -0.3580  0.4333
   61SAPC   H9X 4815   2.581   4.105   9.513  0.1360 -0.3219  0.6487
   61SAPC   H9Y 4816   2.753   4.149   9.486  0.3375  0.2615  0.0367
   61SAPC  C310 4817   2.610   4.295   9.407  0.2945  0.9170 -0.1941
   61SAPC  H10X 4818   2.677   4.383   9.399 -0.9229  2.0113  1.0710
   61SAPC  H10Y 4819   2.507   4.328   9.429  0.4659  1.0396  0.4829
   61SAPC  C311 4820   2.613   4.228   9.269 -0.0790 -0.3548  1.2892
   61SAPC  H11X 4821   2.548   4.138   9.258  1.2630 -1.0363 -2.4880
   61SAPC  H11Y 4822   2.717   4.191   9.257 -0.8203 -1.7909 -1.6764
   61SAPC  C312 4823   2.586   4.328   9.152 -0.8760 -0.0143 -0.1118
   61SAPC  H12X 4824   2.661   4.408   9.135 -0.3136 -0.8007 -1.5340
   61SAPC  H12Y 4825   2.495   4.385   9.181 -0.6201 -0.1655  1.0158
   61SAPC  C313 4826   2.558   4.269   9.015 -0.0403  0.3419 -0.2257
   61SAPC  H13X 4827   2.486   4.337   8.964 -0.4789 -0.7356 -1.0890
   61SAPC  H13Y 4828   2.517   4.165   9.017 -2.2268  1.1484 -0.7809
   61SAPC  C314 4829   2.686   4.265   8.928  0.2103  0.3031 -0.1152
   61SAPC  H14X 4830   2.776   4.212   8.965  1.2217  0.5679 -2.0273
   61SAPC  H14Y 4831   2.718   4.371   8.915 -1.2270  0.5989 -1.5556
   61SAPC  C315 4832   2.659   4.222   8.781  0.1721  0.4651  0.2133
   61SAPC  H15X 4833   2.583   4.294   8.744 -2.8149 -2.1241  0.8434
   61SAPC  H15Y 4834   2.619   4.118   8.788 -1.9944  1.1620 -0.9234
   61SAPC  C316 4835   2.795   4.220   8.710  0.2029  0.0499  0.3529
   61SAPC  H16X 4836   2.849   4.136   8.759 -2.1139 -0.8186  1.5597
   61SAPC  H16Y 4837   2.858   4.309   8.734  0.7537 -0.5783  1.3072
   61SAPC  C317 4838   2.795   4.185   8.561 -0.4058 -0.1507 -0.5677
   61SAPC  H17X 4839   2.720   4.253   8.514 -1.2919 -0.7350 -0.0403
   61SAPC  H17Y 4840   2.772   4.076   8.560  2.0549 -0.7765  1.4534
   61SAPC  C318 4841   2.935   4.204   8.504 -0.1875  0.0737  0.1465
   61SAPC  H18X 4842   2.937   4.167   8.399 -0.8038 -0.1575  0.2117
   61SAPC  H18Y 4843   3.012   4.161   8.572 -0.0445 -0.9224 -0.6208
   61SAPC  H18Z 4844   2.954   4.313   8.507 -0.5704  0.1356  2.8684
   62SAPC     N 4845   1.324   4.475  11.102 -0.2516 -0.2558 -0.3208
   62SAPC   C12 4846   1.353   4.527  10.970 -0.2901  0.0492  0.0314
   62SAPC  H12A 4847   1.455   4.563  10.966  0.0671 -1.0175 -1.5332
   62SAPC  H12B 4848   1.294   4.613  10.943  1.3333  0.5556 -2.2536
   62SAPC   C13 4849   1.376   4.569  11.207  0.7244  0.5030  0.6960
   62SAPC  H13A 4850   1.372   4.527  11.307 -0.6247  0.8763  0.8207
   62SAPC  H13B 4851   1.477   4.593  11.180  1.0226 -1.1645  0.2147
   62SAPC  H13C 4852   1.319   4.661  11.216  0.8810  0.5011  1.8846
   62SAPC   C14 4853   1.178   4.476  11.130  0.7059  0.1683  0.5370
   62SAPC  H14A 4854   1.146   4.578  11.113  0.7658  0.2556  0.9559
   62SAPC  H14B 4855   1.129   4.429  11.046 -0.1286 -0.7614  1.5120
   62SAPC  H14C 4856   1.153   4.432  11.225 -0.2721 -0.0057  0.2091
   62SAPC   C15 4857   1.380   4.336  11.135  0.3814 -0.3460 -0.2220
   62SAPC  H15A 4858   1.341   4.294  11.227  2.1345 -1.0643  0.2213
   62SAPC  H15B 4859   1.345   4.273  11.055  4.0179  0.3635 -2.6230
   62SAPC  H15C 4860   1.487   4.335  11.147  0.2459  1.1739  1.7312
   62SAPC   C11 4861   1.338   4.426  10.855 -0.2836  0.5377 -0.5100
   62SAPC  H11A 4862   1.390   4.330  10.878 -1.7847  0.4220  3.1689
   62SAPC  H11B 4863   1.379   4.481  10.768 -2.1408  1.7986 -0.6340
   62SAPC     P 4864   1.107   4.488  10.753  0.3930 -0.3272 -0.1369
   62SAPC   O13 4865   0.987   4.408  10.719 -0.2142  0.1846  0.2662
   62SAPC   O14 4866   1.084   4.610  10.831 -0.1438  0.2329 -0.3200
   62SAPC   O12 4867   1.200   4.393  10.840 -0.4151 -0.6592  0.2197
   62SAPC   O11 4868   1.182   4.521  10.623 -0.8116 -0.3477  0.0156
   62SAPC    C1 4869   1.238   4.406  10.543 -0.0421  0.4943 -0.6232
   62SAPC    HA 4870   1.349   4.406  10.537  0.0712 -2.9978 -0.4913
   62SAPC    HB 4871   1.211   4.304  10.577  0.0729  0.6387 -0.0902
   62SAPC    C2 4872   1.193   4.412  10.395  0.8696  0.3094 -0.2504
   62SAPC    HS 4873   1.220   4.316  10.347  0.3507 -0.3382  0.7255
   62SAPC   O21 4874   1.255   4.527  10.330 -0.4266 -0.1076 -0.3638
   62SAPC   C21 4875   1.381   4.509  10.286  0.7164 -0.7978 -0.3413
   62SAPC   O22 4876   1.456   4.415  10.311  0.6469  0.7725 -0.1684
   62SAPC   C22 4877   1.404   4.622  10.185  0.0533 -0.1770 -0.0846
   62SAPC   H2R 4878   1.304   4.652  10.146 -0.2855 -2.2981 -1.0266
   62SAPC   H2S 4879   1.443   4.713  10.235 -0.2173 -0.3599  0.4599
   62SAPC    C3 4880   1.033   4.434  10.387  0.1540 -0.6490 -0.0132
   62SAPC    HX 4881   1.008   4.514  10.460 -0.9877  0.9967 -2.1138
   62SAPC    HY 4882   1.000   4.332  10.415  2.7524 -0.9364  2.4393
   62SAPC   O31 4883   0.998   4.470  10.249 -0.1821  0.9437  0.6184
   62SAPC   C31 4884   0.901   4.549  10.226  0.0606 -0.3624  0.2291
   62SAPC   O32 4885   0.840   4.611  10.313  0.6472  0.3193  0.0033
   62SAPC   C32 4886   0.879   4.547  10.073  0.4545  0.8743  0.0779
   62SAPC   H2X 4887   0.894   4.441  10.047 -1.3945  0.8502 -1.0945
   62SAPC   H2Y 4888   0.960   4.613  10.035  0.7079  0.1453 -0.6616
   62SAPC   C23 4889   1.480   4.574  10.053 -0.0656  0.0804 -0.3196
   62SAPC   H3R 4890   1.588   4.556  10.075  0.0515 -0.6043 -1.3664
   62SAPC   H3S 4891   1.485   4.663   9.986  1.6408 -1.3473 -2.2371
   62SAPC   C24 4892   1.426   4.455   9.980 -0.0164  0.3145  0.2050
   62SAPC   H4R 4893   1.476   4.360  10.009  1.0023 -0.3714 -3.2826
   62SAPC   H4S 4894   1.467   4.460   9.876 -0.1911 -0.7859  0.0704
   62SAPC   C25 4895   1.278   4.436   9.970  0.1046 -0.1364  0.5057
   62SAPC   H5R 4896   1.233   4.370  10.046 -0.2782 -2.0332 -1.2658
   62SAPC   C26 4897   1.196   4.475   9.875 -0.3219 -0.2926  0.1482
   62SAPC   H6R 4898   1.091   4.443   9.864 -0.0934 -0.8203 -0.6411
   62SAPC   C27 4899   1.237   4.550   9.751  0.2796 -0.3687  0.0895
   62SAPC   H7R 4900   1.346   4.543   9.730  0.2513  1.5209 -0.8930
   62SAPC   H7S 4901   1.216   4.659   9.750 -1.1110 -0.5722 -2.3717
   62SAPC   C28 4902   1.172   4.497   9.623 -0.4829  0.4402 -0.2125
   62SAPC   H8R 4903   1.066   4.467   9.633 -0.0036 -1.1139  0.5276
   62SAPC   C29 4904   1.227   4.477   9.500  0.8804 -0.4057 -0.1320
   62SAPC   H9R 4905   1.165   4.440   9.416 -0.2170  0.4450  0.2746
   62SAPC  C210 4906   1.373   4.493   9.476  0.3720 -0.5309  0.4086
   62SAPC  H10R 4907   1.403   4.422   9.396 -1.8202 -3.4536  2.0142
   62SAPC  H10S 4908   1.429   4.453   9.563  1.8449 -0.3412 -0.4205
   62SAPC  C211 4909   1.417   4.633   9.431  0.3906  0.2071  0.6167
   62SAPC  H11R 4910   1.510   4.667   9.478 -0.0261  2.5959 -0.1667
   62SAPC  C212 4911   1.364   4.722   9.339 -0.1292 -0.4592  0.3530
   62SAPC  H12R 4912   1.418   4.818   9.334  0.3320 -0.7378 -0.2259
   62SAPC  C213 4913   1.239   4.708   9.250 -0.5353  0.3351  0.3132
   62SAPC  H13R 4914   1.164   4.789   9.268 -0.7089 -0.0454  1.3443
   62SAPC  H13S 4915   1.190   4.610   9.263 -1.0013  0.2982 -1.4869
   62SAPC  C214 4916   1.268   4.731   9.103 -0.4314 -0.0851 -0.3169
   62SAPC  H14R 4917   1.284   4.634   9.054  0.0007  0.5166 -1.3999
   62SAPC  C215 4918   1.288   4.845   9.025 -0.3047  0.5760 -0.1199
   62SAPC  H15R 4919   1.319   4.840   8.919  1.6413 -1.9930  0.4665
   62SAPC  C216 4920   1.262   4.982   9.079  0.0317 -0.3648  0.1011
   62SAPC  H16R 4921   1.307   5.062   9.017 -0.7562  1.3633  1.6512
   62SAPC  H16S 4922   1.319   4.993   9.174  0.3114 -0.1751 -0.0880
   62SAPC  C217 4923   1.116   5.017   9.090 -0.6279 -0.3771  0.3069
   62SAPC  H17R 4924   1.096   5.107   9.151 -1.3533  0.5949 -1.3008
   62SAPC  H17S 4925   1.066   4.933   9.143  1.4326 -2.6565 -1.1419
   62SAPC  C218 4926   1.057   5.050   8.950 -0.2448  0.0970 -0.3760
   62SAPC  H18R 4927   1.066   4.965   8.879 -3.4159  0.2257 -1.0950
   62SAPC  H18S 4928   1.106   5.142   8.912  0.7741  0.8665  2.5522
   62SAPC  C219 4929   0.901   5.071   8.959 -0.4213  0.2753 -0.0134
   62SAPC  H19R 4930   0.878   5.141   9.043  1.7297  1.3485 -0.2543
   62SAPC  H19S 4931   0.869   4.972   9.000 -0.5733 -0.1346 -1.0908
   62SAPC  C220 4932   0.834   5.105   8.829  0.1637 -0.0322  0.1305
   62SAPC  H20R 4933   0.843   5.023   8.755  1.8893 -0.0664  0.3400
   62SAPC  H20S 4934   0.875   5.198   8.785 -0.1936  0.7827  1.4572
   62SAPC  H20T 4935   0.726   5.121   8.851 -0.1335 -0.9712 -0.5814
   62SAPC   C33 4936   0.739   4.581  10.030  0.5359 -0.6739  0.2205
   62SAPC   H3X 4937   0.714   4.675  10.083 -0.5317 -1.9645  2.1508
   62SAPC   H3Y 4938   0.659   4.515  10.070 -0.9803  0.3855 -0.9542
   62SAPC   C34 4939   0.722   4.596   9.878  0.5588  0.1974 -0.5069
   62SAPC   H4X 4940   0.780   4.682   9.839  2.2208 -0.3932  0.5050
   62SAPC   H4Y 4941   0.613   4.613   9.868  0.7599  2.7377  0.7913
   62SAPC   C35 4942   0.767   4.468   9.811 -0.1135 -0.0138  0.3739
   62SAPC   H5X 4943   0.727   4.383   9.872  1.2597  0.5771  2.1870
   62SAPC   H5Y 4944   0.876   4.456   9.825 -0.3805 -3.1937  0.5265
   62SAPC   C36 4945   0.743   4.469   9.659 -0.0194  1.0714 -0.3952
   62SAPC   H6X 4946   0.756   4.362   9.635 -0.2693  0.6490  1.2036
   62SAPC   H6Y 4947   0.829   4.526   9.618  0.6629 -0.8089 -1.7209
   62SAPC   C37 4948   0.603   4.513   9.614 -0.2517  0.0426 -0.1219
   62SAPC   H7X 4949   0.583   4.622   9.609 -0.0088  0.0718 -0.5222
   62SAPC   H7Y 4950   0.526   4.471   9.682 -0.7129  0.0850 -0.6141
   62SAPC   C38 4951   0.576   4.454   9.481 -0.5135  0.3355 -0.3760
   62SAPC   H8X 4952   0.467   4.462   9.461 -0.3263  0.6893 -1.3371
   62SAPC   H8Y 4953   0.603   4.347   9.479 -1.3086  0.1316 -0.5395
   62SAPC   C39 4954   0.669   4.527   9.378  0.0850 -0.0538 -0.0376
   62SAPC   H9X 4955   0.775   4.519   9.410 -0.0883  1.3298  0.9434
   62SAPC   H9Y 4956   0.644   4.632   9.354  2.4861  0.8732  1.2579
   62SAPC  C310 4957   0.670   4.447   9.247  0.3859 -0.2264 -0.1775
   62SAPC  H10X 4958   0.569   4.464   9.204 -0.2779 -1.0229  1.0098
   62SAPC  H10Y 4959   0.677   4.338   9.266 -0.5920  0.1994  3.3192
   62SAPC  C311 4960   0.787   4.489   9.163 -0.1680 -0.5410  0.4770
   62SAPC  H11X 4961   0.881   4.488   9.221  0.9193 -0.7631 -1.2160
   62SAPC  H11Y 4962   0.776   4.593   9.125  2.3940 -0.6622 -0.8235
   62SAPC  C312 4963   0.807   4.392   9.035 -0.3784  0.0971 -0.2159
   62SAPC  H12X 4964   0.707   4.376   8.991 -0.3489  1.6684 -0.9284
   62SAPC  H12Y 4965   0.845   4.295   9.075  1.0789  0.9766  0.6238
   62SAPC  C313 4966   0.899   4.441   8.921  0.3038 -0.2343 -0.1388
   62SAPC  H13X 4967   0.887   4.361   8.845 -0.1011  1.3150 -1.8075
   62SAPC  H13Y 4968   1.006   4.435   8.948  0.1119  2.6670  1.7064
   62SAPC  C314 4969   0.845   4.577   8.865  0.4168 -0.2003  0.1105
   62SAPC  H14X 4970   0.868   4.666   8.927 -2.1727  0.8229 -0.3063
   62SAPC  H14Y 4971   0.735   4.573   8.857  0.3517  1.4228 -0.0981
   62SAPC  C315 4972   0.896   4.607   8.729 -0.3477  0.2736 -0.5841
   62SAPC  H15X 4973   0.916   4.508   8.683 -0.6824 -0.1953  0.2536
   62SAPC  H15Y 4974   0.993   4.660   8.735 -0.6506  0.7140  0.6107
   62SAPC  C316 4975   0.793   4.688   8.633 -0.0595 -0.2313  0.4370
   62SAPC  H16X 4976   0.850   4.734   8.549  1.3992 -0.2589  1.3862
   62SAPC  H16Y 4977   0.735   4.766   8.688  0.2372  1.4500 -1.4979
   62SAPC  C317 4978   0.683   4.604   8.557  1.1438 -0.3892  0.2681
   62SAPC  H17X 4979   0.610   4.571   8.634  0.8784  3.3317  1.8029
   62SAPC  H17Y 4980   0.731   4.522   8.500  0.1942 -0.5939 -0.2520
   62SAPC  C318 4981   0.606   4.696   8.456 -0.3206  0.4840  0.3013
   62SAPC  H18X 4982   0.684   4.740   8.390  0.7325  1.5514  2.1815
   62SAPC  H18Y 4983   0.552   4.774   8.515 -3.0419  0.9077 -2.4726
   62SAPC  H18Z 4984   0.527   4.643   8.399 -1.5690  2.6000 -0.0367
   63SAPC     N 4985   3.566   4.305   6.252  0.1523  0.1913 -0.9374
   63SAPC   C12 4986   3.559   4.153   6.266 -0.6654  0.1628 -0.5189
   63SAPC  H12A 4987   3.522   4.109   6.175 -1.6622  0.1153 -0.1052
   63SAPC  H12B 4988   3.475   4.139   6.333 -1.4826  1.6133 -1.1777
   63SAPC   C13 4989   3.592   4.372   6.392  0.0567  0.0291  0.0345
   63SAPC  H13A 4990   3.679   4.337   6.446  0.6549  2.1106  0.5493
   63SAPC  H13B 4991   3.612   4.476   6.366  0.4673 -0.2974 -1.0377
   63SAPC  H13C 4992   3.506   4.347   6.452 -1.0816  0.0425 -1.5344
   63SAPC   C14 4993   3.680   4.349   6.159  0.4075 -0.2852  0.2834
   63SAPC  H14A 4994   3.754   4.272   6.180  0.6425  0.4125  2.1721
   63SAPC  H14B 4995   3.641   4.336   6.059 -2.2730  0.5009  1.1563
   63SAPC  H14C 4996   3.710   4.450   6.179 -0.1062 -0.4928  2.3402
   63SAPC   C15 4997   3.442   4.368   6.196  0.5305 -0.0907 -0.1290
   63SAPC  H15A 4998   3.368   4.380   6.275  0.4406 -2.2304  0.1577
   63SAPC  H15B 4999   3.463   4.470   6.167  1.9538 -0.2916  0.1469
   63SAPC  H15C 5000   3.396   4.310   6.118  0.2280 -1.0490  0.7427
   63SAPC   C11 5001   3.690   4.081   6.304 -0.0635  0.0999  0.0590
   63SAPC  H11A 5002   3.653   3.985   6.346 -0.1131 -0.1975 -0.6527
   63SAPC  H11B 5003   3.747   4.133   6.384 -0.6697 -2.4828  2.3538
   63SAPC     P 5004   3.897   3.962   6.188  0.4086 -0.0734  0.1465
   63SAPC   O13 5005   3.880   3.851   6.282  0.1620 -0.4124  0.2210
   63SAPC   O14 5006   3.939   3.935   6.047 -0.1258 -0.0630 -0.6023
   63SAPC   O12 5007   3.766   4.051   6.187 -0.5481 -0.2444 -0.5404
   63SAPC   O11 5008   4.008   4.058   6.240  0.0405 -0.2570 -0.4854
   63SAPC    C1 5009   4.047   4.175   6.163  0.2655 -0.4943  0.1953
   63SAPC    HA 5010   4.114   4.142   6.079 -0.1254  0.6731 -0.5947
   63SAPC    HB 5011   3.965   4.237   6.121  0.0650  1.7217  3.5421
   63SAPC    C2 5012   4.126   4.272   6.257 -1.0848 -0.2062  0.2384
   63SAPC    HS 5013   4.216   4.221   6.298  0.4028  1.6054 -0.6159
   63SAPC   O21 5014   4.035   4.335   6.353  0.0333  0.9947  0.0276
   63SAPC   C21 5015   4.092   4.331   6.473 -0.3832  0.1774 -0.1882
   63SAPC   O22 5016   4.186   4.258   6.506  0.3167 -0.1597  0.2522
   63SAPC   C22 5017   4.021   4.423   6.568  0.0076  0.5321 -0.1326
   63SAPC   H2R 5018   3.923   4.453   6.525  0.1855  3.0708  1.0148
   63SAPC   H2S 5019   3.996   4.363   6.658  0.1038  0.2142 -0.3190
   63SAPC    C3 5020   4.197   4.396   6.179 -0.0113 -0.3819 -0.2057
   63SAPC    HX 5021   4.129   4.457   6.116 -0.1667  1.0502  1.2995
   63SAPC    HY 5022   4.275   4.365   6.106  0.3837  3.0377 -1.4267
   63SAPC   O31 5023   4.246   4.492   6.267  0.2710 -0.0288  0.5565
   63SAPC   C31 5024   4.368   4.459   6.321  0.2438 -0.9764  0.5173
   63SAPC   O32 5025   4.427   4.353   6.306 -0.2443  0.0291  0.3393
   63SAPC   C32 5026   4.434   4.584   6.382  0.2503 -0.1911 -0.2485
   63SAPC   H2X 5027   4.351   4.657   6.394  1.6834  1.6381 -1.0919
   63SAPC   H2Y 5028   4.493   4.635   6.303 -1.1660  1.1123 -0.5236
   63SAPC   C23 5029   4.095   4.560   6.597 -0.3362 -1.1266 -0.8551
   63SAPC   H3R 5030   4.095   4.628   6.510 -0.3507 -1.3571 -1.0363
   63SAPC   H3S 5031   4.205   4.543   6.604  0.0493  1.5177  1.6458
   63SAPC   C24 5032   4.035   4.632   6.722 -0.1184 -0.4138 -0.0886
   63SAPC   H4R 5033   4.035   4.563   6.809 -0.5095  1.6930  1.6677
   63SAPC   H4S 5034   3.928   4.646   6.695 -0.3652 -3.5827 -1.2525
   63SAPC   C25 5035   4.109   4.762   6.769  0.2737  0.1792 -0.6292
   63SAPC   H5R 5036   4.139   4.827   6.686  1.2192 -0.0440 -0.4855
   63SAPC   C26 5037   4.156   4.785   6.895  1.0686 -0.3336  0.5621
   63SAPC   H6R 5038   4.193   4.886   6.915  0.2455 -0.4741  3.0937
   63SAPC   C27 5039   4.139   4.697   7.017 -0.3274 -0.3972 -0.3236
   63SAPC   H7R 5040   4.135   4.588   6.996  1.0223 -0.4593 -0.3934
   63SAPC   H7S 5041   4.048   4.722   7.074 -1.3896  0.4567 -2.2803
   63SAPC   C28 5042   4.266   4.719   7.094  0.3239  0.2274  0.2542
   63SAPC   H8R 5043   4.354   4.680   7.040  1.4602  0.7334  1.6481
   63SAPC   C29 5044   4.284   4.749   7.224 -0.0566  0.3268  0.2857
   63SAPC   H9R 5045   4.385   4.764   7.264  1.3315  0.7789 -3.0193
   63SAPC  C210 5046   4.168   4.771   7.320  1.0901 -0.4376 -0.3874
   63SAPC  H10R 5047   4.195   4.719   7.414  0.3708  2.9318  1.8489
   63SAPC  H10S 5048   4.068   4.731   7.291  0.4129  1.4639 -0.8115
   63SAPC  C211 5049   4.142   4.916   7.368 -0.0708 -0.7496  0.2433
   63SAPC  H11R 5050   4.145   4.985   7.282 -0.5730 -1.8210 -0.6714
   63SAPC  C212 5051   4.132   4.968   7.493  0.0608 -0.1377 -0.7274
   63SAPC  H12R 5052   4.115   5.076   7.504 -0.9559 -0.1661 -1.9122
   63SAPC  C213 5053   4.144   4.898   7.629 -0.0041 -0.1701  0.5587
   63SAPC  H13R 5054   4.241   4.926   7.674 -0.0338 -2.9340  2.5948
   63SAPC  H13S 5055   4.146   4.790   7.603 -1.1828  0.0089 -0.3867
   63SAPC  C214 5056   4.036   4.937   7.725 -1.0383 -0.9669 -0.8480
   63SAPC  H14R 5057   3.934   4.958   7.690  0.0679  1.2395 -3.0875
   63SAPC  C215 5058   4.061   4.944   7.860 -0.0364 -0.5057 -0.5854
   63SAPC  H15R 5059   3.989   4.985   7.932  2.6939  0.6408  1.6921
   63SAPC  C216 5060   4.180   4.907   7.945 -1.0811  0.5206  0.4177
   63SAPC  H16R 5061   4.265   4.966   7.905  0.7116 -2.3383 -0.3475
   63SAPC  H16S 5062   4.202   4.800   7.925 -1.4834 -0.0641  2.7298
   63SAPC  C217 5063   4.175   4.926   8.100 -0.2519 -0.2324 -0.0052
   63SAPC  H17R 5064   4.098   4.861   8.147  0.8126 -1.0634  0.6329
   63SAPC  H17S 5065   4.157   5.035   8.107 -1.3352 -0.3313 -0.8633
   63SAPC  C218 5066   4.311   4.890   8.166 -0.0293 -0.1343 -0.7784
   63SAPC  H18R 5067   4.385   4.954   8.114 -1.4112  2.6358  0.4444
   63SAPC  H18S 5068   4.334   4.783   8.149  0.1012 -0.2835  0.2468
   63SAPC  C219 5069   4.305   4.907   8.322  0.4219 -0.4631 -0.2709
   63SAPC  H19R 5070   4.232   4.842   8.375  1.7957 -1.4066  0.5219
   63SAPC  H19S 5071   4.256   5.006   8.334  0.7767 -0.2263 -0.7293
   63SAPC  C220 5072   4.443   4.907   8.391  0.3412 -0.0966 -0.8025
   63SAPC  H20R 5073   4.490   5.005   8.369  0.6461  0.3669  1.5770
   63SAPC  H20S 5074   4.512   4.827   8.359  2.3434  0.7350  1.2173
   63SAPC  H20T 5075   4.432   4.898   8.501 -0.7291 -3.0663 -1.0758
   63SAPC   C33 5076   4.516   4.554   6.512  0.3388 -0.0501  0.4158
   63SAPC   H3X 5077   4.605   4.488   6.504  0.1802 -0.1018 -1.2685
   63SAPC   H3Y 5078   4.441   4.487   6.559 -0.2760  0.1792 -0.2318
   63SAPC   C34 5079   4.553   4.671   6.594  0.0007 -0.2148 -0.4679
   63SAPC   H4X 5080   4.463   4.735   6.607 -0.4357 -0.9356  0.1323
   63SAPC   H4Y 5081   4.630   4.725   6.535 -0.6866 -0.3786 -1.5563
   63SAPC   C35 5082   4.600   4.636   6.733 -0.9453 -0.4737 -0.6039
   63SAPC   H5X 5083   4.698   4.584   6.729 -1.3748 -1.4022  0.4689
   63SAPC   H5Y 5084   4.524   4.578   6.790  2.6629 -0.6545  4.6968
   63SAPC   C36 5085   4.605   4.766   6.815  0.0183 -0.5002  0.2408
   63SAPC   H6X 5086   4.501   4.803   6.819  1.2711  3.7145 -1.2654
   63SAPC   H6Y 5087   4.674   4.833   6.759  0.2811 -1.4842 -0.6563
   63SAPC   C37 5088   4.662   4.737   6.952  0.0037 -0.9027 -0.0990
   63SAPC   H7X 5089   4.772   4.728   6.945  0.4934 -0.2963  4.0557
   63SAPC   H7Y 5090   4.626   4.642   6.996  3.2418 -1.5391  1.4968
   63SAPC   C38 5091   4.623   4.835   7.055  0.0907 -0.1337  0.5676
   63SAPC   H8X 5092   4.514   4.860   7.051 -0.1263 -0.7869  2.0248
   63SAPC   H8Y 5093   4.676   4.930   7.032 -0.5863  0.1530  0.1456
   63SAPC   C39 5094   4.655   4.785   7.192 -0.2612 -1.0292 -0.1431
   63SAPC   H9X 5095   4.762   4.755   7.198  0.0191  0.1736  2.0206
   63SAPC   H9Y 5096   4.589   4.698   7.210  0.2399 -1.4838 -0.4793
   63SAPC  C310 5097   4.604   4.894   7.299 -0.2935 -0.5941  0.7222
   63SAPC  H10X 5098   4.501   4.922   7.270 -0.3283 -2.0505 -0.7011
   63SAPC  H10Y 5099   4.659   4.990   7.286  0.9470 -1.3102  0.5239
   63SAPC  C311 5100   4.609   4.847   7.446 -0.6115 -0.0547 -0.4124
   63SAPC  H11X 5101   4.712   4.850   7.488 -1.5044 -1.6276  2.1809
   63SAPC  H11Y 5102   4.567   4.744   7.457  1.3441 -0.7696  1.0240
   63SAPC  C312 5103   4.525   4.930   7.535 -0.1089  0.2664  0.1830
   63SAPC  H12X 5104   4.418   4.905   7.527 -0.1614  0.6979 -0.5588
   63SAPC  H12Y 5105   4.534   5.040   7.518  0.5222  0.8891  3.6988
   63SAPC  C313 5106   4.568   4.905   7.685 -0.5088 -0.3199 -0.2319
   63SAPC  H13X 5107   4.519   4.984   7.745 -0.0773 -1.2012  1.3128
   63SAPC  H13Y 5108   4.676   4.929   7.682 -1.1819  3.8130  1.7104
   63SAPC  C314 5109   4.535   4.771   7.747  0.3605  0.1612 -0.2356
   63SAPC  H14X 5110   4.598   4.692   7.701  0.8093 -0.7764  1.8926
   63SAPC  H14Y 5111   4.428   4.757   7.718  0.0659 -0.1234  0.9475
   63SAPC  C315 5112   4.534   4.778   7.897 -0.1658  0.4330  0.6906
   63SAPC  H15X 5113   4.457   4.711   7.942 -0.4013  0.0794 -0.2113
   63SAPC  H15Y 5114   4.493   4.878   7.924 -0.6515  0.5675 -0.4653
   63SAPC  C316 5115   4.676   4.774   7.950  0.3013  1.3268  0.3430
   63SAPC  H16X 5116   4.731   4.860   7.908  2.8556 -0.9470 -1.2938
   63SAPC  H16Y 5117   4.724   4.687   7.899  2.2101  1.7467  1.3513
   63SAPC  C317 5118   4.706   4.756   8.099  0.2016 -0.0628  0.3072
   63SAPC  H17X 5119   4.646   4.831   8.156 -2.4491 -0.6093 -1.5904
   63SAPC  H17Y 5120   4.814   4.782   8.104  0.6083 -1.1272 -1.7607
   63SAPC  C318 5121   4.677   4.621   8.153  0.7676 -0.4915 -0.4554
   63SAPC  H18X 5122   4.568   4.599   8.154  0.6195  0.1909  0.7691
   63SAPC  H18Y 5123   4.702   4.599   8.259 -4.5057 -0.7223  1.0535
   63SAPC  H18Z 5124   4.726   4.552   8.081 -0.1533  0.0071 -1.5832
   64SAPC     N 5125   0.119   5.357   6.004  0.4357 -0.4253  0.6860
   64SAPC   C12 5126   0.022   5.423   5.903  0.1862  0.4334  0.0075
   64SAPC  H12A 5127   0.049   5.388   5.804  0.5148  0.3025  0.1427
   64SAPC  H12B 5128   0.032   5.530   5.906  0.7233  0.4200 -0.9737
   64SAPC   C13 5129   0.101   5.211   6.014 -0.2910 -0.3886 -0.8148
   64SAPC  H13A 5130   0.108   5.163   5.917 -0.6812  1.5481 -1.8709
   64SAPC  H13B 5131   0.175   5.171   6.081 -0.8764 -0.3804 -0.1529
   64SAPC  H13C 5132   0.003   5.193   6.055  0.1657 -1.9396 -0.3607
   64SAPC   C14 5133   0.258   5.383   5.950  0.2613 -0.5003  0.2424
   64SAPC  H14A 5134   0.268   5.370   5.843 -0.5531  0.8406 -0.0319
   64SAPC  H14B 5135   0.274   5.490   5.955 -0.1245 -0.4042 -0.4467
   64SAPC  H14C 5136   0.335   5.317   5.987  1.4924  0.2280 -0.9196
   64SAPC   C15 5137   0.113   5.428   6.137 -0.0972 -0.3058  0.3583
   64SAPC  H15A 5138   0.191   5.390   6.201 -2.2410 -3.5375  1.3104
   64SAPC  H15B 5139   0.117   5.535   6.126 -1.3845 -0.1684  1.0261
   64SAPC  H15C 5140   0.021   5.397   6.186  0.7365 -0.7535  1.6912
   64SAPC   C11 5141  -0.125   5.394   5.922 -0.3471  0.2787  0.0112
   64SAPC  H11A 5142  -0.129   5.287   5.891 -0.0911  0.3555 -0.2947
   64SAPC  H11B 5143  -0.188   5.454   5.853 -1.8280 -1.9111 -0.6923
   64SAPC     P 5144  -0.243   5.292   6.136 -0.2941  0.2068 -0.1456
   64SAPC   O13 5145  -0.381   5.282   6.086  0.2916  0.3360  0.0211
   64SAPC   O14 5146  -0.166   5.162   6.141 -0.7621 -0.4462  0.4721
   64SAPC   O12 5147  -0.163   5.406   6.062 -0.1648 -0.1432 -0.0981
   64SAPC   O11 5148  -0.234   5.339   6.290 -0.4713  0.5967  0.5000
   64SAPC    C1 5149  -0.290   5.452   6.345  0.5970 -0.8617  0.0307
   64SAPC    HA 5150  -0.265   5.550   6.297 -0.1787  0.4430  2.1710
   64SAPC    HB 5151  -0.400   5.454   6.329  0.6064  1.8485 -0.1670
   64SAPC    C2 5152  -0.269   5.473   6.500 -0.0864  0.5506 -0.7675
   64SAPC    HS 5153  -0.321   5.568   6.525 -1.5576 -0.0952 -1.2431
   64SAPC   O21 5154  -0.128   5.496   6.525  0.7581  0.3532  0.1327
   64SAPC   C21 5155  -0.078   5.603   6.487  0.9195 -0.0139  0.4831
   64SAPC   O22 5156  -0.143   5.694   6.434 -0.2560 -0.5883 -0.6978
   64SAPC   C22 5157   0.061   5.608   6.549  0.3009 -0.0824  0.4205
   64SAPC   H2R 5158   0.132   5.555   6.482  0.3270 -1.6104  1.6104
   64SAPC   H2S 5159   0.090   5.715   6.549 -2.7564  0.8353 -0.3742
   64SAPC    C3 5160  -0.340   5.347   6.572 -0.1884 -0.2130  0.0049
   64SAPC    HX 5161  -0.300   5.255   6.525 -0.0930  0.1753 -0.6923
   64SAPC    HY 5162  -0.448   5.349   6.547  0.3333 -2.7367 -2.9291
   64SAPC   O31 5163  -0.316   5.360   6.716  0.3662 -0.3078  0.1414
   64SAPC   C31 5164  -0.246   5.253   6.770 -0.0142  0.3705  0.5449
   64SAPC   O32 5165  -0.215   5.153   6.708  0.2419  0.5116 -0.1953
   64SAPC   C32 5166  -0.219   5.278   6.915 -0.2245  0.4899 -0.0915
   64SAPC   H2X 5167  -0.226   5.184   6.974  1.6760 -0.4494 -1.2635
   64SAPC   H2Y 5168  -0.290   5.356   6.950 -1.0068  0.1262 -0.8506
   64SAPC   C23 5169   0.069   5.528   6.681 -0.9188  0.1843  0.6295
   64SAPC   H3R 5170   0.013   5.433   6.688 -0.4231 -0.0466  1.4818
   64SAPC   H3S 5171   0.010   5.585   6.757 -0.6241  0.9863  0.2735
   64SAPC   C24 5172   0.222   5.506   6.713 -0.6646 -0.3163 -0.0543
   64SAPC   H4R 5173   0.262   5.439   6.635 -0.2839  0.5124 -0.5817
   64SAPC   H4S 5174   0.230   5.452   6.810 -0.7610  0.3776  0.3558
   64SAPC   C25 5175   0.303   5.628   6.729 -0.4843 -0.3296  0.8966
   64SAPC   H5R 5176   0.357   5.671   6.644  0.1031  1.5890  2.1709
   64SAPC   C26 5177   0.332   5.694   6.838  0.4280  0.1917  0.2304
   64SAPC   H6R 5178   0.398   5.782   6.826  0.7953 -0.0729  0.2738
   64SAPC   C27 5179   0.273   5.655   6.976  0.4816  1.0735 -0.2084
   64SAPC   H7R 5180   0.349   5.604   7.040 -0.6963 -0.2090  0.2340
   64SAPC   H7S 5181   0.189   5.583   6.980 -1.0386  2.8192  1.7812
   64SAPC   C28 5182   0.226   5.777   7.056 -0.2394  0.2008  0.4434
   64SAPC   H8R 5183   0.146   5.833   7.005 -1.4199 -2.0789 -0.3530
   64SAPC   C29 5184   0.257   5.809   7.184  0.0155 -0.0829  0.6483
   64SAPC   H9R 5185   0.217   5.904   7.224  2.2189  0.7649  0.9757
   64SAPC  C210 5186   0.348   5.735   7.278 -0.3832 -0.4131 -0.1966
   64SAPC  H10R 5187   0.430   5.809   7.281 -1.4693  0.8144  2.0268
   64SAPC  H10S 5188   0.385   5.639   7.236 -1.1163 -0.3600 -1.0070
   64SAPC  C211 5189   0.291   5.718   7.421  0.6768 -0.6954 -0.1175
   64SAPC  H11R 5190   0.243   5.620   7.430 -0.1276 -0.4394 -1.3954
   64SAPC  C212 5191   0.301   5.796   7.527  0.4017 -0.7497 -0.0090
   64SAPC  H12R 5192   0.254   5.762   7.621 -0.6297  1.4675  0.3436
   64SAPC  C213 5193   0.377   5.926   7.531  0.2718  0.1375 -0.4488
   64SAPC  H13R 5194   0.469   5.927   7.469 -1.0660  0.5366 -2.5052
   64SAPC  H13S 5195   0.420   5.924   7.634  0.0521  0.5352 -0.3482
   64SAPC  C214 5196   0.303   6.057   7.520  0.1363 -0.0738  0.9442
   64SAPC  H14R 5197   0.227   6.071   7.598  0.1662  3.2109  0.5026
   64SAPC  C215 5198   0.314   6.147   7.417  0.8300  0.0152 -0.1701
   64SAPC  H15R 5199   0.257   6.241   7.416  2.3292  0.9718 -1.7598
   64SAPC  C216 5200   0.395   6.132   7.292  0.6738  0.3320  0.4864
   64SAPC  H16R 5201   0.402   6.025   7.263  1.4891  1.0811 -2.3403
   64SAPC  H16S 5202   0.495   6.179   7.305  0.2677  1.9456 -1.7519
   64SAPC  C217 5203   0.344   6.213   7.170  0.7498 -0.5240 -0.1438
   64SAPC  H17R 5204   0.364   6.320   7.192 -0.0389 -0.4653  0.3119
   64SAPC  H17S 5205   0.234   6.208   7.161  0.1585 -2.4049  5.0822
   64SAPC  C218 5206   0.410   6.173   7.049  0.4734  0.3866 -0.2038
   64SAPC  H18R 5207   0.355   6.081   7.022  0.2857 -0.2317  2.0713
   64SAPC  H18S 5208   0.519   6.152   7.058  0.0882 -1.7236 -0.1078
   64SAPC  C219 5209   0.402   6.272   6.936  0.4647  0.8124 -0.0017
   64SAPC  H19R 5210   0.463   6.363   6.952  2.8296 -0.7781  0.5041
   64SAPC  H19S 5211   0.294   6.294   6.924 -0.4743 -0.8502  3.9337
   64SAPC  C220 5212   0.450   6.204   6.808  0.0362  0.2149 -0.0034
   64SAPC  H20R 5213   0.384   6.116   6.796 -0.3174  0.2060  1.7898
   64SAPC  H20S 5214   0.551   6.161   6.818 -0.5062 -0.5285  3.9180
   64SAPC  H20T 5215   0.438   6.276   6.724  2.4406  2.3463  1.3381
   64SAPC   C33 5216  -0.078   5.331   6.958  0.0960  0.4263 -0.5431
   64SAPC   H3X 5217  -0.067   5.440   6.937  2.4237  0.4284  0.3522
   64SAPC   H3Y 5218   0.002   5.270   6.910 -1.1919 -2.1974  0.4732
   64SAPC   C34 5219  -0.066   5.322   7.108 -0.1737  0.2796 -0.3896
   64SAPC   H4X 5220  -0.056   5.219   7.147  2.6827  0.3459 -0.7053
   64SAPC   H4Y 5221  -0.156   5.381   7.136  0.4783  1.7528 -1.2479
   64SAPC   C35 5222   0.056   5.400   7.172 -0.8531 -0.4517  0.1728
   64SAPC   H5X 5223   0.044   5.508   7.150 -1.3086 -0.2831  1.2034
   64SAPC   H5Y 5224   0.155   5.360   7.140 -0.3081 -0.6581  2.0004
   64SAPC   C36 5225   0.061   5.389   7.324 -0.5174 -0.9854 -0.8415
   64SAPC   H6X 5226   0.160   5.431   7.352 -0.9025 -0.3674 -0.3765
   64SAPC   H6Y 5227   0.065   5.287   7.367  2.7932 -0.2379  0.9231
   64SAPC   C37 5228  -0.053   5.469   7.404 -0.1413  0.1975 -0.6282
   64SAPC   H7X 5229  -0.159   5.454   7.373 -1.1867 -2.6630  3.3994
   64SAPC   H7Y 5230  -0.035   5.572   7.367 -0.9370  0.3714 -0.5570
   64SAPC   C38 5231  -0.054   5.444   7.556  0.2934 -0.1462  0.1680
   64SAPC   H8X 5232  -0.129   5.508   7.606  0.9137 -0.0506  1.0061
   64SAPC   H8Y 5233   0.038   5.480   7.608 -0.4844  0.0285  1.4752
   64SAPC   C39 5234  -0.066   5.297   7.604 -0.5368  0.5071  0.0756
   64SAPC   H9X 5235   0.027   5.238   7.592 -0.5347  0.2975  1.0726
   64SAPC   H9Y 5236  -0.145   5.261   7.535 -1.2780  0.8631  0.7248
   64SAPC  C310 5237  -0.106   5.275   7.753 -0.6232 -0.0478  0.4774
   64SAPC  H10X 5238  -0.118   5.170   7.784 -0.2747  0.3771  2.1448
   64SAPC  H10Y 5239  -0.205   5.325   7.760  0.0693  1.9884 -2.3085
   64SAPC  C311 5240  -0.009   5.343   7.851  0.2671  0.1401  0.1097
   64SAPC  H11X 5241   0.026   5.442   7.815  1.3184  0.1027  0.9795
   64SAPC  H11Y 5242   0.087   5.288   7.861 -0.5874 -1.3677  0.4007
   64SAPC  C312 5243  -0.078   5.340   7.988 -0.0488 -0.6427 -0.4607
   64SAPC  H12X 5244  -0.106   5.234   8.011  1.9427 -1.7491 -2.6657
   64SAPC  H12Y 5245  -0.174   5.390   7.965 -0.1709 -1.5868 -2.1852
   64SAPC  C313 5246  -0.005   5.407   8.101 -0.3358  0.0064  0.0364
   64SAPC  H13X 5247   0.023   5.508   8.065 -0.7925 -0.4489 -1.6970
   64SAPC  H13Y 5248   0.089   5.350   8.115 -0.4019 -1.0199 -2.9156
   64SAPC  C314 5249  -0.072   5.390   8.238 -0.9491  0.2190  0.6864
   64SAPC  H14X 5250  -0.067   5.283   8.266  1.5083 -0.7936 -2.9334
   64SAPC  H14Y 5251  -0.180   5.414   8.227 -0.7926  0.4057 -0.5436
   64SAPC  C315 5252  -0.014   5.490   8.335 -0.0777 -0.3530 -0.3536
   64SAPC  H15X 5253   0.001   5.584   8.277  1.6912 -0.4755 -0.1510
   64SAPC  H15Y 5254   0.085   5.455   8.372 -1.3550 -2.4378  1.2927
   64SAPC  C316 5255  -0.117   5.522   8.444 -0.4687 -0.0686  0.3738
   64SAPC  H16X 5256  -0.145   5.422   8.484 -3.5646 -0.2338 -1.8184
   64SAPC  H16Y 5257  -0.206   5.560   8.389  0.3123  0.3665 -0.6253
   64SAPC  C317 5258  -0.067   5.625   8.542 -0.3051  0.7180  0.1726
   64SAPC  H17X 5259  -0.146   5.671   8.606  0.4558  2.5309 -0.1348
   64SAPC  H17Y 5260  -0.014   5.708   8.492  1.8804 -1.0386 -0.5533
   64SAPC  C318 5261   0.038   5.569   8.641  0.3790  1.0766  0.2819
   64SAPC  H18X 5262   0.135   5.538   8.597  0.3109 -1.6688  1.8571
   64SAPC  H18Y 5263  -0.003   5.481   8.696  1.5857  0.8733  0.9080
   64SAPC  H18Z 5264   0.061   5.639   8.724  2.0243 -0.4496  1.1788
   65SAPC     N 5265   6.596   5.854   5.757  0.3326  0.0122 -0.0275
   65SAPC   C12 5266   6.458   5.830   5.813 -0.2605  0.2557  0.2397
   65SAPC  H12A 5267   6.449   5.734   5.863  2.1363  0.6274  1.5134
   65SAPC  H12B 5268   6.384   5.829   5.734 -0.0705 -1.8394  0.0180
   65SAPC   C13 5269   6.704   5.848   5.864 -0.0964 -0.3257  0.0617
   65SAPC  H13A 5270   6.684   5.920   5.942 -1.6867  0.7603 -1.3138
   65SAPC  H13B 5271   6.712   5.751   5.912  3.0198 -1.4439 -2.3216
   65SAPC  H13C 5272   6.798   5.880   5.821  0.7006 -0.1638  1.8335
   65SAPC   C14 5273   6.621   5.744   5.653  0.0389  0.5218  0.1457
   65SAPC  H14A 5274   6.610   5.645   5.695 -1.3523  0.8152  0.5163
   65SAPC  H14B 5275   6.564   5.749   5.561  0.7647 -2.6274 -0.6100
   65SAPC  H14C 5276   6.729   5.737   5.640  0.0508 -0.9735  0.8768
   65SAPC   C15 5277   6.605   5.990   5.687  0.3794  0.0659 -0.4481
   65SAPC  H15A 5278   6.699   5.996   5.634  0.7302  0.5744  0.2189
   65SAPC  H15B 5279   6.528   6.001   5.611  0.4404 -3.5809 -1.2390
   65SAPC  H15C 5280   6.599   6.072   5.757 -1.7872  0.0951 -0.5994
   65SAPC   C11 5281   6.405   5.941   5.904 -0.1626  0.3716 -0.2081
   65SAPC  H11A 5282   6.389   6.039   5.855 -1.8925  1.0792  1.6393
   65SAPC  H11B 5283   6.468   5.959   5.993  1.9354  0.8220 -1.7175
   65SAPC     P 5284   6.264   5.784   6.076  0.0718  0.0602 -0.6775
   65SAPC   O13 5285   6.118   5.742   6.062 -0.9543 -0.5936 -1.0362
   65SAPC   O14 5286   6.370   5.682   6.049 -0.0432  0.1432  0.0167
   65SAPC   O12 5287   6.274   5.901   5.960 -0.3289  0.4185 -0.5511
   65SAPC   O11 5288   6.274   5.854   6.215  0.9958 -0.1349  0.2296
   65SAPC    C1 5289   6.198   5.966   6.248 -0.1672  0.4847 -0.5429
   65SAPC    HA 5290   6.249   6.055   6.206  1.9263 -0.0902  0.6489
   65SAPC    HB 5291   6.090   5.956   6.222 -0.4085  1.3715  0.0793
   65SAPC    C2 5292   6.173   5.984   6.399 -0.6694 -0.5997  0.1259
   65SAPC    HS 5293   6.269   6.000   6.453 -1.0116 -0.7652  0.8029
   65SAPC   O21 5294   6.093   5.880   6.449  0.0988 -0.0913  0.1999
   65SAPC   C21 5295   6.154   5.770   6.487  0.8108  0.3129  0.5000
   65SAPC   O22 5296   6.274   5.743   6.475  0.6202  0.2377 -0.1692
   65SAPC   C22 5297   6.044   5.676   6.553 -0.2715 -0.0545 -0.1008
   65SAPC   H2R 5298   6.015   5.732   6.644  1.2555  1.1555 -0.3239
   65SAPC   H2S 5299   5.955   5.669   6.487 -0.7727  1.3891  0.3739
   65SAPC    C3 5300   6.089   6.110   6.433  0.2030  0.3328  0.2199
   65SAPC    HX 5301   5.987   6.097   6.392  0.7373  0.7081 -1.2840
   65SAPC    HY 5302   6.128   6.200   6.380 -1.7462  0.3482 -1.3214
   65SAPC   O31 5303   6.102   6.125   6.576 -0.1568 -0.0700  0.0180
   65SAPC   C31 5304   6.011   6.069   6.656 -0.4191 -0.0400  0.0807
   65SAPC   O32 5305   5.897   6.043   6.619  0.3481 -0.1047  0.1119
   65SAPC   C32 5306   6.073   6.039   6.791  0.4185 -0.3065 -0.4041
   65SAPC   H2X 5307   6.158   6.110   6.800  0.1862 -0.0343 -0.3252
   65SAPC   H2Y 5308   6.118   5.938   6.781  2.0363  0.5115 -1.9331
   65SAPC   C23 5309   6.115   5.543   6.592  0.1045 -0.4042 -0.3877
   65SAPC   H3R 5310   6.213   5.552   6.643  1.1137  1.5773 -2.5129
   65SAPC   H3S 5311   6.136   5.488   6.498 -0.2854  0.0378 -0.7357
   65SAPC   C24 5312   6.019   5.450   6.676  1.1643 -0.0682  0.8218
   65SAPC   H4R 5313   5.936   5.422   6.608  0.9372  0.8982  0.6898
   65SAPC   H4S 5314   5.975   5.511   6.757 -0.4779 -0.0052 -0.0753
   65SAPC   C25 5315   6.065   5.320   6.729 -1.1302  0.2258  0.5378
   65SAPC   H5R 5316   6.055   5.228   6.669  2.1025  0.6780 -0.9190
   65SAPC   C26 5317   6.117   5.296   6.852  0.1914 -0.1279 -0.3595
   65SAPC   H6R 5318   6.141   5.191   6.878  1.0064 -0.5246 -2.5427
   65SAPC   C27 5319   6.145   5.399   6.963 -0.1718 -0.3731  0.6485
   65SAPC   H7R 5320   6.120   5.498   6.921 -0.7878 -1.3003 -1.2658
   65SAPC   H7S 5321   6.253   5.404   6.986 -0.4320 -0.5473  2.0395
   65SAPC   C28 5322   6.066   5.350   7.088 -0.1550 -0.8934  0.3535
   65SAPC   H8R 5323   5.958   5.370   7.078  0.2362  2.2819  1.2545
   65SAPC   C29 5324   6.116   5.307   7.207  0.0572 -0.0542 -0.4107
   65SAPC   H9R 5325   6.045   5.282   7.287 -2.5877  2.6654 -1.7511
   65SAPC  C210 5326   6.261   5.299   7.244  0.8803  0.9778  0.4949
   65SAPC  H10R 5327   6.268   5.370   7.329  0.2778  0.9330  0.5892
   65SAPC  H10S 5328   6.325   5.328   7.158 -1.3092  3.1201 -0.5456
   65SAPC  C211 5329   6.286   5.157   7.289 -0.0606  0.0948 -1.0078
   65SAPC  H11R 5330   6.312   5.084   7.210 -0.0737  0.6965 -1.5723
   65SAPC  C212 5331   6.278   5.111   7.416 -1.0375 -0.8651  0.0081
   65SAPC  H12R 5332   6.313   5.010   7.439  2.7351  0.4643  0.8008
   65SAPC  C213 5333   6.250   5.185   7.551 -0.4016  0.7890  0.2725
   65SAPC  H13R 5334   6.243   5.295   7.540 -3.7887  0.5081 -1.8956
   65SAPC  H13S 5335   6.329   5.149   7.621 -0.9191 -0.5244  0.2213
   65SAPC  C214 5336   6.114   5.133   7.602  0.0790  0.0175 -0.4031
   65SAPC  H14R 5337   6.038   5.134   7.523 -0.1477 -1.1086 -0.2115
   65SAPC  C215 5338   6.080   5.089   7.723  0.5235 -0.1035  0.5956
   65SAPC  H15R 5339   5.979   5.053   7.744  0.9051 -1.8513 -0.3708
   65SAPC  C216 5340   6.178   5.074   7.831 -0.4573 -0.4829  0.1533
   65SAPC  H16R 5341   6.281   5.041   7.805  0.2923  0.1719  2.1277
   65SAPC  H16S 5342   6.146   4.996   7.903 -0.1225 -0.2567  0.5495
   65SAPC  C217 5343   6.194   5.205   7.911  0.0049  0.0548  0.8952
   65SAPC  H17R 5344   6.094   5.246   7.938  0.1258 -0.6802  2.5502
   65SAPC  H17S 5345   6.258   5.268   7.844 -2.1352  0.6332 -0.7414
   65SAPC  C218 5346   6.261   5.177   8.046  0.4197 -0.7836  0.1888
   65SAPC  H18R 5347   6.368   5.153   8.028  0.9524  1.9274 -0.7691
   65SAPC  H18S 5348   6.207   5.091   8.090  0.1802  0.0496  1.5868
   65SAPC  C219 5349   6.256   5.292   8.150 -0.1228  0.4801  0.4903
   65SAPC  H19R 5350   6.149   5.311   8.174 -0.6340 -1.5073 -0.0637
   65SAPC  H19S 5351   6.286   5.389   8.104 -1.3654  0.3784 -0.5540
   65SAPC  C220 5352   6.342   5.268   8.278 -0.1539 -0.3999 -0.3045
   65SAPC  H20R 5353   6.297   5.206   8.358 -0.5002  1.2755  0.8496
   65SAPC  H20S 5354   6.344   5.365   8.332 -0.2215 -0.6780  0.2028
   65SAPC  H20T 5355   6.448   5.246   8.254  0.4647  1.9516 -0.0438
   65SAPC   C33 5356   5.963   6.047   6.903 -0.7569  0.4686  0.6444
   65SAPC   H3X 5357   5.992   5.971   6.979  1.3762  0.1949 -0.3474
   65SAPC   H3Y 5358   5.861   6.032   6.862 -0.4322 -0.1974  0.0415
   65SAPC   C34 5359   5.979   6.175   6.977 -0.1162  0.4044  0.6291
   65SAPC   H4X 5360   5.950   6.260   6.912 -2.4295  0.1766  1.2992
   65SAPC   H4Y 5361   6.084   6.191   7.009  0.7115  0.7244 -2.0080
   65SAPC   C35 5362   5.883   6.200   7.095 -0.2606 -0.1397  0.6716
   65SAPC   H5X 5363   5.779   6.197   7.057  0.2934  2.3338 -1.3007
   65SAPC   H5Y 5364   5.897   6.299   7.142  0.3473  0.0807  0.0570
   65SAPC   C36 5365   5.913   6.098   7.216  0.3070  0.1635  0.8032
   65SAPC   H6X 5366   5.870   6.000   7.188  2.0526 -0.1970 -0.8132
   65SAPC   H6Y 5367   5.854   6.138   7.301  2.1154 -0.4826  2.4451
   65SAPC   C37 5368   6.055   6.088   7.262 -0.9549  0.6994  0.1659
   65SAPC   H7X 5369   6.087   6.192   7.283 -0.1285  0.4052  0.4092
   65SAPC   H7Y 5370   6.129   6.041   7.193 -0.1293  0.7475  0.9966
   65SAPC   C38 5371   6.068   6.018   7.402  0.4786 -0.1368 -0.6786
   65SAPC   H8X 5372   6.125   5.925   7.382  2.1174  0.2763  1.6601
   65SAPC   H8Y 5373   5.965   5.993   7.435  0.7791  0.7083  1.0218
   65SAPC   C39 5374   6.144   6.093   7.513  0.0035 -0.1677  0.1429
   65SAPC   H9X 5375   6.108   6.198   7.525  0.4364 -0.1313  1.2861
   65SAPC   H9Y 5376   6.254   6.097   7.503  0.0913  0.4440  1.1613
   65SAPC  C310 5377   6.105   6.028   7.643  0.0116 -0.4696 -0.0032
   65SAPC  H10X 5378   6.086   5.919   7.631  0.2978 -0.6152  0.8176
   65SAPC  H10Y 5379   6.009   6.068   7.683 -0.7695 -0.7443 -1.5330
   65SAPC  C311 5380   6.202   6.038   7.764 -1.1517  0.6061 -0.5674
   65SAPC  H11X 5381   6.291   5.973   7.753 -1.4582  0.0104  0.3575
   65SAPC  H11Y 5382   6.147   5.993   7.850  0.1153 -1.3541 -0.7258
   65SAPC  C312 5383   6.251   6.179   7.813 -0.1200  0.4517 -0.1656
   65SAPC  H12X 5384   6.165   6.248   7.819 -0.3309  0.1222  0.7318
   65SAPC  H12Y 5385   6.327   6.210   7.738 -0.9418  0.5802 -0.9672
   65SAPC  C313 5386   6.322   6.163   7.945  0.1901 -0.5692 -0.1549
   65SAPC  H13X 5387   6.393   6.247   7.963 -2.2807  1.5291  0.3518
   65SAPC  H13Y 5388   6.377   6.067   7.945  1.8551  0.3381  0.5298
   65SAPC  C314 5389   6.232   6.157   8.068  0.3341  0.3227 -0.1963
   65SAPC  H14X 5390   6.154   6.079   8.054 -1.1878  1.9609 -1.5229
   65SAPC  H14Y 5391   6.171   6.250   8.063  1.0099  0.8260  0.8148
   65SAPC  C315 5392   6.311   6.158   8.189  0.2274 -0.4897  0.6840
   65SAPC  H15X 5393   6.381   6.244   8.199 -0.7554  0.4599 -0.3280
   65SAPC  H15Y 5394   6.368   6.065   8.209  1.2735  0.2061  1.0396
   65SAPC  C316 5395   6.218   6.165   8.315  0.8690  0.7306  0.4966
   65SAPC  H16X 5396   6.149   6.253   8.309  1.9855  1.7121  1.6552
   65SAPC  H16Y 5397   6.279   6.161   8.407 -0.3301  2.0785  1.3885
   65SAPC  C317 5398   6.118   6.044   8.322  0.7999  0.0278  0.3341
   65SAPC  H17X 5399   6.174   5.952   8.346 -0.4648 -0.7040  0.5520
   65SAPC  H17Y 5400   6.070   6.016   8.225 -0.6251 -1.0172  1.2970
   65SAPC  C318 5401   6.006   6.071   8.425  0.2499 -0.5451  0.2403
   65SAPC  H18X 5402   5.967   6.174   8.409 -1.9533 -1.3656 -0.0221
   65SAPC  H18Y 5403   6.047   6.063   8.528  0.2129 -1.8263  0.1791
   65SAPC  H18Z 5404   5.921   5.999   8.425 -0.8335  0.6980 -0.1881
   66SAPC     N 5405   4.121   5.735   5.747 -0.6236 -0.1818  0.1111
   66SAPC   C12 5406   4.093   5.704   5.898  0.7158  0.0375 -0.3338
   66SAPC  H12A 5407   4.001   5.754   5.925  0.1942 -0.7295 -0.6558
   66SAPC  H12B 5408   4.172   5.754   5.952  1.1638  2.0162 -2.6266
   66SAPC   C13 5409   4.007   5.689   5.657  0.1952  0.4966  0.3719
   66SAPC  H13A 5410   4.017   5.583   5.638  0.2548  0.7902 -1.4478
   66SAPC  H13B 5411   3.914   5.683   5.711  0.4604 -2.2288  0.6707
   66SAPC  H13C 5412   3.994   5.741   5.563  0.7460 -2.1066 -1.2442
   66SAPC   C14 5413   4.124   5.884   5.722 -0.1761  0.5369  0.3505
   66SAPC  H14A 5414   4.158   5.896   5.621  0.5806 -0.0643  0.5165
   66SAPC  H14B 5415   4.029   5.932   5.734  0.2688  1.7381 -0.7521
   66SAPC  H14C 5416   4.199   5.924   5.790  2.0044 -1.6840 -0.5560
   66SAPC   C15 5417   4.252   5.676   5.705  0.2193  0.4252 -0.0427
   66SAPC  H15A 5418   4.330   5.710   5.771 -0.4213  1.3508  0.2578
   66SAPC  H15B 5419   4.246   5.568   5.712  0.5335  0.3582 -0.7826
   66SAPC  H15C 5420   4.284   5.702   5.605  1.9952  0.3813  0.4941
   66SAPC   C11 5421   4.087   5.558   5.959  0.4882 -0.6204  0.0271
   66SAPC  H11A 5422   4.001   5.504   5.912  1.5861 -1.7018 -0.7973
   66SAPC  H11B 5423   4.046   5.556   6.062 -2.5626  1.9661 -0.9525
   66SAPC     P 5424   4.226   5.345   5.890  0.3133  0.1632  0.0390
   66SAPC   O13 5425   4.179   5.338   5.748  0.1573 -0.0571  0.1339
   66SAPC   O14 5426   4.364   5.297   5.911  0.0332  0.7195  0.3741
   66SAPC   O12 5427   4.217   5.500   5.934 -0.1995 -0.1157 -0.2809
   66SAPC   O11 5428   4.130   5.266   5.998 -0.4189 -0.0006 -0.0502
   66SAPC    C1 5429   4.161   5.255   6.128  0.5418  0.1805  0.0916
   66SAPC    HA 5430   4.185   5.149   6.152  1.1589 -0.1970 -1.9823
   66SAPC    HB 5431   4.253   5.303   6.168 -1.3107  1.9649  2.5445
   66SAPC    C2 5432   4.058   5.299   6.234  0.1550  0.2517 -0.2817
   66SAPC    HS 5433   4.041   5.409   6.223  1.3816  0.4755 -0.0395
   66SAPC   O21 5434   4.124   5.276   6.364  0.3218 -0.0618  0.5250
   66SAPC   C21 5435   4.086   5.361   6.460  0.1631  0.1492  0.0616
   66SAPC   O22 5436   4.005   5.450   6.444  0.0687 -0.2569 -0.4786
   66SAPC   C22 5437   4.152   5.331   6.598 -0.5414  0.2987 -0.3969
   66SAPC   H2R 5438   4.240   5.395   6.619  0.0101 -0.4607 -0.3219
   66SAPC   H2S 5439   4.070   5.350   6.670  2.0472 -1.1067  3.2227
   66SAPC    C3 5440   3.922   5.219   6.234  0.1330 -0.2712  0.2307
   66SAPC    HX 5441   3.870   5.215   6.136 -0.7344 -0.4768  0.6879
   66SAPC    HY 5442   3.849   5.271   6.301 -0.4388 -0.5658 -0.1547
   66SAPC   O31 5443   3.948   5.083   6.298  0.5182  0.2155  1.0672
   66SAPC   C31 5444   3.837   5.013   6.337 -0.2643 -0.4780 -0.1693
   66SAPC   O32 5445   3.722   5.037   6.304  0.6085 -0.6089  0.4069
   66SAPC   C32 5446   3.879   4.897   6.424 -0.6609 -0.3442  0.8357
   66SAPC   H2X 5447   3.946   4.935   6.504 -1.4632  0.3964  1.1816
   66SAPC   H2Y 5448   3.934   4.828   6.357  0.8075  1.0823  0.5105
   66SAPC   C23 5449   4.201   5.190   6.621 -0.2571 -0.7506 -0.2736
   66SAPC   H3R 5450   4.287   5.165   6.555  0.1023 -0.1881 -0.0209
   66SAPC   H3S 5451   4.128   5.114   6.586 -2.1118  0.5931  0.4979
   66SAPC   C24 5452   4.243   5.161   6.757 -0.4375 -0.2271 -0.0120
   66SAPC   H4R 5453   4.317   5.235   6.795 -0.2211 -0.9837  1.0904
   66SAPC   H4S 5454   4.293   5.062   6.753  0.1574  0.1075 -1.1156
   66SAPC   C25 5455   4.136   5.147   6.858  1.1319  0.0309  0.6697
   66SAPC   H5R 5456   4.037   5.134   6.812  0.0126  0.5958  2.8009
   66SAPC   C26 5457   4.151   5.153   6.989  1.2380  0.6875  0.2303
   66SAPC   H6R 5458   4.067   5.137   7.058  1.2150 -0.6992 -0.0823
   66SAPC   C27 5459   4.276   5.181   7.064  0.2178 -0.7853 -0.1666
   66SAPC   H7R 5460   4.370   5.149   7.014  0.1068 -1.4481  0.0398
   66SAPC   H7S 5461   4.279   5.129   7.162  0.1601 -0.3687  0.0555
   66SAPC   C28 5462   4.273   5.329   7.089  0.8438 -0.1957  0.2104
   66SAPC   H8R 5463   4.332   5.372   7.007 -0.4307 -1.0004 -1.1833
   66SAPC   C29 5464   4.242   5.395   7.201  0.0003 -0.4035  0.2560
   66SAPC   H9R 5465   4.251   5.504   7.205 -1.9250 -0.2139  0.0795
   66SAPC  C210 5466   4.207   5.323   7.331 -0.7505  0.4080 -0.5643
   66SAPC  H10R 5467   4.303   5.271   7.351 -1.2318 -0.8710 -1.4668
   66SAPC  H10S 5468   4.132   5.243   7.311 -0.8694  0.1257  0.9130
   66SAPC  C211 5469   4.166   5.423   7.442  0.6090  0.5117 -0.0580
   66SAPC  H11R 5470   4.071   5.477   7.427  1.2726  1.3284 -1.5716
   66SAPC  C212 5471   4.245   5.455   7.549  0.2121 -0.5155 -0.6643
   66SAPC  H12R 5472   4.204   5.533   7.614  0.6834 -1.0890  0.3496
   66SAPC  C213 5473   4.377   5.400   7.592 -0.8112 -0.2195 -0.4849
   66SAPC  H13R 5474   4.418   5.465   7.673  0.3199 -0.7092 -0.6421
   66SAPC  H13S 5475   4.453   5.401   7.511 -0.3403  0.3820 -0.0569
   66SAPC  C214 5476   4.353   5.265   7.641  0.4122  1.4139 -0.4571
   66SAPC  H14R 5477   4.367   5.187   7.564 -0.7371  0.0024  0.7060
   66SAPC  C215 5478   4.320   5.222   7.764  0.0548 -0.5981 -0.6560
   66SAPC  H15R 5479   4.321   5.113   7.778  1.2561 -0.6485 -0.9754
   66SAPC  C216 5480   4.286   5.310   7.878  0.2395 -0.5003  0.6673
   66SAPC  H16R 5481   4.186   5.291   7.923  0.9398  1.8171  3.5077
   66SAPC  H16S 5482   4.273   5.416   7.848  2.1165 -1.1360 -2.9814
   66SAPC  C217 5483   4.396   5.293   7.989 -0.1324  0.5862  0.4944
   66SAPC  H17R 5484   4.478   5.357   7.949 -0.5959 -0.0906 -1.6608
   66SAPC  H17S 5485   4.437   5.191   7.977 -1.4033  0.2476 -1.4537
   66SAPC  C218 5486   4.356   5.344   8.126  0.1205  0.2317  0.2080
   66SAPC  H18R 5487   4.443   5.331   8.193  1.5793 -1.3694 -1.8571
   66SAPC  H18S 5488   4.267   5.293   8.168  0.8484 -0.3724  1.0471
   66SAPC  C219 5489   4.315   5.496   8.133 -0.1450 -0.1175 -1.3167
   66SAPC  H19R 5490   4.236   5.512   8.057  0.0797 -0.3150 -1.5949
   66SAPC  H19S 5491   4.412   5.545   8.109 -1.0374  2.0781 -0.6969
   66SAPC  C220 5492   4.277   5.540   8.275  0.5956  0.2850 -0.3388
   66SAPC  H20R 5493   4.352   5.506   8.350  1.8005  2.6620 -0.3556
   66SAPC  H20S 5494   4.175   5.506   8.300  0.4034  1.8211  1.1889
   66SAPC  H20T 5495   4.265   5.650   8.280 -3.3197  0.0003 -0.2048
   66SAPC   C33 5496   3.761   4.819   6.490  0.2691 -0.3351 -0.3392
   66SAPC   H3X 5497   3.809   4.728   6.531  0.1158  0.8680  2.7459
   66SAPC   H3Y 5498   3.688   4.785   6.413  0.4303  2.7767 -2.0258
   66SAPC   C34 5499   3.692   4.881   6.612  0.1683  0.0588 -0.3497
   66SAPC   H4X 5500   3.612   4.807   6.635  0.8689  0.1978  2.9602
   66SAPC   H4Y 5501   3.636   4.972   6.584 -2.1791 -1.9067 -2.6471
   66SAPC   C35 5502   3.776   4.913   6.732  0.5124  0.6609  0.0975
   66SAPC   H5X 5503   3.852   4.990   6.706  0.2212  0.9609  0.1351
   66SAPC   H5Y 5504   3.817   4.813   6.760  0.0876  0.2364 -0.7307
   66SAPC   C36 5505   3.688   4.948   6.852 -0.3927 -0.1191 -0.5451
   66SAPC   H6X 5506   3.639   4.860   6.899  1.0098  0.0235  1.2847
   66SAPC   H6Y 5507   3.602   5.017   6.838  0.3709  1.3335  1.4652
   66SAPC   C37 5508   3.789   4.997   6.964  0.4987 -0.5250 -0.9895
   66SAPC   H7X 5509   3.839   5.080   6.909  2.3269 -2.1958 -1.9794
   66SAPC   H7Y 5510   3.870   4.928   6.997 -0.0538  0.1035  1.9194
   66SAPC   C38 5511   3.728   5.079   7.086  0.0380 -0.1424  0.5068
   66SAPC   H8X 5512   3.672   5.006   7.149  0.1760 -0.3924  0.3439
   66SAPC   H8Y 5513   3.650   5.154   7.062  0.8532  0.2829 -0.9627
   66SAPC   C39 5514   3.834   5.137   7.181 -0.0344 -0.4682  0.4003
   66SAPC   H9X 5515   3.877   5.224   7.128 -1.3093 -0.1601 -0.1608
   66SAPC   H9Y 5516   3.912   5.058   7.182 -0.3296 -0.8426 -1.7478
   66SAPC  C310 5517   3.773   5.191   7.298 -0.5901 -0.3696 -0.2511
   66SAPC  H10X 5518   3.743   5.094   7.345 -0.5994 -0.2814 -0.0754
   66SAPC  H10Y 5519   3.690   5.258   7.267  1.3833  1.4904 -1.8827
   66SAPC  C311 5520   3.871   5.249   7.406 -0.0386  0.0103  0.1085
   66SAPC  H11X 5521   3.921   5.342   7.373 -0.9236  1.8360  3.4614
   66SAPC  H11Y 5522   3.957   5.178   7.410  0.8825  1.1413  0.8045
   66SAPC  C312 5523   3.809   5.247   7.539  0.0744 -0.2521 -0.3961
   66SAPC  H12X 5524   3.775   5.144   7.565  0.3026 -1.1281 -3.2627
   66SAPC  H12Y 5525   3.723   5.317   7.547 -0.4689 -1.0938  2.1192
   66SAPC  C313 5526   3.889   5.307   7.653  0.1163  0.1254  0.1745
   66SAPC  H13X 5527   3.948   5.385   7.602  1.6123 -0.6414  0.6648
   66SAPC  H13Y 5528   3.971   5.247   7.699  0.0011 -0.4253 -0.3321
   66SAPC  C314 5529   3.811   5.382   7.764 -0.2981 -0.3597 -0.1356
   66SAPC  H14X 5530   3.738   5.306   7.801  1.0356 -1.6333 -0.0170
   66SAPC  H14Y 5531   3.757   5.467   7.717  0.9323  0.4072 -0.1991
   66SAPC  C315 5532   3.903   5.427   7.877 -0.0743 -0.1002 -0.6293
   66SAPC  H15X 5533   3.990   5.484   7.837 -0.4228 -0.1227 -1.4298
   66SAPC  H15Y 5534   3.932   5.334   7.930 -1.6891 -0.2143  0.1236
   66SAPC  C316 5535   3.840   5.514   7.985 -0.0527 -1.0237  0.4048
   66SAPC  H16X 5536   3.761   5.456   8.036 -0.1058 -1.1398  0.1929
   66SAPC  H16Y 5537   3.784   5.602   7.946 -1.9633 -3.0970 -1.8979
   66SAPC  C317 5538   3.942   5.558   8.100  0.3371 -0.6136 -0.3451
   66SAPC  H17X 5539   4.032   5.613   8.064  1.2180 -1.6345  0.2397
   66SAPC  H17Y 5540   3.990   5.469   8.147  2.0152  0.0899 -0.6447
   66SAPC  C318 5541   3.872   5.631   8.207 -0.3478 -0.6694 -0.2263
   66SAPC  H18X 5542   3.774   5.582   8.223 -0.5598  0.1112  0.9896
   66SAPC  H18Y 5543   3.856   5.736   8.176  0.5507 -0.8442 -1.3535
   66SAPC  H18Z 5544   3.934   5.637   8.300 -0.5160 -0.5067 -0.1252
   67SAPC     N 5545   1.170   6.020   6.456 -0.1446  0.0151  0.1114
   67SAPC   C12 5546   1.049   6.010   6.557  0.4842 -0.4035  0.3641
   67SAPC  H12A 5547   1.057   5.918   6.613  0.8414  0.0455  1.0713
   67SAPC  H12B 5548   0.957   5.998   6.502  0.0508 -1.7523  1.3378
   67SAPC   C13 5549   1.303   6.058   6.526  0.0885 -0.7317 -0.0067
   67SAPC  H13A 5550   1.327   5.994   6.610  2.3119  1.4213  1.1311
   67SAPC  H13B 5551   1.385   6.043   6.457 -0.8659 -1.5976 -0.9813
   67SAPC  H13C 5552   1.293   6.158   6.566  0.5934  0.2676 -2.2289
   67SAPC   C14 5553   1.185   5.893   6.381 -0.4397 -0.6618  0.0039
   67SAPC  H14A 5554   1.090   5.848   6.358 -0.1731 -1.5441  0.5590
   67SAPC  H14B 5555   1.251   5.899   6.297 -1.9069  2.6377 -1.0646
   67SAPC  H14C 5556   1.232   5.819   6.444  0.3012  1.3840  1.9865
   67SAPC   C15 5557   1.135   6.130   6.357  0.3241 -0.1286 -0.5137
   67SAPC  H15A 5558   1.205   6.142   6.275  2.5311 -1.3536  1.0894
   67SAPC  H15B 5559   1.034   6.109   6.327 -0.1646 -1.4989  1.8588
   67SAPC  H15C 5560   1.135   6.225   6.408  3.4719 -0.2113 -0.1675
   67SAPC   C11 5561   1.035   6.115   6.666  0.7018 -0.2970 -0.3707
   67SAPC  H11A 5562   1.125   6.127   6.730 -0.5499 -0.4176  1.4797
   67SAPC  H11B 5563   0.957   6.075   6.734  0.7675  0.5526  0.2200
   67SAPC     P 5564   0.867   6.296   6.572 -0.2849  0.0034  0.0790
   67SAPC   O13 5565   0.880   6.360   6.437 -0.4610  0.3597 -0.8477
   67SAPC   O14 5566   0.771   6.191   6.579  0.2019 -1.2880  0.4529
   67SAPC   O12 5567   1.014   6.246   6.614  0.4951  0.7054  0.5681
   67SAPC   O11 5568   0.849   6.408   6.679  0.0711 -0.1138 -0.8842
   67SAPC    C1 5569   0.830   6.372   6.814  0.1992 -0.0586 -0.1251
   67SAPC    HA 5570   0.740   6.420   6.857 -0.2602 -1.8779  1.0321
   67SAPC    HB 5571   0.808   6.264   6.825 -2.3708  0.2964 -0.9896
   67SAPC    C2 5572   0.949   6.419   6.901 -0.1183 -0.5121  0.1537
   67SAPC    HS 5573   1.037   6.351   6.893  1.0595  0.6378  2.2145
   67SAPC   O21 5574   0.912   6.432   7.040  0.4918  0.6848  0.4125
   67SAPC   C21 5575   0.898   6.312   7.095 -0.6122 -0.0631 -0.0211
   67SAPC   O22 5576   0.912   6.204   7.035  0.4120 -0.4180 -0.0884
   67SAPC   C22 5577   0.880   6.330   7.247 -0.4542 -0.7216  0.5937
   67SAPC   H2R 5578   0.958   6.259   7.284  1.1332 -0.2106 -1.5456
   67SAPC   H2S 5579   0.911   6.431   7.282 -0.5835 -1.4909  3.1626
   67SAPC    C3 5580   0.985   6.555   6.848  0.6882 -0.2999  0.2361
   67SAPC    HX 5581   0.891   6.614   6.857  1.0309  0.4189 -0.8041
   67SAPC    HY 5582   1.020   6.552   6.743  3.1958 -0.2180  1.0027
   67SAPC   O31 5583   1.082   6.623   6.925  0.5509  0.2241 -0.3536
   67SAPC   C31 5584   1.094   6.749   6.906 -0.8005  0.5022  0.1902
   67SAPC   O32 5585   1.043   6.816   6.815  1.0206  0.0226  0.1038
   67SAPC   C32 5586   1.192   6.808   7.016  0.7642  0.3248  0.0121
   67SAPC   H2X 5587   1.133   6.890   7.063  0.1748 -0.2776  0.3515
   67SAPC   H2Y 5588   1.283   6.852   6.971  0.0542  0.0481 -1.7641
   67SAPC   C23 5589   0.742   6.287   7.293 -0.4264 -0.3321  0.5792
   67SAPC   H3R 5590   0.698   6.206   7.231 -1.2977  0.6196 -0.0981
   67SAPC   H3S 5591   0.677   6.377   7.281  0.5622  0.0874 -2.8285
   67SAPC   C24 5592   0.744   6.239   7.442 -0.1413  0.8819  0.4324
   67SAPC   H4R 5593   0.641   6.234   7.484  0.2741  1.5463  1.5862
   67SAPC   H4S 5594   0.802   6.308   7.507  0.3488  0.0844  0.8631
   67SAPC   C25 5595   0.800   6.092   7.451  0.1696  0.4160 -0.0976
   67SAPC   H5R 5596   0.787   6.032   7.360  0.3234  0.7217 -0.3204
   67SAPC   C26 5597   0.838   6.035   7.566  0.5897  0.6030 -0.2487
   67SAPC   H6R 5598   0.874   5.931   7.558 -2.0038 -0.3650 -0.3814
   67SAPC   C27 5599   0.845   6.093   7.707  0.6724  0.3872 -0.8555
   67SAPC   H7R 5600   0.837   6.203   7.714  2.0202  0.3972  1.2718
   67SAPC   H7S 5601   0.941   6.061   7.751 -0.0588 -0.3353  0.2575
   67SAPC   C28 5602   0.722   6.048   7.789  0.2650  0.2036  0.2587
   67SAPC   H8R 5603   0.624   6.053   7.739  1.0607  0.6808 -1.3001
   67SAPC   C29 5604   0.716   6.009   7.920  0.0113 -0.5386  0.6047
   67SAPC   H9R 5605   0.618   5.987   7.965 -1.1966 -1.0470 -2.1141
   67SAPC  C210 5606   0.832   5.987   8.013 -0.1523 -0.0880 -0.6927
   67SAPC  H10R 5607   0.931   5.968   7.966  0.9226  0.0528  1.4198
   67SAPC  H10S 5608   0.812   5.893   8.068  1.0211  0.9370  1.6209
   67SAPC  C211 5609   0.853   6.094   8.114 -0.1888  0.0909 -0.0365
   67SAPC  H11R 5610   0.883   6.195   8.084  2.8382 -0.8391 -0.4855
   67SAPC  C212 5611   0.835   6.081   8.251  0.0640 -0.2414  0.2134
   67SAPC  H12R 5612   0.841   6.171   8.314 -2.0465  0.4131 -0.4331
   67SAPC  C213 5613   0.790   5.969   8.344  0.2581  0.3603 -0.2194
   67SAPC  H13R 5614   0.713   5.910   8.290  1.2523 -2.0479  0.8550
   67SAPC  H13S 5615   0.730   6.005   8.430 -1.6473  1.8180 -2.0287
   67SAPC  C214 5616   0.907   5.884   8.386 -0.3355 -0.4547  0.1898
   67SAPC  H14R 5617   0.997   5.899   8.324 -1.1870  0.3691 -0.8850
   67SAPC  C215 5618   0.914   5.810   8.494  0.0509  0.0694  0.4480
   67SAPC  H15R 5619   1.010   5.762   8.515 -0.4125 -1.6050 -0.9892
   67SAPC  C216 5620   0.813   5.775   8.594  0.0097 -0.6995 -0.5081
   67SAPC  H16R 5621   0.714   5.823   8.577  0.5084  1.4503  2.0041
   67SAPC  H16S 5622   0.845   5.815   8.693 -2.8633 -1.5838  0.9216
   67SAPC  C217 5623   0.785   5.624   8.600 -0.7685  0.3739  0.2461
   67SAPC  H17R 5624   0.876   5.562   8.613 -0.1268  1.3906  0.7013
   67SAPC  H17S 5625   0.734   5.598   8.504 -2.0370 -0.1580  1.0379
   67SAPC  C218 5626   0.684   5.573   8.706 -0.0865 -0.3719  0.1415
   67SAPC  H18R 5627   0.709   5.622   8.803  0.0541  0.9599 -0.5486
   67SAPC  H18S 5628   0.700   5.464   8.721  1.5025 -0.3380 -1.0320
   67SAPC  C219 5629   0.539   5.593   8.662 -0.1792 -0.5413 -0.5389
   67SAPC  H19R 5630   0.533   5.562   8.555 -0.7900  0.6811 -0.8835
   67SAPC  H19S 5631   0.504   5.698   8.651 -0.2710 -0.4266  0.7036
   67SAPC  C220 5632   0.442   5.519   8.749  0.0334  0.5293  0.1544
   67SAPC  H20R 5633   0.462   5.411   8.734  1.5367  0.8766 -0.5220
   67SAPC  H20S 5634   0.338   5.547   8.724 -0.9699 -2.5068  0.4541
   67SAPC  H20T 5635   0.467   5.540   8.855  1.1976 -0.0668  0.0159
   67SAPC   C33 5636   1.241   6.704   7.128  0.6027  0.0049  0.5907
   67SAPC   H3X 5637   1.306   6.623   7.090 -2.0745 -1.7948 -0.4272
   67SAPC   H3Y 5638   1.149   6.656   7.167 -0.5710  2.3448  0.9041
   67SAPC   C34 5639   1.298   6.773   7.252  0.0137  0.7574 -0.3439
   67SAPC   H4X 5640   1.230   6.848   7.299 -1.1718 -1.3500  1.4974
   67SAPC   H4Y 5641   1.383   6.836   7.219 -0.1068  1.3671  0.4966
   67SAPC   C35 5642   1.341   6.669   7.361  0.1955 -0.5427 -0.4569
   67SAPC   H5X 5643   1.403   6.584   7.325  1.8816  0.1838  0.6023
   67SAPC   H5Y 5644   1.252   6.637   7.420  0.8961  0.7823  1.4106
   67SAPC   C36 5645   1.425   6.730   7.475  1.4545 -0.9676 -0.3658
   67SAPC   H6X 5646   1.369   6.815   7.521  1.0746 -1.7482  0.6620
   67SAPC   H6Y 5647   1.518   6.764   7.425  2.4130 -1.0442  1.3078
   67SAPC   C37 5648   1.451   6.635   7.597 -0.0121 -0.4947  0.5646
   67SAPC   H7X 5649   1.497   6.545   7.551  1.2502  0.1089  0.5986
   67SAPC   H7Y 5650   1.357   6.602   7.647 -1.1365  2.0117  0.2509
   67SAPC   C38 5651   1.548   6.695   7.693 -0.9245 -0.1928  0.4401
   67SAPC   H8X 5652   1.506   6.769   7.765  0.1399 -1.1988  2.1486
   67SAPC   H8Y 5653   1.621   6.754   7.634 -2.6828  2.3102  0.5963
   67SAPC   C39 5654   1.633   6.599   7.761 -0.1675  0.3411  0.3438
   67SAPC   H9X 5655   1.737   6.637   7.754  1.6081 -3.6372  2.0055
   67SAPC   H9Y 5656   1.641   6.510   7.696 -1.1154  0.6509 -0.2235
   67SAPC  C310 5657   1.598   6.569   7.904 -0.3629 -0.5938  0.0461
   67SAPC  H10X 5658   1.497   6.524   7.900 -0.4060 -0.4481 -0.7196
   67SAPC  H10Y 5659   1.579   6.666   7.954 -3.1443 -1.6600  1.2446
   67SAPC  C311 5660   1.696   6.478   7.975 -0.2503  0.5763  0.2474
   67SAPC  H11X 5661   1.792   6.533   7.982  0.5487 -0.2473 -2.8704
   67SAPC  H11Y 5662   1.727   6.390   7.915 -0.3571 -0.3068  1.4398
   67SAPC  C312 5663   1.662   6.440   8.123 -0.0556 -0.0194 -0.3390
   67SAPC  H12X 5664   1.562   6.392   8.116 -0.4948  0.8718 -0.1949
   67SAPC  H12Y 5665   1.652   6.533   8.182 -1.1893  0.7275 -1.6475
   67SAPC  C313 5666   1.763   6.346   8.191 -0.3118 -0.4055  0.1336
   67SAPC  H13X 5667   1.811   6.282   8.115  0.2047  1.3038 -1.0432
   67SAPC  H13Y 5668   1.715   6.276   8.262 -0.1372 -0.7656 -0.1031
   67SAPC  C314 5669   1.865   6.418   8.273  0.0610 -0.0283  0.2867
   67SAPC  H14X 5670   1.824   6.462   8.367 -0.5212  0.9435 -0.3974
   67SAPC  H14Y 5671   1.928   6.494   8.222  0.6740 -0.8606 -0.2107
   67SAPC  C315 5672   1.957   6.307   8.316 -0.0119  0.1395  0.3103
   67SAPC  H15X 5673   2.021   6.271   8.232  0.4400 -0.3502  0.8564
   67SAPC  H15Y 5674   1.903   6.213   8.339  0.8092 -0.5886 -0.6024
   67SAPC  C316 5675   2.057   6.335   8.431  0.2634 -0.2592  0.1176
   67SAPC  H16X 5676   2.096   6.436   8.408 -2.5947  0.7989 -0.5129
   67SAPC  H16Y 5677   2.137   6.258   8.418 -1.4404 -1.6906 -3.2579
   67SAPC  C317 5678   1.998   6.334   8.574 -0.2303 -0.3459  0.9107
   67SAPC  H17X 5679   1.959   6.235   8.604 -3.3087  0.6305  0.5083
   67SAPC  H17Y 5680   1.906   6.396   8.573  1.0734  1.7907 -1.3370
   67SAPC  C318 5681   2.096   6.389   8.681 -0.4112 -0.4783 -0.5308
   67SAPC  H18X 5682   2.106   6.500   8.679  0.1974 -0.5238 -0.3779
   67SAPC  H18Y 5683   2.198   6.346   8.670  0.4838  0.9174  1.6343
   67SAPC  H18Z 5684   2.054   6.367   8.781 -1.7600 -1.1251 -1.2080
   68SAPC     N 5685   4.730   0.345   5.862  0.0822 -0.4761  0.0055
   68SAPC   C12 5686   4.656   0.394   5.982 -0.4288 -0.4119 -0.7934
   68SAPC  H12A 5687   4.551   0.410   5.960  0.0522  0.6215 -2.5846
   68SAPC  H12B 5688   4.691   0.495   5.996  1.4478 -0.8563 -1.9284
   68SAPC   C13 5689   4.627   0.250   5.795  0.2986 -0.2798  0.6708
   68SAPC  H13A 5690   4.599   0.172   5.864 -0.4701  0.8421  1.6683
   68SAPC  H13B 5691   4.534   0.294   5.762  1.1117  0.9272 -0.1048
   68SAPC  H13C 5692   4.664   0.195   5.710 -2.3316  0.7379 -1.2669
   68SAPC   C14 5693   4.762   0.464   5.772  0.0832 -0.0079  1.1403
   68SAPC  H14A 5694   4.809   0.552   5.813  2.9150  1.1056 -3.7283
   68SAPC  H14B 5695   4.822   0.431   5.688  1.5553  1.1030  1.7038
   68SAPC  H14C 5696   4.675   0.492   5.715 -0.0210  0.5138  1.5593
   68SAPC   C15 5697   4.853   0.270   5.906 -0.4499  0.3104 -0.1972
   68SAPC  H15A 5698   4.886   0.200   5.831  3.2368 -2.2673  3.4030
   68SAPC  H15B 5699   4.931   0.334   5.945 -0.7530  0.6864 -0.1989
   68SAPC  H15C 5700   4.830   0.205   5.988  0.3507 -0.9940 -0.9779
   68SAPC   C11 5701   4.642   0.318   6.112 -0.4181  0.1440 -0.5752
   68SAPC  H11A 5702   4.589   0.381   6.187 -0.2620 -0.6524  0.2241
   68SAPC  H11B 5703   4.747   0.304   6.145 -0.6534 -2.1293 -0.6154
   68SAPC     P 5704   4.591   0.059   6.158  0.0994  0.3813 -0.3048
   68SAPC   O13 5705   4.544  -0.045   6.063  0.3298 -0.3996  0.7606
   68SAPC   O14 5706   4.734   0.055   6.198 -0.2693 -0.1028 -0.6133
   68SAPC   O12 5707   4.567   0.198   6.101  0.2807 -0.3971 -0.1650
   68SAPC   O11 5708   4.498   0.056   6.285  0.1243 -0.2119  0.2499
   68SAPC    C1 5709   4.491   0.174   6.362  0.1161  0.0004 -0.0802
   68SAPC    HA 5710   4.457   0.266   6.311  0.0523  1.8606  3.0376
   68SAPC    HB 5711   4.402   0.153   6.425  0.2483 -0.2698  0.0184
   68SAPC    C2 5712   4.606   0.190   6.459  0.2240  0.2765 -0.0886
   68SAPC    HS 5713   4.702   0.170   6.407  1.2988  0.3190  1.7776
   68SAPC   O21 5714   4.584   0.091   6.569 -0.0323  0.0234  0.0723
   68SAPC   C21 5715   4.696   0.060   6.637  0.0279  0.2308 -0.3046
   68SAPC   O22 5716   4.810   0.092   6.598 -0.3899  0.0757 -0.6752
   68SAPC   C22 5717   4.668  -0.017   6.766 -0.5733  0.4070 -0.4661
   68SAPC   H2R 5718   4.648  -0.123   6.741 -0.7878  0.2750  0.2353
   68SAPC   H2S 5719   4.762  -0.019   6.825 -0.8757  0.5991  0.0346
   68SAPC    C3 5720   4.616   0.336   6.515  0.2426 -0.3292  0.1224
   68SAPC    HX 5721   4.524   0.353   6.575  0.6716 -0.5307  0.8508
   68SAPC    HY 5722   4.601   0.406   6.430  1.0361  1.1983  1.1802
   68SAPC   O31 5723   4.731   0.361   6.581 -0.1100  0.5053  0.3173
   68SAPC   C31 5724   4.835   0.395   6.505 -0.1049  0.0848 -0.0300
   68SAPC   O32 5725   4.834   0.416   6.385 -0.5983 -0.6208  0.1499
   68SAPC   C32 5726   4.974   0.378   6.572 -0.1368  0.0863 -0.1399
   68SAPC   H2X 5727   5.043   0.463   6.553  1.4890 -0.9988  0.7111
   68SAPC   H2Y 5728   5.026   0.306   6.506  0.4467 -0.2349  0.6570
   68SAPC   C23 5729   4.556   0.048   6.852 -0.3837 -0.2673 -0.0096
   68SAPC   H3R 5730   4.560  -0.005   6.950  4.8224 -3.0247 -1.3419
   68SAPC   H3S 5731   4.456   0.037   6.806 -0.9079 -1.2706  1.2980
   68SAPC   C24 5732   4.570   0.197   6.879  0.1021 -0.5916  0.5402
   68SAPC   H4R 5733   4.472   0.244   6.899  0.0199  2.2962 -4.9808
   68SAPC   H4S 5734   4.604   0.243   6.785 -1.3044  2.2423  1.3164
   68SAPC   C25 5735   4.674   0.244   6.980  0.0538  0.7644 -0.2210
   68SAPC   H5R 5736   4.777   0.253   6.942  0.2071  1.7963  0.3904
   68SAPC   C26 5737   4.649   0.295   7.102  0.1559  0.4951 -1.1696
   68SAPC   H6R 5738   4.737   0.337   7.153 -0.2865  2.4778 -1.9403
   68SAPC   C27 5739   4.515   0.306   7.179  0.0659  0.5913 -1.1189
   68SAPC   H7R 5740   4.540   0.274   7.282  1.0271  1.0552 -1.2000
   68SAPC   H7S 5741   4.435   0.235   7.148  1.1471 -0.1433 -2.3641
   68SAPC   C28 5742   4.461   0.443   7.168  0.5255 -0.6151  0.5999
   68SAPC   H8R 5743   4.490   0.485   7.070 -0.1464 -3.6367 -1.0576
   68SAPC   C29 5744   4.393   0.513   7.267  0.1604 -0.3055  0.0659
   68SAPC   H9R 5745   4.371   0.618   7.242  1.1951  0.2441  1.3607
   68SAPC  C210 5746   4.355   0.475   7.405  0.0718  0.1549  0.9967
   68SAPC  H10R 5747   4.385   0.371   7.429  1.0861 -0.2062 -1.5657
   68SAPC  H10S 5748   4.244   0.469   7.416 -0.1720  1.9721 -0.0077
   68SAPC  C211 5749   4.409   0.547   7.524 -0.0738 -1.1716  0.5262
   68SAPC  H11R 5750   4.512   0.523   7.554  0.0320  0.3465  1.4869
   68SAPC  C212 5751   4.346   0.646   7.591  0.3861 -0.2156  0.2333
   68SAPC  H12R 5752   4.397   0.701   7.671 -0.0431  2.1937 -1.0702
   68SAPC  C213 5753   4.203   0.686   7.553 -0.6568 -0.2977  0.7410
   68SAPC  H13R 5754   4.127   0.623   7.604 -1.7864 -1.9357 -2.6484
   68SAPC  H13S 5755   4.176   0.669   7.446  2.5512 -1.6102  0.0443
   68SAPC  C214 5756   4.192   0.832   7.573 -0.6167 -0.1693  0.0914
   68SAPC  H14R 5757   4.242   0.882   7.490  1.6731 -2.2748  0.0924
   68SAPC  C215 5758   4.138   0.897   7.679 -0.5025 -0.1902 -0.6508
   68SAPC  H15R 5759   4.126   1.006   7.680  1.4262  0.0484 -0.7547
   68SAPC  C216 5760   4.062   0.820   7.790 -0.6094 -0.1417  0.2820
   68SAPC  H16R 5761   4.078   0.710   7.789  3.9204  0.3294 -0.6160
   68SAPC  H16S 5762   3.955   0.843   7.769 -0.8810  0.0504  1.7798
   68SAPC  C217 5763   4.094   0.860   7.941  0.1919  0.2678  0.1412
   68SAPC  H17R 5764   4.007   0.818   7.995  2.2278 -2.0751  1.8271
   68SAPC  H17S 5765   4.093   0.971   7.952  1.2220  0.1657  1.4521
   68SAPC  C218 5766   4.212   0.786   7.997 -0.1761  0.4423 -0.2212
   68SAPC  H18R 5767   4.307   0.806   7.942 -0.6856  1.4860 -0.7595
   68SAPC  H18S 5768   4.187   0.678   8.002  0.9001  0.2151  0.4932
   68SAPC  C219 5769   4.236   0.829   8.141 -0.7290 -0.2895 -0.4469
   68SAPC  H19R 5770   4.152   0.789   8.201 -0.2495 -1.5016 -0.5505
   68SAPC  H19S 5771   4.224   0.939   8.145 -0.6877 -0.2916 -0.2241
   68SAPC  C220 5772   4.368   0.788   8.219  0.0230 -0.1339  0.5311
   68SAPC  H20R 5773   4.371   0.821   8.325  0.5050  0.9122  0.2056
   68SAPC  H20S 5774   4.465   0.829   8.185  0.5835 -2.2342 -0.5343
   68SAPC  H20T 5775   4.377   0.677   8.217 -3.2682 -0.5199  0.6888
   68SAPC   C33 5776   4.978   0.349   6.724 -0.2013 -0.1622 -0.5851
   68SAPC   H3X 5777   4.946   0.243   6.738 -0.2019  0.1567  2.2069
   68SAPC   H3Y 5778   4.913   0.418   6.780 -2.4666 -1.6057 -1.2953
   68SAPC   C34 5779   5.120   0.352   6.781  0.1440 -0.7383 -0.3118
   68SAPC   H4X 5780   5.173   0.449   6.776 -0.7258 -0.3235 -2.7794
   68SAPC   H4Y 5781   5.185   0.286   6.720  2.9740  1.2607  0.3417
   68SAPC   C35 5782   5.127   0.307   6.927 -0.5167  1.1417  0.2260
   68SAPC   H5X 5783   5.121   0.196   6.930  3.4136  0.7916  1.3235
   68SAPC   H5Y 5784   5.036   0.349   6.974 -2.8206 -1.0896 -1.9829
   68SAPC   C36 5785   5.260   0.334   7.002  0.0572 -0.8685 -0.0124
   68SAPC   H6X 5786   5.290   0.436   6.970 -0.1339 -0.4183  1.1986
   68SAPC   H6Y 5787   5.333   0.255   6.973  0.7289  0.3360 -1.7178
   68SAPC   C37 5788   5.233   0.341   7.158 -0.2173  0.0236  0.2481
   68SAPC   H7X 5789   5.184   0.248   7.192 -0.5783  1.1114  2.9464
   68SAPC   H7Y 5790   5.170   0.430   7.181  0.2215  0.5674 -0.5838
   68SAPC   C38 5791   5.368   0.358   7.237 -0.1078  0.4989  0.5874
   68SAPC   H8X 5792   5.424   0.446   7.199  0.7029 -0.6279 -0.9775
   68SAPC   H8Y 5793   5.436   0.273   7.213 -0.7894  0.4615 -1.3135
   68SAPC   C39 5794   5.351   0.364   7.392 -0.5455 -0.0018  0.0819
   68SAPC   H9X 5795   5.281   0.448   7.410 -2.4515 -1.1048 -1.7876
   68SAPC   H9Y 5796   5.443   0.395   7.446 -0.4416 -1.4876  0.8144
   68SAPC  C310 5797   5.303   0.233   7.465 -0.0060  0.2295 -0.1104
   68SAPC  H10X 5798   5.383   0.158   7.447 -0.1343 -0.3517  1.6080
   68SAPC  H10Y 5799   5.205   0.199   7.427  0.9006 -1.1381 -1.3597
   68SAPC  C311 5800   5.272   0.247   7.612  0.1602 -0.0084  0.0884
   68SAPC  H11X 5801   5.190   0.322   7.619 -0.6319 -0.8341 -0.1904
   68SAPC  H11Y 5802   5.357   0.298   7.663  0.3121  1.0529 -1.1739
   68SAPC  C312 5803   5.235   0.118   7.682 -0.2297  0.5244  0.7304
   68SAPC  H12X 5804   5.308   0.038   7.656  0.9957  1.7497  0.2716
   68SAPC  H12Y 5805   5.140   0.080   7.640  0.7203  0.8688 -1.8975
   68SAPC  C313 5806   5.209   0.134   7.833  0.0966  0.5886 -0.2518
   68SAPC  H13X 5807   5.228   0.241   7.857 -0.1978  0.1719  2.0572
   68SAPC  H13Y 5808   5.280   0.068   7.886  0.6805  1.1443 -0.3244
   68SAPC  C314 5809   5.062   0.102   7.879 -0.2007  0.1727 -0.7136
   68SAPC  H14X 5810   5.036  -0.002   7.850 -2.0705  0.4371 -0.0897
   68SAPC  H14Y 5811   5.000   0.165   7.812 -1.9164 -0.4638  0.2108
   68SAPC  C315 5812   5.040   0.113   8.027  0.1909  0.0082  0.1662
   68SAPC  H15X 5813   5.103   0.040   8.082  0.2573 -0.5270 -0.6039
   68SAPC  H15Y 5814   4.930   0.103   8.041  0.2231  1.5440  1.8712
   68SAPC  C316 5815   5.055   0.253   8.085 -0.5683 -0.6924 -0.3619
   68SAPC  H16X 5816   5.008   0.333   8.024  2.1583  2.0799  0.9099
   68SAPC  H16Y 5817   5.162   0.282   8.084 -0.7419  0.0460  0.6904
   68SAPC  C317 5818   5.013   0.248   8.235  0.8617 -1.1834  0.2672
   68SAPC  H17X 5819   5.037   0.151   8.284 -1.1359 -2.9419 -2.0247
   68SAPC  H17Y 5820   4.903   0.259   8.225  1.0112  0.8815  0.3726
   68SAPC  C318 5821   5.077   0.372   8.308  0.1029  0.5548  0.8419
   68SAPC  H18X 5822   5.094   0.456   8.237 -3.5976  1.8306  1.2442
   68SAPC  H18Y 5823   5.174   0.346   8.355 -0.9566 -1.9016  1.8503
   68SAPC  H18Z 5824   5.005   0.407   8.385  2.2373  2.2754  2.1684
   69SLPC     N 5825   4.036   3.397  11.432  0.0386 -0.2819 -0.0020
   69SLPC   C13 5826   4.033   3.281  11.333  0.5018 -0.4459 -0.6077
   69SLPC  H13A 5827   4.103   3.204  11.362 -1.5782 -1.6341  1.6558
   69SLPC  H13B 5828   3.932   3.243  11.324  0.1308 -0.1187  1.6149
   69SLPC  H13C 5829   4.054   3.308  11.230 -1.6569  0.7515 -0.7895
   69SLPC   C14 5830   4.175   3.449  11.452  0.5161  0.3787 -0.5277
   69SLPC  H14A 5831   4.213   3.498  11.364  1.7852  2.6752  1.2013
   69SLPC  H14B 5832   4.184   3.518  11.535 -2.4207 -0.4041  0.5764
   69SLPC  H14C 5833   4.237   3.363  11.472 -0.6246 -0.1446  1.0162
   69SLPC   C15 5834   3.997   3.345  11.569  0.3604 -0.0421  0.0650
   69SLPC  H15A 5835   3.899   3.300  11.559  0.9139 -1.5861  1.1844
   69SLPC  H15B 5836   4.059   3.267  11.611 -1.5247 -0.9975  1.2213
   69SLPC  H15C 5837   3.982   3.425  11.640 -0.0315  1.1609 -1.3389
   69SLPC   C12 5838   3.940   3.504  11.384 -0.4437 -0.1944  0.1461
   69SLPC  H12A 5839   3.946   3.595  11.442 -0.8232 -0.0480 -0.0385
   69SLPC  H12B 5840   3.844   3.462  11.411 -0.9471  1.0165  0.3107
   69SLPC   C11 5841   3.925   3.530  11.234 -1.1663  0.2011  0.0202
   69SLPC  H11A 5842   3.843   3.604  11.230 -2.3034 -1.0458 -0.7003
   69SLPC  H11B 5843   3.894   3.438  11.179 -1.7638 -0.6223  1.6621
   69SLPC     P 5844   4.093   3.549  11.037 -0.2478 -0.1476 -0.2149
   69SLPC   O13 5845   4.236   3.580  11.051  0.0605  0.1446  0.5566
   69SLPC   O14 5846   4.064   3.406  10.999  0.0233 -0.0600 -0.1583
   69SLPC   O12 5847   4.037   3.588  11.174 -0.1253  0.1389 -0.1164
   69SLPC   O11 5848   4.034   3.648  10.946  0.0058 -0.8491  0.3236
   69SLPC    C1 5849   3.903   3.616  10.881 -0.9586  0.7535 -0.2330
   69SLPC    HA 5850   3.852   3.531  10.930 -1.2311 -2.0686 -4.8109
   69SLPC    HB 5851   3.835   3.703  10.881  0.1186  1.6298 -0.8971
   69SLPC    C2 5852   3.917   3.575  10.728 -0.5590 -0.1877  0.5656
   69SLPC    HS 5853   3.976   3.482  10.713 -0.3570  0.1826 -1.1223
   69SLPC   O21 5854   3.976   3.680  10.649 -0.3215 -0.7207 -0.6834
   69SLPC   C21 5855   4.111   3.687  10.640 -0.4017  0.2009 -1.2549
   69SLPC   O22 5856   4.183   3.616  10.703 -0.3956  0.3653 -0.4116
   69SLPC   C22 5857   4.154   3.784  10.531 -0.4062 -0.4819  1.0254
   69SLPC   H2R 5858   4.115   3.887  10.546 -0.5273 -0.4777  0.6952
   69SLPC   H2S 5859   4.265   3.780  10.532 -0.3546  0.5875  1.7926
   69SLPC    C3 5860   3.772   3.555  10.675 -0.2570 -0.2021  0.0385
   69SLPC    HX 5861   3.716   3.649  10.691 -0.3419  0.0769 -1.6831
   69SLPC    HY 5862   3.719   3.472  10.728 -0.0672  0.7229  1.7513
   69SLPC   O31 5863   3.782   3.512  10.537 -0.2644 -0.1971 -1.1685
   69SLPC   C31 5864   3.727   3.591  10.449 -0.1711 -0.4810  0.1726
   69SLPC   O32 5865   3.672   3.700  10.470  0.2964 -0.1848  0.2594
   69SLPC   C32 5866   3.728   3.514  10.323 -0.4092  0.6203  0.1681
   69SLPC   H2X 5867   3.624   3.492  10.293  0.5809 -0.9914 -2.4187
   69SLPC   H2Y 5868   3.785   3.420  10.341  0.0619  1.1169  1.4094
   69SLPC   C23 5869   4.092   3.737  10.399 -0.1735 -0.7708 -0.2367
   69SLPC   H3R 5870   3.983   3.757  10.387 -0.5030 -3.2815 -2.0932
   69SLPC   H3S 5871   4.099   3.627  10.389  0.7635 -0.5357 -3.5244
   69SLPC   C24 5872   4.168   3.801  10.284 -0.0761  0.3880  0.1389
   69SLPC   H4R 5873   4.273   3.764  10.279 -0.8682 -3.5763  5.0922
   69SLPC   H4S 5874   4.180   3.911  10.293  0.8655  0.1342  3.1378
   69SLPC   C25 5875   4.115   3.770  10.144  0.1146 -0.2047 -0.7537
   69SLPC   H5R 5876   4.010   3.808  10.139  0.2151 -0.0108 -1.6712
   69SLPC   H5S 5877   4.108   3.660  10.130 -1.0988 -0.0141 -1.9531
   69SLPC   C26 5878   4.195   3.835  10.034 -0.0694 -0.0643  0.0796
   69SLPC   H6R 5879   4.300   3.804  10.054 -0.6846 -1.2626  1.5729
   69SLPC   H6S 5880   4.195   3.947  10.034  0.3465 -0.0549 -0.5251
   69SLPC   C27 5881   4.148   3.799   9.886 -0.2036 -0.5457 -0.2280
   69SLPC   H7R 5882   4.047   3.842   9.869 -0.0578 -0.2161 -0.2706
   69SLPC   H7S 5883   4.149   3.689   9.875 -1.0733 -0.7846  1.7388
   69SLPC   C28 5884   4.250   3.845   9.776 -0.4583 -0.8335 -0.3736
   69SLPC   H8R 5885   4.354   3.833   9.812 -0.0268 -0.2862 -1.3800
   69SLPC   H8S 5886   4.242   3.956   9.776  0.1929 -0.6230  3.9728
   69SLPC   C29 5887   4.227   3.790   9.640 -0.3197  0.6259 -0.3557
   69SLPC   H9R 5888   4.153   3.710   9.654 -0.3866  0.6418 -0.6262
   69SLPC  C210 5889   4.253   3.835   9.520  0.1134 -0.1426  0.2858
   69SLPC  H10R 5890   4.225   3.774   9.433 -1.9784 -2.3049  2.3301
   69SLPC  C211 5891   4.335   3.963   9.500  0.4967 -0.0230  0.5906
   69SLPC  H11R 5892   4.441   3.946   9.528  0.7091 -0.4875 -0.4401
   69SLPC  H11S 5893   4.315   4.041   9.576  0.8852  0.8609 -0.1927
   69SLPC  C212 5894   4.347   4.029   9.359 -0.2337  0.0888  0.1506
   69SLPC  H12R 5895   4.308   4.131   9.346  1.2375  0.5051 -1.1713
   69SLPC  C213 5896   4.421   3.975   9.260  0.8374  0.0407  0.6320
   69SLPC  H13R 5897   4.426   4.033   9.167 -0.9698 -1.5028 -0.5321
   69SLPC  C214 5898   4.499   3.854   9.270 -0.7927  0.3542 -0.0863
   69SLPC  H14R 5899   4.479   3.797   9.177 -0.9058  1.8897 -1.0466
   69SLPC  H14S 5900   4.483   3.795   9.363 -0.8860  0.0556 -0.2915
   69SLPC  C215 5901   4.644   3.897   9.257  0.2004 -0.4879  0.5907
   69SLPC  H15R 5902   4.666   3.952   9.163  0.1545 -0.1574  0.7701
   69SLPC  H15S 5903   4.698   3.800   9.249  0.4935 -0.2188 -0.8655
   69SLPC  C216 5904   4.691   3.982   9.374 -0.3582  0.2640  0.2555
   69SLPC  H16R 5905   4.653   3.932   9.466  0.7688  0.7535  1.0100
   69SLPC  H16S 5906   4.654   4.086   9.364  1.4416  0.8125 -1.1022
   69SLPC  C217 5907   4.845   4.003   9.393 -0.4185 -0.0494  1.1059
   69SLPC  H17R 5908   4.898   4.050   9.307  1.1692 -3.5695 -0.0725
   69SLPC  H17S 5909   4.886   3.899   9.392  2.2217  0.8922 -0.1105
   69SLPC  C218 5910   4.893   4.066   9.525  0.0144  0.8284  0.1515
   69SLPC  H18R 5911   5.001   4.085   9.510  0.6786  0.1651  3.3056
   69SLPC  H18S 5912   4.881   3.989   9.604 -0.7286 -1.1338 -1.7630
   69SLPC  H18T 5913   4.842   4.163   9.544  1.0164  1.3393  0.3013
   69SLPC   C33 5914   3.794   3.590  10.207 -0.2359 -0.0092  0.1326
   69SLPC   H3X 5915   3.899   3.611  10.234 -0.0448  3.3418 -2.5511
   69SLPC   H3Y 5916   3.737   3.682  10.184 -0.4385  0.1126  1.0691
   69SLPC   C34 5917   3.783   3.503  10.089  0.5263  0.5466 -0.2810
   69SLPC   H4X 5918   3.681   3.468  10.068 -0.5358  3.2858 -0.1771
   69SLPC   H4Y 5919   3.845   3.411  10.100 -0.4895 -0.7125 -3.9210
   69SLPC   C35 5920   3.842   3.567   9.965 -0.3749  0.0115  0.5257
   69SLPC   H5X 5921   3.952   3.563   9.984 -0.0960  0.1622 -0.8928
   69SLPC   H5Y 5922   3.808   3.671   9.948  1.1586  0.2591 -1.4155
   69SLPC   C36 5923   3.814   3.486   9.833  0.3880 -0.0872  0.0341
   69SLPC   H6X 5924   3.709   3.499   9.799  0.0035 -0.8928  0.8686
   69SLPC   H6Y 5925   3.833   3.379   9.853 -1.9992 -1.1028 -2.5192
   69SLPC   C37 5926   3.916   3.530   9.728 -0.4511 -0.4476  0.0275
   69SLPC   H7X 5927   4.017   3.530   9.775 -0.9225 -2.4689  1.1530
   69SLPC   H7Y 5928   3.902   3.636   9.698 -0.7717 -0.2312  0.8977
   69SLPC   C38 5929   3.908   3.445   9.611 -0.1961  0.9345  0.0783
   69SLPC   H8X 5930   3.813   3.465   9.558 -0.0864  1.7250  0.1706
   69SLPC   H8Y 5931   3.904   3.344   9.658  0.9124  2.0228  2.7075
   69SLPC   C39 5932   4.027   3.455   9.513 -0.2589  0.2701 -0.3573
   69SLPC   H9X 5933   4.113   3.416   9.571  1.8473  1.0130 -2.7672
   69SLPC   H9Y 5934   4.056   3.559   9.488  2.2942 -0.2597  0.0856
   69SLPC  C310 5935   4.006   3.387   9.385  0.6020  0.2174 -0.0175
   69SLPC  H10X 5936   3.933   3.305   9.400  0.3283  0.6116  0.8700
   69SLPC  H10Y 5937   4.104   3.345   9.352  0.9254  0.5908  0.4345
   69SLPC  C311 5938   3.948   3.480   9.274 -0.7725  0.8480 -0.5631
   69SLPC  H11X 5939   3.853   3.522   9.314 -0.2104 -0.1636  2.0183
   69SLPC  H11Y 5940   3.916   3.415   9.189 -2.7065  1.0598 -0.0531
   69SLPC  C312 5941   4.062   3.570   9.222  0.2901 -0.3247  0.4739
   69SLPC  H12X 5942   4.152   3.511   9.194  0.0871 -0.2411 -0.3712
   69SLPC  H12Y 5943   4.086   3.652   9.293 -1.1121 -0.7685  1.5028
   69SLPC  C313 5944   4.000   3.638   9.092 -0.0643 -0.1222  0.4336
   69SLPC  H13X 5945   3.922   3.709   9.127  0.9229  0.9409  0.5662
   69SLPC  H13Y 5946   3.954   3.570   9.017  1.0874  1.8322 -2.2341
   69SLPC  C314 5947   4.107   3.715   9.009 -0.3971  1.1299 -0.3489
   69SLPC  H14X 5948   4.196   3.732   9.072 -0.4778  0.7565 -0.1262
   69SLPC  H14Y 5949   4.063   3.807   8.964 -1.4448  0.3761 -0.9421
   69SLPC  C315 5950   4.161   3.628   8.891 -0.5863 -0.0396 -0.3349
   69SLPC  H15X 5951   4.240   3.694   8.850  1.0203 -2.0963 -0.7033
   69SLPC  H15Y 5952   4.080   3.615   8.816 -1.6931  2.5732  0.2838
   69SLPC  C316 5953   4.237   3.496   8.936  0.3805 -0.0215 -0.4169
   69SLPC  H16X 5954   4.158   3.440   8.992  0.7586  1.0609  1.2984
   69SLPC  H16Y 5955   4.312   3.541   9.005 -0.2534 -0.3256  0.4932
   69SLPC  C317 5956   4.296   3.412   8.831  0.5253  0.0313  0.1781
   69SLPC  H17X 5957   4.214   3.356   8.782  0.8831 -1.2256  0.9565
   69SLPC  H17Y 5958   4.371   3.341   8.875  0.0395 -1.8200 -1.8340
   69SLPC  C318 5959   4.366   3.493   8.717  0.5511  0.1631 -0.0924
   69SLPC  H18X 5960   4.398   3.592   8.756 -2.2564  0.5713  1.4453
   69SLPC  H18Y 5961   4.298   3.512   8.631  0.1526  0.1997  0.2307
   69SLPC  H18Z 5962   4.456   3.438   8.682  0.3708 -0.1313 -0.0904
   70SLPC     N 5963   4.110   0.238  11.045  0.4342  0.7392  0.0994
   70SLPC   C13 5964   4.079   0.097  10.986  0.0458 -1.1858 -0.5139
   70SLPC  H13A 5965   4.033   0.031  11.058 -0.6400 -1.4608 -1.1900
   70SLPC  H13B 5966   4.016   0.106  10.898 -0.3189 -2.9759 -0.4612
   70SLPC  H13C 5967   4.171   0.058  10.946  0.6903 -1.5778  1.2922
   70SLPC   C14 5968   4.204   0.219  11.147  0.1388 -0.4313  0.2356
   70SLPC  H14A 5969   4.230   0.315  11.187  1.5200 -0.6081 -0.2084
   70SLPC  H14B 5970   4.178   0.155  11.230 -0.7366  0.5521  0.7439
   70SLPC  H14C 5971   4.298   0.183  11.108  1.8175  2.4106  1.3783
   70SLPC   C15 5972   3.975   0.276  11.108 -0.7616 -0.4745  0.4891
   70SLPC  H15A 5973   3.898   0.275  11.033 -1.4604 -3.6225  1.0990
   70SLPC  H15B 5974   3.954   0.203  11.185  1.2029  0.0008  1.5327
   70SLPC  H15C 5975   3.980   0.373  11.155 -0.2902  1.4454 -3.1437
   70SLPC   C12 5976   4.162   0.335  10.941  0.4110  0.4953  0.0783
   70SLPC  H12A 5977   4.177   0.426  10.996 -0.8556  0.9388 -0.2568
   70SLPC  H12B 5978   4.075   0.353  10.879 -0.2965  0.5948  1.0811
   70SLPC   C11 5979   4.293   0.305  10.858  0.0557 -0.0307 -0.0180
   70SLPC  H11A 5980   4.327   0.388  10.793  2.7945  0.6026  2.0345
   70SLPC  H11B 5981   4.267   0.220  10.792 -1.3897 -0.4391  1.0221
   70SLPC     P 5982   4.527   0.351  10.983  0.3898  0.3580 -0.0364
   70SLPC   O13 5983   4.478   0.462  11.061  0.0432  0.0558 -0.4005
   70SLPC   O14 5984   4.625   0.268  11.053  0.2246  0.7865  0.0846
   70SLPC   O12 5985   4.401   0.255  10.947  0.5677 -0.2255  0.0750
   70SLPC   O11 5986   4.589   0.396  10.839  0.2570 -0.2867 -0.1549
   70SLPC    C1 5987   4.684   0.505  10.834  0.6118  0.0903  0.1229
   70SLPC    HA 5988   4.631   0.602  10.847 -0.4150 -0.3334 -0.8031
   70SLPC    HB 5989   4.769   0.498  10.905  1.0171  1.9489 -0.1340
   70SLPC    C2 5990   4.747   0.522  10.692  0.3327 -0.6362 -0.2882
   70SLPC    HS 5991   4.807   0.615  10.699 -1.1229  0.4367 -1.3903
   70SLPC   O21 5992   4.643   0.517  10.593 -0.1234  0.1406 -0.3783
   70SLPC   C21 5993   4.561   0.609  10.600  0.2718 -0.1579  0.1074
   70SLPC   O22 5994   4.561   0.714  10.661  0.0653  0.5218 -0.1919
   70SLPC   C22 5995   4.444   0.575  10.519 -0.6520 -0.1025 -0.6229
   70SLPC   H2R 5996   4.397   0.479  10.548 -2.5229  1.1698  0.7308
   70SLPC   H2S 5997   4.366   0.654  10.519  0.2476  0.8133 -1.2193
   70SLPC    C3 5998   4.849   0.412  10.661  0.0542 -0.7412  0.1065
   70SLPC    HX 5999   4.817   0.311  10.696  1.9382 -1.3234  0.2369
   70SLPC    HY 6000   4.929   0.438  10.733 -1.8536  1.0215  1.7111
   70SLPC   O31 6001   4.899   0.418  10.530  0.0457  0.0159 -0.0875
   70SLPC   C31 6002   4.860   0.311  10.454  0.0536 -0.6637 -0.3949
   70SLPC   O32 6003   4.784   0.224  10.488 -0.0122 -0.1678  0.0965
   70SLPC   C32 6004   4.934   0.325  10.326  0.1004  0.8605  0.0286
   70SLPC   H2X 6005   5.010   0.245  10.318 -1.9652 -1.1670 -0.3449
   70SLPC   H2Y 6006   4.989   0.422  10.324  0.1206  0.9382  2.2835
   70SLPC   C23 6007   4.481   0.546  10.366  0.8476  0.2027  0.0176
   70SLPC   H3R 6008   4.405   0.476  10.325 -0.3989  2.2000 -1.2381
   70SLPC   H3S 6009   4.577   0.491  10.357 -0.1526 -1.4732 -1.0932
   70SLPC   C24 6010   4.485   0.668  10.275 -0.0302  1.0645 -0.5815
   70SLPC   H4R 6011   4.583   0.720  10.281  1.0744 -0.8778 -0.9627
   70SLPC   H4S 6012   4.402   0.730  10.315  0.0175 -0.3092  1.9012
   70SLPC   C25 6013   4.469   0.618  10.132 -0.2921 -0.5080 -0.1784
   70SLPC   H5R 6014   4.415   0.523  10.113  0.9478 -0.9784 -1.4958
   70SLPC   H5S 6015   4.569   0.592  10.093 -0.7712 -0.2959 -1.5936
   70SLPC   C26 6016   4.414   0.720  10.027  0.3782  0.3260  0.3211
   70SLPC   H6R 6017   4.465   0.817  10.039 -2.5510  1.8778  1.2241
   70SLPC   H6S 6018   4.308   0.738  10.054  0.2331  0.5375 -0.3536
   70SLPC   C27 6019   4.428   0.678   9.879  0.3671  0.2272 -0.0219
   70SLPC   H7R 6020   4.382   0.578   9.859 -2.0128  1.3951 -0.7577
   70SLPC   H7S 6021   4.536   0.668   9.856 -0.0238  0.3422 -2.1336
   70SLPC   C28 6022   4.379   0.793   9.780  0.1748  0.1854 -0.2197
   70SLPC   H8R 6023   4.433   0.771   9.685  1.2091 -0.3401  0.4683
   70SLPC   H8S 6024   4.408   0.890   9.825 -0.2891  0.4198 -0.4187
   70SLPC   C29 6025   4.226   0.803   9.771 -0.3081 -0.0377 -0.4423
   70SLPC   H9R 6026   4.172   0.814   9.866 -0.9709  1.5759 -0.9617
   70SLPC  C210 6027   4.157   0.781   9.664 -0.1556  0.1954 -0.0197
   70SLPC  H10R 6028   4.049   0.797   9.668 -0.4676 -1.5439 -0.7302
   70SLPC  C211 6029   4.219   0.754   9.525  0.2166 -0.3285 -0.2614
   70SLPC  H11R 6030   4.277   0.845   9.500  0.0840  0.3526  1.7462
   70SLPC  H11S 6031   4.136   0.736   9.453 -0.8888  1.0905  0.5979
   70SLPC  C212 6032   4.305   0.630   9.511  0.0753 -0.5223  0.1419
   70SLPC  H12R 6033   4.301   0.553   9.590  1.3297 -0.0883  0.6429
   70SLPC  C213 6034   4.392   0.601   9.410 -0.7279  0.6026  0.2104
   70SLPC  H13R 6035   4.446   0.506   9.421 -3.4139 -1.3358 -1.8113
   70SLPC  C214 6036   4.417   0.682   9.285 -0.0716 -0.3095 -0.2679
   70SLPC  H14R 6037   4.319   0.729   9.263 -0.5880 -1.5455 -0.6753
   70SLPC  H14S 6038   4.444   0.618   9.198 -0.4475  0.7866 -1.2185
   70SLPC  C215 6039   4.522   0.798   9.300 -0.1024  0.3768 -0.1189
   70SLPC  H15R 6040   4.616   0.764   9.349  1.6654  1.6134 -2.4824
   70SLPC  H15S 6041   4.474   0.882   9.355  0.4280  0.5874  0.0183
   70SLPC  C216 6042   4.568   0.841   9.154  0.3788 -0.1269 -0.4184
   70SLPC  H16R 6043   4.565   0.949   9.129  0.6834 -0.7760 -3.7443
   70SLPC  H16S 6044   4.494   0.800   9.082 -0.9496 -0.8065  1.2542
   70SLPC  C217 6045   4.711   0.805   9.107 -0.1315 -0.0651 -0.6980
   70SLPC  H17R 6046   4.745   0.705   9.143 -1.5336 -0.7051 -1.1002
   70SLPC  H17S 6047   4.773   0.877   9.165 -0.9608  0.7760 -0.8241
   70SLPC  C218 6048   4.728   0.829   8.963  0.2141  0.3060  0.0375
   70SLPC  H18R 6049   4.828   0.790   8.932 -0.3524  0.4055 -2.0346
   70SLPC  H18S 6050   4.733   0.939   8.948 -2.3577  0.3300 -1.0820
   70SLPC  H18T 6051   4.645   0.789   8.902 -0.9644  2.3060  0.2599
   70SLPC   C33 6052   4.849   0.305  10.200 -0.7102 -0.4859 -0.6431
   70SLPC   H3X 6053   4.756   0.363  10.223 -2.3851 -4.0109  2.7794
   70SLPC   H3Y 6054   4.827   0.199  10.175 -1.1143 -0.2942 -1.1104
   70SLPC   C34 6055   4.926   0.363  10.083  0.8058  0.2541  0.2465
   70SLPC   H4X 6056   5.011   0.304  10.042  0.0403  0.6057 -1.9675
   70SLPC   H4Y 6057   4.955   0.465  10.116  0.9948 -0.2936  1.8258
   70SLPC   C35 6058   4.837   0.394   9.959  0.0859 -0.6755  0.1641
   70SLPC   H5X 6059   4.752   0.456   9.994  1.7992  0.1910  3.1081
   70SLPC   H5Y 6060   4.803   0.301   9.909  1.0816  0.3152 -2.5019
   70SLPC   C36 6061   4.907   0.480   9.853  0.8276  0.2662  0.0439
   70SLPC   H6X 6062   5.010   0.446   9.828  2.4012  2.2505  3.1825
   70SLPC   H6Y 6063   4.943   0.575   9.899  2.8518 -0.4253 -0.0059
   70SLPC   C37 6064   4.826   0.502   9.723  0.1934  0.3069 -0.5218
   70SLPC   H7X 6065   4.829   0.607   9.688  0.1364  0.4318 -0.1580
   70SLPC   H7Y 6066   4.718   0.494   9.748  0.7777 -0.9839  1.9960
   70SLPC   C38 6067   4.881   0.408   9.611 -0.1880 -0.1855 -0.6904
   70SLPC   H8X 6068   4.852   0.308   9.649  1.4215 -0.1934  0.6348
   70SLPC   H8Y 6069   4.991   0.421   9.610  0.1237 -2.1178  0.9632
   70SLPC   C39 6070   4.799   0.439   9.484 -0.2821 -0.1838  0.6048
   70SLPC   H9X 6071   4.822   0.542   9.449 -3.1004 -0.4446 -2.5081
   70SLPC   H9Y 6072   4.690   0.425   9.496 -0.5067 -0.3303 -1.3490
   70SLPC  C310 6073   4.839   0.355   9.365 -1.0710 -0.4997 -0.3107
   70SLPC  H10X 6074   4.811   0.248   9.373 -1.5791 -0.2448  1.7922
   70SLPC  H10Y 6075   4.947   0.375   9.348 -1.4664  2.2444 -0.1103
   70SLPC  C311 6076   4.780   0.412   9.235 -0.6529  0.3848  0.0447
   70SLPC  H11X 6077   4.798   0.521   9.238  2.0479  0.0950 -1.8883
   70SLPC  H11Y 6078   4.672   0.393   9.214 -0.4757  0.7728 -1.3543
   70SLPC  C312 6079   4.854   0.365   9.114 -0.0645 -0.0656 -0.0209
   70SLPC  H12X 6080   4.835   0.256   9.102 -1.7068  0.3419 -1.4296
   70SLPC  H12Y 6081   4.965   0.364   9.122  0.0561 -1.5589 -1.3618
   70SLPC  C313 6082   4.813   0.434   8.979 -0.7328  0.3957  0.2795
   70SLPC  H13X 6083   4.845   0.540   8.986  0.8728  0.0055 -0.6606
   70SLPC  H13Y 6084   4.703   0.420   8.972 -0.8310  0.9889  0.5585
   70SLPC  C314 6085   4.888   0.381   8.859  0.1323  0.0176 -0.0835
   70SLPC  H14X 6086   4.866   0.272   8.847  1.2048 -0.2886  0.5720
   70SLPC  H14Y 6087   4.995   0.395   8.884  0.1789  1.1843 -0.9041
   70SLPC  C315 6088   4.855   0.452   8.718 -1.4416  0.0571 -0.6845
   70SLPC  H15X 6089   4.903   0.390   8.639  2.6288 -0.6425  2.0053
   70SLPC  H15Y 6090   4.914   0.545   8.712 -0.2336 -0.5144  1.1205
   70SLPC  C316 6091   4.711   0.485   8.686 -0.1751 -0.3962 -0.4501
   70SLPC  H16X 6092   4.655   0.525   8.773  0.5167  0.3705 -0.3503
   70SLPC  H16Y 6093   4.652   0.398   8.649  1.5007 -1.2470 -1.2889
   70SLPC  C317 6094   4.683   0.592   8.567  0.1504 -0.5211 -1.0765
   70SLPC  H17X 6095   4.573   0.600   8.551 -0.1035  1.8223  1.1278
   70SLPC  H17Y 6096   4.731   0.545   8.479  0.3387 -1.6128 -0.4193
   70SLPC  C318 6097   4.746   0.731   8.599  0.3822 -0.2838  0.6866
   70SLPC  H18X 6098   4.852   0.715   8.626  0.4183 -0.5950  0.3694
   70SLPC  H18Y 6099   4.688   0.792   8.673  1.5146 -0.7628  2.0092
   70SLPC  H18Z 6100   4.743   0.790   8.505 -0.7552 -3.8986 -1.7648
   71SLPC     N 6101   4.398   6.461  10.610 -0.2664 -0.4992 -0.0714
   71SLPC   C13 6102   4.326   6.456  10.743  0.0313 -0.7324 -0.2314
   71SLPC  H13A 6103   4.229   6.502  10.730 -0.5953 -2.3202 -1.7094
   71SLPC  H13B 6104   4.302   6.356  10.777 -1.0125  0.4185  2.7115
   71SLPC  H13C 6105   4.385   6.502  10.820  0.6063 -3.3831  1.0231
   71SLPC   C14 6106   4.512   6.364  10.612  0.6761 -0.6848  0.8618
   71SLPC  H14A 6107   4.558   6.346  10.516  0.5366 -1.2053  0.8906
   71SLPC  H14B 6108   4.584   6.405  10.681  3.2260 -0.3564 -1.7757
   71SLPC  H14C 6109   4.474   6.272  10.653  0.3860 -1.4497 -1.0327
   71SLPC   C15 6110   4.450   6.595  10.585  0.1825 -0.3467  0.4335
   71SLPC  H15A 6111   4.500   6.600  10.490 -1.7232  1.0333 -0.5822
   71SLPC  H15B 6112   4.372   6.670  10.578  0.3397 -0.2697 -0.6562
   71SLPC  H15C 6113   4.526   6.618  10.658  0.0137 -0.6229  0.7017
   71SLPC   C12 6114   4.297   6.419  10.505 -0.7995  0.4628 -0.5873
   71SLPC  H12A 6115   4.269   6.316  10.518 -0.7555  0.5218  0.0229
   71SLPC  H12B 6116   4.352   6.406  10.414 -0.0197  1.3947 -0.2660
   71SLPC   C11 6117   4.178   6.518  10.480 -0.0943  0.2124  0.3088
   71SLPC  H11A 6118   4.125   6.479  10.390 -0.1178  0.8192  0.0601
   71SLPC  H11B 6119   4.209   6.618  10.444  0.9594 -0.9738 -2.4187
   71SLPC     P 6120   3.963   6.439  10.598  0.0835  0.0114  0.3062
   71SLPC   O13 6121   3.982   6.307  10.541 -0.9993  0.2504 -0.0565
   71SLPC   O14 6122   3.911   6.436  10.737  0.5592 -0.7126  0.1646
   71SLPC   O12 6123   4.094   6.521  10.593 -0.3442 -0.5645 -0.7428
   71SLPC   O11 6124   3.869   6.518  10.501 -0.0416 -0.0056 -0.3837
   71SLPC    C1 6125   3.817   6.649  10.514 -0.2870 -0.1303 -0.1279
   71SLPC    HA 6126   3.734   6.649  10.587 -0.2025 -0.3872 -0.0318
   71SLPC    HB 6127   3.899   6.715  10.550 -0.6837  0.4217 -0.2242
   71SLPC    C2 6128   3.757   6.692  10.379  0.4280  0.0124 -0.2564
   71SLPC    HS 6129   3.682   6.615  10.351 -0.3509  0.5757  0.2206
   71SLPC   O21 6130   3.863   6.718  10.292 -0.0912 -0.3615  0.3155
   71SLPC   C21 6131   3.855   6.654  10.179 -0.8023  0.1802  0.4283
   71SLPC   O22 6132   3.772   6.565  10.152 -0.4746 -0.6997  0.1110
   71SLPC   C22 6133   3.959   6.699  10.080 -0.6355  0.3538 -0.5687
   71SLPC   H2R 6134   3.965   6.810  10.070  0.1009  0.3186 -0.6163
   71SLPC   H2S 6135   4.058   6.676  10.126 -1.7134 -1.4617  0.9795
   71SLPC    C3 6136   3.686   6.835  10.401 -0.0088  0.3611  0.0673
   71SLPC    HX 6137   3.753   6.920  10.426 -2.4026  1.3750  3.6691
   71SLPC    HY 6138   3.642   6.825  10.502 -0.4504  1.1402 -0.0489
   71SLPC   O31 6139   3.573   6.866  10.316 -0.1961  0.0045 -0.2639
   71SLPC   C31 6140   3.616   6.918  10.206 -0.0887 -0.0899  0.6545
   71SLPC   O32 6141   3.727   6.936  10.161  0.0761 -0.3415 -0.2024
   71SLPC   C32 6142   3.493   6.937  10.116  0.4220  0.1014  0.1336
   71SLPC   H2X 6143   3.436   7.021  10.160 -1.3051 -1.5710  1.2589
   71SLPC   H2Y 6144   3.433   6.843  10.120  0.7424 -0.1301 -0.3778
   71SLPC   C23 6145   3.960   6.644   9.937 -0.8718  0.0183  0.6152
   71SLPC   H3R 6146   3.938   6.535   9.946 -2.6385  0.3059  0.1803
   71SLPC   H3S 6147   4.062   6.661   9.896 -0.8457  0.4771  0.8631
   71SLPC   C24 6148   3.855   6.712   9.848  0.3679  0.7044  0.2653
   71SLPC   H4R 6149   3.875   6.822   9.846  1.1798  0.6439  2.4453
   71SLPC   H4S 6150   3.760   6.683   9.897  0.9197  0.9080  1.5179
   71SLPC   C25 6151   3.852   6.671   9.699 -0.2137 -0.4583  0.2726
   71SLPC   H5R 6152   3.759   6.707   9.649  0.0550 -2.0903 -1.5081
   71SLPC   H5S 6153   3.850   6.560   9.690  0.0447 -0.4249 -0.2116
   71SLPC   C26 6154   3.980   6.716   9.617 -1.1469  0.8614 -0.3058
   71SLPC   H6R 6155   4.072   6.695   9.674 -1.9675 -0.0934  0.7084
   71SLPC   H6S 6156   3.984   6.827   9.609 -0.2743  0.8830  0.3046
   71SLPC   C27 6157   3.984   6.653   9.476  0.0228  0.4175  0.3400
   71SLPC   H7R 6158   3.966   6.545   9.489  0.0431  0.4649  0.7780
   71SLPC   H7S 6159   4.082   6.675   9.428  0.1068  1.5881  0.9896
   71SLPC   C28 6160   3.878   6.711   9.384 -0.3178  0.1659 -0.2200
   71SLPC   H8R 6161   3.911   6.812   9.351  1.0379 -0.1364  0.1685
   71SLPC   H8S 6162   3.783   6.720   9.440  0.7732  0.2851  1.7138
   71SLPC   C29 6163   3.862   6.630   9.258 -0.5794  0.3913 -0.2944
   71SLPC   H9R 6164   3.795   6.542   9.261 -0.9239  0.5561 -2.0934
   71SLPC  C210 6165   3.943   6.655   9.148 -0.5656 -0.1209  0.2070
   71SLPC  H10R 6166   3.925   6.600   9.055  0.1992  0.4741 -0.3054
   71SLPC  C211 6167   4.060   6.757   9.127  0.9590  0.1999  0.7340
   71SLPC  H11R 6168   4.160   6.710   9.114  0.2154 -0.7370 -2.2985
   71SLPC  H11S 6169   4.067   6.827   9.213  1.0763 -0.7509  1.5220
   71SLPC  C212 6170   4.021   6.839   9.015 -0.2454  0.2486  0.4720
   71SLPC  H12R 6171   3.981   6.935   9.052  1.3045  1.1248 -0.0043
   71SLPC  C213 6172   4.058   6.817   8.886 -0.5574  0.3018 -0.1054
   71SLPC  H13R 6173   4.043   6.900   8.815 -2.0556  1.9591  2.0225
   71SLPC  C214 6174   4.134   6.696   8.834 -0.1368 -0.1589  0.2161
   71SLPC  H14R 6175   4.072   6.604   8.840  0.1542 -0.3163  1.0266
   71SLPC  H14S 6176   4.215   6.666   8.904  0.2045 -3.1592 -1.2677
   71SLPC  C215 6177   4.192   6.709   8.699  0.7485 -0.2350  0.5068
   71SLPC  H15R 6178   4.251   6.617   8.676  0.0667 -1.0167  1.8048
   71SLPC  H15S 6179   4.253   6.802   8.694  0.0680  0.2974  1.6841
   71SLPC  C216 6180   4.088   6.711   8.586  0.2843  0.3869 -0.1527
   71SLPC  H16R 6181   4.019   6.794   8.610  2.0563  0.6450  5.4009
   71SLPC  H16S 6182   4.036   6.614   8.604  0.9872  0.0383  0.0421
   71SLPC  C217 6183   4.158   6.721   8.460 -0.1751 -0.2025  0.5638
   71SLPC  H17R 6184   4.228   6.636   8.444 -2.3143 -1.7550 -1.0986
   71SLPC  H17S 6185   4.225   6.809   8.451 -0.0639 -0.5054 -2.7798
   71SLPC  C218 6186   4.064   6.724   8.346 -0.0154  0.2522 -0.2576
   71SLPC  H18R 6187   3.996   6.812   8.353 -0.1947  0.2235 -1.5074
   71SLPC  H18S 6188   3.992   6.641   8.335  0.8643 -0.4497 -0.7934
   71SLPC  H18T 6189   4.120   6.737   8.251  0.7392  1.9787  0.3708
   71SLPC   C33 6190   3.511   6.972   9.968 -0.1543  0.5204 -0.6751
   71SLPC   H3X 6191   3.581   6.897   9.925 -0.6949 -0.3822 -0.0085
   71SLPC   H3Y 6192   3.571   7.066   9.962 -1.1193  1.4806  2.5856
   71SLPC   C34 6193   3.386   7.014   9.887  0.1159  0.2163  1.0471
   71SLPC   H4X 6194   3.318   7.084   9.941  0.0693  1.6896 -0.8256
   71SLPC   H4Y 6195   3.326   6.920   9.881 -1.0820  1.0438 -0.9039
   71SLPC   C35 6196   3.400   7.073   9.746 -0.3132 -0.0044 -0.7279
   71SLPC   H5X 6197   3.424   6.980   9.689  1.7704 -0.9416  1.5231
   71SLPC   H5Y 6198   3.487   7.139   9.733 -1.0656  1.0896 -0.3483
   71SLPC   C36 6199   3.266   7.130   9.692 -0.7407  0.8594 -0.0212
   71SLPC   H6X 6200   3.242   7.226   9.742 -3.1232 -0.4504  1.5589
   71SLPC   H6Y 6201   3.189   7.057   9.727  0.7095 -0.9555 -0.4552
   71SLPC   C37 6202   3.244   7.145   9.546 -0.1085 -0.0603  0.2841
   71SLPC   H7X 6203   3.146   7.197   9.532  1.1086  2.0643 -0.8553
   71SLPC   H7Y 6204   3.237   7.050   9.490 -3.5426 -0.0418  0.4411
   71SLPC   C38 6205   3.365   7.222   9.481  0.4119 -0.5950 -0.4936
   71SLPC   H8X 6206   3.457   7.161   9.468  1.1726 -0.0559  1.8696
   71SLPC   H8Y 6207   3.392   7.305   9.550  0.6474  1.4147 -2.8823
   71SLPC   C39 6208   3.321   7.273   9.334 -0.0805  0.0233  0.4931
   71SLPC   H9X 6209   3.410   7.331   9.302  0.2295  0.6699  2.3549
   71SLPC   H9Y 6210   3.238   7.347   9.340 -1.0311 -0.7838 -1.8538
   71SLPC  C310 6211   3.305   7.162   9.232 -0.3329 -0.3738 -0.5238
   71SLPC  H10X 6212   3.209   7.106   9.242 -1.4839  1.7345  0.8802
   71SLPC  H10Y 6213   3.383   7.087   9.256 -0.7369 -1.3306 -2.0090
   71SLPC  C311 6214   3.329   7.223   9.093 -0.2043 -0.6318  0.2296
   71SLPC  H11X 6215   3.425   7.278   9.083 -1.0889  0.7462 -1.1924
   71SLPC  H11Y 6216   3.247   7.297   9.079  1.2684  1.4000  1.6263
   71SLPC  C312 6217   3.309   7.133   8.974  0.1825 -0.0019 -0.4361
   71SLPC  H12X 6218   3.207   7.087   8.975  1.1241 -2.2331 -0.5263
   71SLPC  H12Y 6219   3.394   7.062   8.963  1.9721  1.6832  1.6695
   71SLPC  C313 6220   3.323   7.218   8.845  0.2964  0.3859 -0.9284
   71SLPC  H13X 6221   3.433   7.232   8.834  0.4655  0.5068  0.6816
   71SLPC  H13Y 6222   3.268   7.312   8.864  0.7319  0.9406 -2.3025
   71SLPC  C314 6223   3.265   7.144   8.726 -0.1058 -0.0163  0.4469
   71SLPC  H14X 6224   3.155   7.155   8.715 -0.1328 -1.0634 -0.5852
   71SLPC  H14Y 6225   3.294   7.037   8.738  0.3369 -0.0433 -0.6569
   71SLPC  C315 6226   3.332   7.196   8.602 -1.3825  0.8471  0.3553
   71SLPC  H15X 6227   3.440   7.219   8.611 -0.9239 -0.4047 -1.3981
   71SLPC  H15Y 6228   3.284   7.291   8.571 -3.0884 -0.3150 -0.7847
   71SLPC  C316 6229   3.316   7.108   8.472  0.0755  0.8625 -0.6281
   71SLPC  H16X 6230   3.225   7.140   8.418  1.0151  0.7065 -2.3721
   71SLPC  H16Y 6231   3.309   7.006   8.515  0.2345  2.0139  2.4089
   71SLPC  C317 6232   3.431   7.125   8.374  0.4007  0.4039 -0.5551
   71SLPC  H17X 6233   3.517   7.097   8.439  1.5491  0.8729 -1.8089
   71SLPC  H17Y 6234   3.429   7.231   8.342 -1.4205  0.2161 -1.1685
   71SLPC  C318 6235   3.442   7.019   8.265  0.4090  1.0260 -0.9901
   71SLPC  H18X 6236   3.436   6.922   8.319  0.9719  1.6329  0.2035
   71SLPC  H18Y 6237   3.537   7.021   8.207 -0.0637  1.6042 -1.7591
   71SLPC  H18Z 6238   3.360   7.027   8.191 -0.6836 -0.7508 -0.0413
   72SLPC     N 6239   4.492   4.695  10.988 -0.4257  0.3256 -0.5683
   72SLPC   C13 6240   4.432   4.579  11.068  0.1638  0.0525  0.5274
   72SLPC  H13A 6241   4.329   4.596  11.092  0.6178  1.1355  1.8268
   72SLPC  H13B 6242   4.443   4.485  11.017 -1.1692  0.7839 -1.1948
   72SLPC  H13C 6243   4.484   4.558  11.161 -0.3453 -0.6150  0.6716
   72SLPC   C14 6244   4.642   4.686  11.013 -0.4234 -0.1619  0.4350
   72SLPC  H14A 6245   4.656   4.660  11.117  3.0773 -2.5265 -0.4694
   72SLPC  H14B 6246   4.692   4.609  10.957  2.1268  0.1796  2.1194
   72SLPC  H14C 6247   4.691   4.777  10.983 -2.3140  0.6725 -0.3315
   72SLPC   C15 6248   4.445   4.822  11.048 -0.2753 -0.3695 -0.1584
   72SLPC  H15A 6249   4.484   4.913  11.005 -1.0009  1.5591  2.8966
   72SLPC  H15B 6250   4.337   4.824  11.048 -0.2998  2.3385 -1.3552
   72SLPC  H15C 6251   4.474   4.840  11.151  0.3717  1.9037 -0.6775
   72SLPC   C12 6252   4.452   4.693  10.839 -0.0707 -0.2457  0.8001
   72SLPC  H12A 6253   4.470   4.601  10.786 -4.2728 -0.5796 -0.4322
   72SLPC  H12B 6254   4.510   4.766  10.785 -0.0658  0.3454  1.5862
   72SLPC   C11 6255   4.302   4.730  10.800 -0.1720  0.2831 -0.1843
   72SLPC  H11A 6256   4.238   4.670  10.866 -1.0892 -0.1305 -1.4098
   72SLPC  H11B 6257   4.293   4.696  10.694  0.0326  3.6211 -1.3999
   72SLPC     P 6258   4.343   4.970  10.700  0.0667  0.3869  0.0861
   72SLPC   O13 6259   4.296   5.105  10.734  0.5012 -0.4090  0.1528
   72SLPC   O14 6260   4.491   4.944  10.698  0.0751 -0.1025  0.0028
   72SLPC   O12 6261   4.269   4.872  10.800 -0.5438  0.1116 -0.2924
   72SLPC   O11 6262   4.301   4.924  10.552 -0.4206  0.0669 -0.5488
   72SLPC    C1 6263   4.160   4.906  10.543  0.1008  0.3795  0.1932
   72SLPC    HA 6264   4.128   4.808  10.585 -0.7934 -0.7396 -2.7628
   72SLPC    HB 6265   4.103   4.985  10.597  2.2426  1.6204  0.7274
   72SLPC    C2 6266   4.120   4.922  10.400  0.7647  0.8023  0.2746
   72SLPC    HS 6267   4.009   4.920  10.397  0.7497 -1.2715  0.5777
   72SLPC   O21 6268   4.176   4.823  10.314 -0.2333 -0.2360  0.7476
   72SLPC   C21 6269   4.130   4.702  10.339  0.5490 -0.5594 -0.1731
   72SLPC   O22 6270   4.017   4.684  10.386 -0.2136  0.6106  0.1133
   72SLPC   C22 6271   4.216   4.582  10.291  1.1093 -0.7861  0.3266
   72SLPC   H2R 6272   4.303   4.618  10.231  0.2559  0.6252 -0.1111
   72SLPC   H2S 6273   4.240   4.523  10.382  1.1024  0.0080  0.8627
   72SLPC    C3 6274   4.171   5.058  10.340  0.2251  0.0691 -0.2038
   72SLPC    HX 6275   4.279   5.070  10.364 -0.4470  0.9584  2.7584
   72SLPC    HY 6276   4.121   5.136  10.402  0.2688 -0.2720  0.2641
   72SLPC   O31 6277   4.133   5.074  10.201 -0.7470  0.1106  0.1507
   72SLPC   C31 6278   4.227   5.027  10.118  0.5665 -0.7310 -0.1142
   72SLPC   O32 6279   4.330   4.971  10.139 -0.6378 -0.5478 -0.1975
   72SLPC   C32 6280   4.166   5.052   9.970  0.3679  0.3258  0.1217
   72SLPC   H2X 6281   4.177   5.161   9.952  2.1095  0.0516 -0.6394
   72SLPC   H2Y 6282   4.060   5.024   9.986  0.2030  0.8811  0.0421
   72SLPC   C23 6283   4.139   4.479  10.199  0.6128  0.2581  0.1266
   72SLPC   H3R 6284   4.036   4.462  10.237  1.0792 -1.2554  0.7678
   72SLPC   H3S 6285   4.185   4.379  10.209 -0.2163 -0.1723 -0.2942
   72SLPC   C24 6286   4.117   4.521  10.053 -0.7149 -0.6513  0.4714
   72SLPC   H4R 6287   4.105   4.426   9.997 -1.4166 -1.1411  1.4259
   72SLPC   H4S 6288   4.211   4.562  10.011  0.1619 -1.9785  1.0921
   72SLPC   C25 6289   3.999   4.605  10.017 -0.2219 -0.6604  0.0090
   72SLPC   H5R 6290   4.018   4.711  10.045 -0.5968 -0.1189 -1.6993
   72SLPC   H5S 6291   3.922   4.571  10.089  0.1692 -0.0814  0.7218
   72SLPC   C26 6292   3.948   4.580   9.877  0.1124 -0.4300  0.5450
   72SLPC   H6R 6293   3.861   4.646   9.859  0.4318 -0.2348 -0.2954
   72SLPC   H6S 6294   3.912   4.476   9.870 -2.9433  0.5257  0.7836
   72SLPC   C27 6295   4.050   4.612   9.770 -0.0532  0.4234 -0.5131
   72SLPC   H7R 6296   4.131   4.540   9.792  0.3702  1.0019 -0.1474
   72SLPC   H7S 6297   4.101   4.709   9.791  3.7552 -1.1953 -1.4287
   72SLPC   C28 6298   4.012   4.618   9.626 -0.4364  0.2645 -0.0136
   72SLPC   H8R 6299   4.093   4.660   9.563  1.5012 -1.9835  0.8438
   72SLPC   H8S 6300   3.948   4.709   9.619 -1.0555 -0.1689 -0.1137
   72SLPC   C29 6301   3.966   4.498   9.542  1.1676 -0.5311 -0.7028
   72SLPC   H9R 6302   3.858   4.497   9.520  1.0283  0.8283 -0.1470
   72SLPC  C210 6303   4.040   4.399   9.489  0.2836 -0.0574  0.2752
   72SLPC  H10R 6304   3.992   4.329   9.419 -0.4936 -0.2579  0.9932
   72SLPC  C211 6305   4.189   4.380   9.492  0.5733 -0.3301 -0.6733
   72SLPC  H11R 6306   4.209   4.279   9.450 -0.7616 -1.2754  0.8541
   72SLPC  H11S 6307   4.229   4.373   9.596  1.1622  2.1831 -0.6833
   72SLPC  C212 6308   4.274   4.480   9.419  0.2829  0.2953 -1.0020
   72SLPC  H12R 6309   4.336   4.546   9.480  1.4660  0.0260 -1.8712
   72SLPC  C213 6310   4.299   4.481   9.290 -0.2289  0.2883  0.6322
   72SLPC  H13R 6311   4.370   4.557   9.256  1.6166 -3.1832 -4.4656
   72SLPC  C214 6312   4.241   4.388   9.183  0.3902 -0.7072  0.2016
   72SLPC  H14R 6313   4.202   4.290   9.215  0.0160 -0.5838  0.1300
   72SLPC  H14S 6314   4.318   4.370   9.105  0.4749 -1.0955  0.3770
   72SLPC  C215 6315   4.125   4.470   9.099 -0.4389  0.1967 -0.0219
   72SLPC  H15R 6316   4.173   4.561   9.058  0.3140 -0.1878 -0.0248
   72SLPC  H15S 6317   4.041   4.503   9.163  0.2271 -0.5924  1.2904
   72SLPC  C216 6318   4.077   4.392   8.986  1.0306  0.4183  0.6702
   72SLPC  H16R 6319   4.004   4.316   9.020  0.9470  0.4181  0.4887
   72SLPC  H16S 6320   4.163   4.334   8.945  1.7883  1.9279  0.0459
   72SLPC  C217 6321   4.027   4.473   8.859  0.9525  0.9333  0.3103
   72SLPC  H17R 6322   4.113   4.538   8.833  0.4510  1.7534  0.6591
   72SLPC  H17S 6323   3.932   4.527   8.881  0.7520  1.0592 -0.8010
   72SLPC  C218 6324   4.010   4.388   8.729  0.1765  0.2497  0.3547
   72SLPC  H18R 6325   4.113   4.366   8.693  0.6922 -0.9149  2.3476
   72SLPC  H18S 6326   3.954   4.449   8.655 -0.0416 -0.8703 -0.4279
   72SLPC  H18T 6327   3.956   4.294   8.754 -0.2325  0.2838 -0.3722
   72SLPC   C33 6328   4.254   4.970   9.866 -0.2905  0.0944  0.7425
   72SLPC   H3X 6329   4.246   4.862   9.893  0.6845  0.3895  2.3473
   72SLPC   H3Y 6330   4.359   4.999   9.886 -0.3357  2.4147 -1.8165
   72SLPC   C34 6331   4.223   5.001   9.719 -0.4086 -0.7853  0.1825
   72SLPC   H4X 6332   4.240   5.109   9.701  2.1939 -1.0056  0.8872
   72SLPC   H4Y 6333   4.114   4.984   9.704 -0.5005  1.1371 -1.8265
   72SLPC   C35 6334   4.307   4.919   9.621  0.0296  0.0880 -0.8624
   72SLPC   H5X 6335   4.273   4.813   9.630  0.5286 -0.2734 -2.6678
   72SLPC   H5Y 6336   4.418   4.925   9.630 -0.1737  1.0258  2.0131
   72SLPC   C36 6337   4.276   4.958   9.480  0.6068  0.0270  0.1891
   72SLPC   H6X 6338   4.274   5.067   9.458 -0.0366  0.1342  0.7283
   72SLPC   H6Y 6339   4.167   4.946   9.467  0.2751  3.0721 -0.7602
   72SLPC   C37 6340   4.343   4.870   9.379 -0.0577 -0.4054  0.2291
   72SLPC   H7X 6341   4.340   4.761   9.398 -0.3784 -0.0803  2.3607
   72SLPC   H7Y 6342   4.450   4.900   9.392  0.3065 -0.9917 -1.2425
   72SLPC   C38 6343   4.317   4.887   9.228 -0.2692 -0.0668 -0.3189
   72SLPC   H8X 6344   4.321   4.997   9.216  2.8540 -0.0855 -0.3070
   72SLPC   H8Y 6345   4.219   4.840   9.204 -0.2307 -0.7778  0.8398
   72SLPC   C39 6346   4.429   4.840   9.138 -1.0738 -0.1767 -0.2583
   72SLPC   H9X 6347   4.469   4.740   9.166  2.4049  0.4854 -2.3170
   72SLPC   H9Y 6348   4.511   4.912   9.154 -2.0065  0.8870 -0.1476
   72SLPC  C310 6349   4.386   4.832   8.995  0.0857  0.5982 -0.0624
   72SLPC  H10X 6350   4.390   4.931   8.945  0.2535  1.0458  0.8123
   72SLPC  H10Y 6351   4.288   4.780   8.994 -0.3351  1.2604  1.6574
   72SLPC  C311 6352   4.476   4.748   8.907 -0.0158  0.0274  0.2688
   72SLPC  H11X 6353   4.454   4.759   8.799 -3.3672  0.0575  0.8696
   72SLPC  H11Y 6354   4.455   4.641   8.928  1.0793 -0.0421  1.1339
   72SLPC  C312 6355   4.626   4.771   8.937  0.4038  0.2434  0.2104
   72SLPC  H12X 6356   4.695   4.700   8.888 -1.4185 -0.1578 -1.9344
   72SLPC  H12Y 6357   4.643   4.754   9.045 -0.0354  1.1268  0.4260
   72SLPC  C313 6358   4.675   4.912   8.900  0.5846 -0.7480  0.9192
   72SLPC  H13X 6359   4.783   4.918   8.926  0.7048 -0.5611  0.3900
   72SLPC  H13Y 6360   4.613   4.982   8.959  0.9159 -1.9738  2.7958
   72SLPC  C314 6361   4.665   4.947   8.746 -0.2571 -0.0430  0.1375
   72SLPC  H14X 6362   4.561   4.925   8.713  0.1823 -1.2647 -0.4862
   72SLPC  H14Y 6363   4.734   4.875   8.697 -0.5771 -0.0432 -0.3180
   72SLPC  C315 6364   4.709   5.085   8.707 -0.7861  0.5423  0.2163
   72SLPC  H15X 6365   4.817   5.096   8.684 -1.0956 -0.9012 -2.2056
   72SLPC  H15Y 6366   4.694   5.164   8.785  0.1461  2.3756 -1.3735
   72SLPC  C316 6367   4.655   5.135   8.573  0.2774  0.2229  0.3720
   72SLPC  H16X 6368   4.547   5.156   8.583 -0.2317 -0.9403 -2.1156
   72SLPC  H16Y 6369   4.666   5.054   8.498  2.7737 -0.1043  0.9788
   72SLPC  C317 6370   4.732   5.252   8.512 -0.1067  0.2564 -0.1679
   72SLPC  H17X 6371   4.838   5.218   8.510 -0.4110 -0.7343 -2.3354
   72SLPC  H17Y 6372   4.731   5.334   8.588  0.8669  0.5360 -0.4453
   72SLPC  C318 6373   4.687   5.289   8.372  0.4275 -0.1517  0.2257
   72SLPC  H18X 6374   4.672   5.192   8.320 -0.2075  0.4016 -0.6534
   72SLPC  H18Y 6375   4.756   5.356   8.315 -1.8265  2.0891 -0.0200
   72SLPC  H18Z 6376   4.584   5.330   8.362 -0.4828 -2.2450  0.5189
   73SLPC     N 6377   4.475   2.004  11.027 -0.4358 -0.4331 -0.3639
   73SLPC   C13 6378   4.393   1.883  10.986  0.2532  0.0357  0.4872
   73SLPC  H13A 6379   4.289   1.899  10.961  1.1226  0.6659 -3.2516
   73SLPC  H13B 6380   4.435   1.833  10.900  1.1981 -0.4978  1.2429
   73SLPC  H13C 6381   4.390   1.803  11.058 -2.1335 -0.9840 -0.6340
   73SLPC   C14 6382   4.617   1.969  11.047  0.3795  0.5804 -0.3325
   73SLPC  H14A 6383   4.632   1.899  11.127 -1.1268  0.4234 -0.1583
   73SLPC  H14B 6384   4.655   1.920  10.959 -2.8914 -1.9171 -0.5471
   73SLPC  H14C 6385   4.668   2.064  11.060  0.1322  1.0148 -2.2105
   73SLPC   C15 6386   4.418   2.050  11.158 -0.5067  0.0271 -0.2693
   73SLPC  H15A 6387   4.476   2.138  11.183  1.4089 -1.1866 -0.2702
   73SLPC  H15B 6388   4.310   2.057  11.155 -0.8281 -2.5278  1.9541
   73SLPC  H15C 6389   4.436   1.980  11.238 -1.1879  0.8735  0.6579
   73SLPC   C12 6390   4.453   2.100  10.915 -0.7770 -0.5969 -0.2805
   73SLPC  H12A 6391   4.353   2.100  10.874 -0.5846 -0.2733 -0.7535
   73SLPC  H12B 6392   4.516   2.056  10.839 -0.0109  0.8374 -0.5100
   73SLPC   C11 6393   4.498   2.245  10.934 -0.2776 -0.1175 -0.2514
   73SLPC  H11A 6394   4.450   2.286  11.025  1.8478  0.9820  0.4388
   73SLPC  H11B 6395   4.459   2.303  10.847 -0.4817 -1.0423 -0.7898
   73SLPC     P 6396   4.733   2.384  10.942  0.5869 -0.1788  0.3348
   73SLPC   O13 6397   4.670   2.501  11.011  0.5478 -0.3754 -0.3399
   73SLPC   O14 6398   4.871   2.341  10.965  0.0674 -0.1487  0.1337
   73SLPC   O12 6399   4.638   2.256  10.950 -0.0837 -0.1548  0.0367
   73SLPC   O11 6400   4.727   2.421  10.789  0.3238 -0.3469 -0.1276
   73SLPC    C1 6401   4.715   2.314  10.690 -0.2698  0.3445 -0.3561
   73SLPC    HA 6402   4.809   2.254  10.691 -0.9109 -0.7627  2.3369
   73SLPC    HB 6403   4.645   2.234  10.724 -1.2634  0.0440 -2.8746
   73SLPC    C2 6404   4.673   2.364  10.549 -0.1211  1.0444 -0.0487
   73SLPC    HS 6405   4.648   2.271  10.493  0.1919  0.7616  0.2761
   73SLPC   O21 6406   4.785   2.416  10.481  0.2857 -0.1650  0.0866
   73SLPC   C21 6407   4.877   2.326  10.440  0.4588 -0.4510 -0.3244
   73SLPC   O22 6408   4.867   2.205  10.453 -0.5263 -0.1156 -0.5459
   73SLPC   C22 6409   4.986   2.401  10.374  0.3900 -0.4315 -0.2151
   73SLPC   H2R 6410   4.958   2.508  10.371 -1.9248 -0.8985  1.5249
   73SLPC   H2S 6411   5.070   2.388  10.445  1.1105 -2.6550 -1.3733
   73SLPC    C3 6412   4.555   2.464  10.548 -0.4101  0.0961  0.1850
   73SLPC    HX 6413   4.599   2.563  10.573  0.0484 -0.1837  0.5205
   73SLPC    HY 6414   4.489   2.434  10.633 -0.5681 -0.8675 -0.2632
   73SLPC   O31 6415   4.499   2.473  10.420 -0.9453  0.0228  0.0477
   73SLPC   C31 6416   4.390   2.405  10.405 -0.9966 -0.2857  0.6086
   73SLPC   O32 6417   4.349   2.321  10.485 -0.0828 -1.1229  0.2475
   73SLPC   C32 6418   4.329   2.422  10.275 -0.4807  0.4628 -0.0862
   73SLPC   H2X 6419   4.368   2.518  10.235  1.2078 -0.1583 -0.0116
   73SLPC   H2Y 6420   4.219   2.433  10.282 -0.5507 -0.6665  0.7903
   73SLPC   C23 6421   5.025   2.329  10.243 -0.3028  1.1211  0.5784
   73SLPC   H3R 6422   5.041   2.220  10.245 -1.2973  0.9675  0.9370
   73SLPC   H3S 6423   5.125   2.362  10.207 -0.8985  0.0145 -2.4288
   73SLPC   C24 6424   4.927   2.353  10.131  0.6952 -0.0351 -0.3655
   73SLPC   H4R 6425   4.908   2.462  10.125  2.9892  0.4156 -0.4217
   73SLPC   H4S 6426   4.833   2.309  10.172  0.1887  0.6396 -0.7843
   73SLPC   C25 6427   4.967   2.314   9.989  0.0824  0.3740 -0.0396
   73SLPC   H5R 6428   5.069   2.358   9.976  0.0987  0.3668  0.0619
   73SLPC   H5S 6429   4.904   2.354   9.907  1.4229 -2.6802 -2.7583
   73SLPC   C26 6430   4.987   2.155   9.970  0.2414 -0.9358 -0.6256
   73SLPC   H6R 6431   4.891   2.100   9.970  0.6593 -1.7932 -3.0837
   73SLPC   H6S 6432   5.050   2.125  10.056 -0.1669  0.9374  0.3869
   73SLPC   C27 6433   5.063   2.100   9.842 -0.7569 -0.1658  0.2308
   73SLPC   H7R 6434   5.055   1.990   9.830 -0.8940 -0.0166 -1.1241
   73SLPC   H7S 6435   5.171   2.119   9.861  0.2480  1.0700 -5.2650
   73SLPC   C28 6436   5.030   2.162   9.706 -0.1830 -0.2217 -0.2045
   73SLPC   H8R 6437   5.122   2.174   9.646 -0.9079  1.2969 -1.0604
   73SLPC   H8S 6438   4.994   2.265   9.724  0.0243 -0.3354  0.9507
   73SLPC   C29 6439   4.911   2.098   9.634  0.4852 -0.4776  0.0242
   73SLPC   H9R 6440   4.826   2.070   9.697 -0.9859 -1.0479 -2.0997
   73SLPC  C210 6441   4.908   2.092   9.499 -0.2058 -0.5706  1.0704
   73SLPC  H10R 6442   4.819   2.050   9.448  1.5670 -1.8586 -1.1676
   73SLPC  C211 6443   5.013   2.131   9.393  0.2103  0.1205  0.3044
   73SLPC  H11R 6444   5.012   2.066   9.302  1.3416 -0.4259  0.6736
   73SLPC  H11S 6445   5.111   2.098   9.433 -0.1186 -0.0948  0.9482
   73SLPC  C212 6446   5.009   2.274   9.346  0.2363 -0.0407 -0.7366
   73SLPC  H12R 6447   5.029   2.338   9.433 -0.8871 -0.4881 -0.1286
   73SLPC  C213 6448   4.984   2.326   9.224 -0.1592  0.3903 -0.3238
   73SLPC  H13R 6449   4.987   2.436   9.216 -0.4580  0.3103 -1.8438
   73SLPC  C214 6450   4.956   2.247   9.095  0.0000  0.5649  0.4510
   73SLPC  H14R 6451   4.850   2.271   9.074 -0.1743 -1.7197 -1.6302
   73SLPC  H14S 6452   4.974   2.137   9.098  3.3081  0.9748 -0.5824
   73SLPC  C215 6453   5.037   2.285   8.966  0.5688 -1.2294  0.0829
   73SLPC  H15R 6454   5.064   2.392   8.976 -1.2180 -0.6857 -0.4537
   73SLPC  H15S 6455   4.961   2.257   8.889 -2.3983 -1.0152  2.7103
   73SLPC  C216 6456   5.168   2.201   8.966 -1.0129 -0.2244  0.3654
   73SLPC  H16R 6457   5.136   2.095   8.959  0.2758 -0.6537  0.6139
   73SLPC  H16S 6458   5.224   2.212   9.061 -0.9904  2.8948  0.0919
   73SLPC  C217 6459   5.262   2.233   8.846 -0.4496  0.0173  0.7080
   73SLPC  H17R 6460   5.190   2.252   8.763 -1.2266 -2.0620  0.8574
   73SLPC  H17S 6461   5.325   2.148   8.812 -0.1257  0.5255  0.0144
   73SLPC  C218 6462   5.367   2.343   8.872  0.1326  0.2892 -1.4366
   73SLPC  H18R 6463   5.408   2.340   8.975  0.4681 -1.6693 -1.5985
   73SLPC  H18S 6464   5.318   2.441   8.856 -1.9461 -0.8392 -2.2723
   73SLPC  H18T 6465   5.454   2.338   8.803  2.1487  1.1499  0.8899
   73SLPC   C33 6466   4.370   2.306  10.179  0.0504 -0.1154 -0.7741
   73SLPC   H3X 6467   4.320   2.317  10.081 -1.3192 -1.3246 -0.2562
   73SLPC   H3Y 6468   4.344   2.203  10.212 -1.1661  0.0945 -1.0344
   73SLPC   C34 6469   4.524   2.300  10.163 -0.4936 -0.0404 -0.3784
   73SLPC   H4X 6470   4.579   2.276  10.256  0.2932 -0.2130 -0.8825
   73SLPC   H4Y 6471   4.571   2.395  10.129  3.0525 -0.6435  2.2609
   73SLPC   C35 6472   4.566   2.198  10.049  0.0708  0.3172 -0.2164
   73SLPC   H5X 6473   4.500   2.110  10.066 -0.9761  1.1654  0.2812
   73SLPC   H5Y 6474   4.670   2.164  10.067 -0.5472 -0.7687  1.6253
   73SLPC   C36 6475   4.548   2.255   9.909  0.5504  0.0019 -0.2726
   73SLPC   H6X 6476   4.616   2.340   9.889  0.1290 -0.0385 -2.0996
   73SLPC   H6Y 6477   4.451   2.309   9.901 -0.4390 -1.8047 -1.1176
   73SLPC   C37 6478   4.547   2.141   9.802 -0.2230  0.2938 -0.7509
   73SLPC   H7X 6479   4.464   2.069   9.823 -0.2341  0.1150 -1.3922
   73SLPC   H7Y 6480   4.638   2.077   9.802  1.1779  2.1188 -3.0574
   73SLPC   C38 6481   4.556   2.191   9.658  0.2683 -0.3323  0.4297
   73SLPC   H8X 6482   4.658   2.228   9.637  1.1606 -2.7381  0.2471
   73SLPC   H8Y 6483   4.478   2.267   9.637 -0.5556 -1.3197 -0.1740
   73SLPC   C39 6484   4.533   2.078   9.550 -0.2499  0.1015 -0.1544
   73SLPC   H9X 6485   4.430   2.039   9.565  0.7013 -2.7658 -0.5690
   73SLPC   H9Y 6486   4.611   2.001   9.568  0.3573  0.4643 -1.1612
   73SLPC  C310 6487   4.538   2.124   9.406 -0.2859 -0.3242  0.8483
   73SLPC  H10X 6488   4.625   2.191   9.392  0.5228 -1.3076  1.0934
   73SLPC  H10Y 6489   4.446   2.170   9.363  0.1893 -0.4211 -0.2978
   73SLPC  C311 6490   4.561   2.005   9.309  0.1516  0.7042 -0.0915
   73SLPC  H11X 6491   4.484   1.928   9.328  0.2829  0.5132 -0.3354
   73SLPC  H11Y 6492   4.659   1.960   9.336  0.2806 -0.4267 -2.2225
   73SLPC  C312 6493   4.570   2.041   9.168 -0.1999 -0.6043 -0.0370
   73SLPC  H12X 6494   4.659   2.104   9.147  0.5844 -1.8100 -0.4296
   73SLPC  H12Y 6495   4.487   2.106   9.135 -0.1459  0.0356  1.0259
   73SLPC  C313 6496   4.590   1.919   9.072 -0.0380  0.0236  0.3107
   73SLPC  H13X 6497   4.504   1.851   9.086 -0.3126  0.3218  0.1022
   73SLPC  H13Y 6498   4.684   1.870   9.106 -0.4333 -1.4012 -0.5643
   73SLPC  C314 6499   4.602   1.962   8.924 -0.2943 -0.9371 -0.9206
   73SLPC  H14X 6500   4.691   2.029   8.919 -1.1105  0.1856 -0.7515
   73SLPC  H14Y 6501   4.518   2.032   8.906 -2.7716 -3.1648  1.0748
   73SLPC  C315 6502   4.589   1.855   8.818 -0.2152  0.5765 -0.2102
   73SLPC  H15X 6503   4.523   1.778   8.864 -1.3071  0.4719 -1.8691
   73SLPC  H15Y 6504   4.683   1.808   8.783 -0.3047  0.0891  0.1937
   73SLPC  C316 6505   4.505   1.903   8.697  0.7332  0.3583 -0.6341
   73SLPC  H16X 6506   4.406   1.944   8.727 -0.7816 -3.4840  0.1822
   73SLPC  H16Y 6507   4.498   1.822   8.621 -0.3118  1.8792 -2.2573
   73SLPC  C317 6508   4.580   2.015   8.621 -0.3459  0.2609  0.2207
   73SLPC  H17X 6509   4.656   1.970   8.553 -0.1606 -1.4691  1.5116
   73SLPC  H17Y 6510   4.638   2.077   8.693 -2.2427  1.8736  0.4317
   73SLPC  C318 6511   4.505   2.117   8.535  0.4638  0.3991  0.0831
   73SLPC  H18X 6512   4.447   2.188   8.597  0.2887  1.1069 -0.8650
   73SLPC  H18Y 6513   4.460   2.081   8.440 -0.0128 -2.3038  1.2247
   73SLPC  H18Z 6514   4.569   2.196   8.492 -0.6535  0.8244 -0.8533
   74SLPC     N 6515   4.715   5.843  10.856  0.0456  0.1770  0.5685
   74SLPC   C13 6516   4.836   5.917  10.913 -0.3016 -0.1961 -0.4168
   74SLPC  H13A 6517   4.884   5.974  10.835  0.9716  0.5024  0.8445
   74SLPC  H13B 6518   4.805   5.982  10.994 -1.1966 -1.4906  0.3121
   74SLPC  H13C 6519   4.916   5.850  10.942 -0.2619  0.4988  1.1974
   74SLPC   C14 6520   4.621   5.956  10.817 -0.2312 -0.1163 -0.3565
   74SLPC  H14A 6521   4.600   6.028  10.895 -1.6341  0.5801 -1.3169
   74SLPC  H14B 6522   4.659   6.016  10.735  1.1039  0.0817  0.3727
   74SLPC  H14C 6523   4.521   5.920  10.800 -0.2010 -0.0703 -0.6293
   74SLPC   C15 6524   4.648   5.775  10.974  0.8516  0.0192  0.0813
   74SLPC  H15A 6525   4.715   5.693  10.995  0.9085 -0.0804 -0.4840
   74SLPC  H15B 6526   4.627   5.836  11.061 -0.4642 -1.0134  0.5410
   74SLPC  H15C 6527   4.555   5.734  10.938  1.8504 -0.1924 -2.4249
   74SLPC   C12 6528   4.738   5.755  10.740 -0.9762 -1.1594 -0.4830
   74SLPC  H12A 6529   4.787   5.663  10.769  1.0940  0.1469  0.4325
   74SLPC  H12B 6530   4.814   5.793  10.674 -0.1994 -0.2725  0.8677
   74SLPC   C11 6531   4.618   5.717  10.657 -0.7745 -0.4440  0.5782
   74SLPC  H11A 6532   4.653   5.666  10.564 -0.6157  0.7149 -0.0147
   74SLPC  H11B 6533   4.567   5.809  10.620 -0.4896 -0.4381  0.1921
   74SLPC     P 6534   4.516   5.495  10.746  0.0908  0.5257  0.1877
   74SLPC   O13 6535   4.630   5.459  10.833  0.2955 -0.4840  0.1714
   74SLPC   O14 6536   4.385   5.448  10.791 -0.3786 -0.1565  0.1667
   74SLPC   O12 6537   4.515   5.650  10.730 -0.1830  0.1245  0.1702
   74SLPC   O11 6538   4.543   5.446  10.595 -0.4138  0.6142 -0.5087
   74SLPC    C1 6539   4.667   5.386  10.568 -0.1869  0.1785  0.0862
   74SLPC    HA 6540   4.751   5.452  10.597  0.1746  1.0208 -2.5774
   74SLPC    HB 6541   4.678   5.295  10.630 -1.1295 -0.4958 -0.6870
   74SLPC    C2 6542   4.686   5.343  10.419 -0.4284 -0.4149  0.3295
   74SLPC    HS 6543   4.766   5.266  10.420 -2.7715 -2.9939  0.2565
   74SLPC   O21 6544   4.703   5.467  10.341  0.0595 -0.2931  0.6804
   74SLPC   C21 6545   4.820   5.493  10.303 -0.2547 -0.0429  0.0950
   74SLPC   O22 6546   4.916   5.420  10.304 -0.7649 -0.2758 -0.0282
   74SLPC   C22 6547   4.818   5.629  10.239 -0.6132 -0.6356  0.2213
   74SLPC   H2R 6548   4.711   5.658  10.233 -0.6522 -0.8456 -0.1155
   74SLPC   H2S 6549   4.874   5.690  10.313  0.4309 -0.9055 -0.3286
   74SLPC    C3 6550   4.577   5.264  10.348 -0.5917  0.0767  0.1408
   74SLPC    HX 6551   4.489   5.327  10.371  0.9285  2.0278  0.8516
   74SLPC    HY 6552   4.563   5.162  10.391  2.7670 -1.8489 -2.8287
   74SLPC   O31 6553   4.602   5.249  10.208 -0.0001 -0.3537  0.2124
   74SLPC   C31 6554   4.558   5.335  10.123 -0.1662  0.2763  0.1456
   74SLPC   O32 6555   4.488   5.429  10.153 -0.3489 -0.8173 -0.3396
   74SLPC   C32 6556   4.585   5.285   9.981 -0.1353 -0.6751  0.4981
   74SLPC   H2X 6557   4.568   5.175   9.981 -0.6495 -0.6200  2.3102
   74SLPC   H2Y 6558   4.693   5.299   9.960  0.1534 -2.0930  0.9248
   74SLPC   C23 6559   4.900   5.636  10.108  0.6617 -0.0773  0.0303
   74SLPC   H3R 6560   5.004   5.598  10.119  0.9499  1.1946  2.2898
   74SLPC   H3S 6561   4.924   5.738  10.070 -1.3179 -0.1122 -1.4497
   74SLPC   C24 6562   4.844   5.572   9.976 -0.3991 -0.4214 -0.6652
   74SLPC   H4R 6563   4.739   5.601   9.955  0.2636  2.6779 -0.2075
   74SLPC   H4S 6564   4.841   5.462   9.991 -1.7780 -0.2516  0.4873
   74SLPC   C25 6565   4.936   5.616   9.857  0.6097  0.5900  0.1648
   74SLPC   H5R 6566   5.042   5.588   9.876 -0.1171 -1.9133  0.8655
   74SLPC   H5S 6567   4.930   5.726   9.848  2.7825  0.8779  1.6388
   74SLPC   C26 6568   4.881   5.539   9.731 -0.2749  0.0215  0.1548
   74SLPC   H6R 6569   4.778   5.578   9.713 -0.1446 -0.1786 -1.1753
   74SLPC   H6S 6570   4.874   5.432   9.761  0.1372  0.4471  1.8603
   74SLPC   C27 6571   4.975   5.544   9.608  0.5935 -0.4909 -0.3026
   74SLPC   H7R 6572   5.073   5.522   9.654  0.7735 -1.6304 -1.1774
   74SLPC   H7S 6573   4.963   5.643   9.558  1.0258 -0.3207 -0.0777
   74SLPC   C28 6574   4.937   5.425   9.513 -0.0407 -0.2721  0.3059
   74SLPC   H8R 6575   4.831   5.420   9.480 -0.2515 -0.2172  0.9670
   74SLPC   H8S 6576   4.961   5.331   9.567  1.2252  0.7889  1.6892
   74SLPC   C29 6577   5.030   5.423   9.395 -0.5572  0.3140 -0.8282
   74SLPC   H9R 6578   5.133   5.406   9.431 -0.7183  0.0699 -0.4759
   74SLPC  C210 6579   4.999   5.443   9.269  0.4752  0.1779 -0.0554
   74SLPC  H10R 6580   5.073   5.448   9.188  0.3288  1.2700 -0.1395
   74SLPC  C211 6581   4.852   5.469   9.220 -0.5067 -0.2082 -0.8899
   74SLPC  H11R 6582   4.781   5.489   9.303  0.6078  1.6619 -0.3264
   74SLPC  H11S 6583   4.808   5.384   9.163 -4.8689  0.7945  0.6338
   74SLPC  C212 6584   4.850   5.599   9.137 -0.4542  0.0693 -0.1587
   74SLPC  H12R 6585   4.864   5.690   9.197 -0.9152  0.6376 -0.8851
   74SLPC  C213 6586   4.831   5.620   9.007 -0.5706  0.3216 -0.1864
   74SLPC  H13R 6587   4.854   5.718   8.962  1.8254 -0.8339 -1.6433
   74SLPC  C214 6588   4.807   5.525   8.900  0.6269 -0.2347 -0.2720
   74SLPC  H14R 6589   4.801   5.416   8.918 -0.8428 -0.5180 -2.1582
   74SLPC  H14S 6590   4.892   5.539   8.830 -0.3784  2.2529 -1.1256
   74SLPC  C215 6591   4.681   5.563   8.817  0.1782  0.6993 -0.4465
   74SLPC  H15R 6592   4.591   5.547   8.880  3.0497 -2.2312  3.4839
   74SLPC  H15S 6593   4.675   5.498   8.727  2.9090  2.0668 -1.7229
   74SLPC  C216 6594   4.682   5.713   8.777 -0.2096  0.5259  0.3617
   74SLPC  H16R 6595   4.774   5.740   8.722  0.4760  0.6453  1.5337
   74SLPC  H16S 6596   4.678   5.776   8.868 -0.9955 -1.3616  1.7078
   74SLPC  C217 6597   4.562   5.754   8.691 -0.4647 -0.2457  0.0413
   74SLPC  H17R 6598   4.565   5.865   8.686  0.1974 -0.1141  2.2506
   74SLPC  H17S 6599   4.472   5.718   8.745 -2.0286  1.4322 -1.3188
   74SLPC  C218 6600   4.572   5.700   8.549 -0.2789 -0.3236 -0.2552
   74SLPC  H18R 6601   4.505   5.742   8.472  0.3981 -0.6208 -1.0239
   74SLPC  H18S 6602   4.557   5.590   8.554  1.4203 -0.6811 -1.8158
   74SLPC  H18T 6603   4.670   5.718   8.500  0.2021 -0.0154  0.7755
   74SLPC   C33 6604   4.513   5.355   9.865 -0.0099  0.2346  0.2429
   74SLPC   H3X 6605   4.542   5.461   9.852 -1.3346  0.6351  0.3635
   74SLPC   H3Y 6606   4.404   5.363   9.887 -0.0023  1.8156 -0.1487
   74SLPC   C34 6607   4.534   5.267   9.744 -0.0830  0.4753 -0.8340
   74SLPC   H4X 6608   4.489   5.165   9.747 -0.4326  0.5780 -2.0128
   74SLPC   H4Y 6609   4.645   5.258   9.741 -0.1681 -1.0378 -0.3855
   74SLPC   C35 6610   4.494   5.327   9.612 -0.3313 -0.8983  0.1743
   74SLPC   H5X 6611   4.529   5.432   9.625  0.4404 -0.5683 -3.5720
   74SLPC   H5Y 6612   4.386   5.333   9.587  0.2173  0.5236 -2.1369
   74SLPC   C36 6613   4.557   5.262   9.490  0.3916 -0.1842  0.2892
   74SLPC   H6X 6614   4.545   5.153   9.503 -0.6812 -0.4393 -2.2352
   74SLPC   H6Y 6615   4.664   5.292   9.489  0.6257 -0.9814 -1.8260
   74SLPC   C37 6616   4.478   5.298   9.360 -0.0031  0.1172  0.1335
   74SLPC   H7X 6617   4.471   5.408   9.341  1.8362 -0.2011 -2.9908
   74SLPC   H7Y 6618   4.376   5.253   9.364 -0.3094  0.7858  0.0849
   74SLPC   C38 6619   4.550   5.237   9.237 -0.3274 -0.2373  0.2881
   74SLPC   H8X 6620   4.531   5.128   9.229 -2.8750  0.1896 -0.6304
   74SLPC   H8Y 6621   4.658   5.257   9.253 -0.7435  1.2246  1.4863
   74SLPC   C39 6622   4.504   5.298   9.107  0.0254 -0.1675 -0.3423
   74SLPC   H9X 6623   4.594   5.293   9.041  1.3033 -0.4403  1.3674
   74SLPC   H9Y 6624   4.488   5.408   9.106  0.1909 -0.1399  0.0702
   74SLPC  C310 6625   4.377   5.231   9.053 -0.3275  0.2566  0.1594
   74SLPC  H10X 6626   4.286   5.251   9.114  0.3417 -1.1063  1.7145
   74SLPC  H10Y 6627   4.395   5.121   9.062 -1.6018  0.1240  1.4425
   74SLPC  C311 6628   4.350   5.256   8.902 -0.2064 -0.3381  0.1738
   74SLPC  H11X 6629   4.442   5.228   8.846  1.1319  2.6986  0.6701
   74SLPC  H11Y 6630   4.327   5.364   8.889 -1.2988 -0.6393 -0.6441
   74SLPC  C312 6631   4.237   5.162   8.837 -0.0026  0.1016 -1.0840
   74SLPC  H12X 6632   4.142   5.175   8.894  0.5334  0.2787 -0.1983
   74SLPC  H12Y 6633   4.274   5.058   8.831  1.0415  0.3504  0.4475
   74SLPC  C313 6634   4.210   5.200   8.691 -0.2804 -0.2415 -0.8047
   74SLPC  H13X 6635   4.303   5.190   8.631  1.4643  1.5479  1.4244
   74SLPC  H13Y 6636   4.166   5.302   8.682  1.6354  0.6692 -0.4029
   74SLPC  C314 6637   4.113   5.108   8.619 -0.7153 -0.6080 -0.5923
   74SLPC  H14X 6638   4.034   5.090   8.695  1.9043  1.8340  3.0545
   74SLPC  H14Y 6639   4.161   5.012   8.589  0.9962 -0.0894  0.3669
   74SLPC  C315 6640   4.062   5.181   8.494 -1.2703 -0.0509 -0.1266
   74SLPC  H15X 6641   4.156   5.214   8.445 -1.0392  0.4861  0.6540
   74SLPC  H15Y 6642   4.016   5.279   8.521 -0.4954  0.4277 -0.5152
   74SLPC  C316 6643   3.967   5.092   8.411 -0.2741  0.1220  0.9833
   74SLPC  H16X 6644   3.878   5.057   8.468 -0.3762 -0.3647  0.5350
   74SLPC  H16Y 6645   4.027   5.002   8.386  0.9472  1.3229 -0.5836
   74SLPC  C317 6646   3.929   5.166   8.284  0.2191 -0.4398  0.1180
   74SLPC  H17X 6647   4.020   5.220   8.250  1.5954 -1.0567  2.5747
   74SLPC  H17Y 6648   3.863   5.246   8.323 -0.4579 -1.5113  1.2397
   74SLPC  C318 6649   3.847   5.093   8.180 -0.0301  0.3880  0.5829
   74SLPC  H18X 6650   3.906   5.016   8.126  1.5820  0.8793  1.5989
   74SLPC  H18Y 6651   3.811   5.165   8.102 -0.9809 -2.2575 -1.6035
   74SLPC  H18Z 6652   3.757   5.037   8.216  1.1232 -1.1228  1.2174
   75SLPC     N 6653   2.981   3.117   6.233  0.7593 -0.6319 -0.3623
   75SLPC   C13 6654   3.067   3.239   6.237 -0.1220  0.0686  0.7494
   75SLPC  H13A 6655   3.016   3.314   6.179  2.8941 -0.0141 -2.3001
   75SLPC  H13B 6656   3.075   3.279   6.338  1.0823 -2.1536  1.5990
   75SLPC  H13C 6657   3.163   3.231   6.189 -0.4604  1.7996 -0.2955
   75SLPC   C14 6658   3.013   3.036   6.112 -0.5684 -0.4902  1.7643
   75SLPC  H14A 6659   2.947   2.952   6.096 -3.6180  2.0850 -0.5880
   75SLPC  H14B 6660   3.016   3.092   6.020 -0.1020 -1.4756  1.1577
   75SLPC  H14C 6661   3.116   3.004   6.118 -0.1466 -0.7470 -2.8560
   75SLPC   C15 6662   2.841   3.160   6.233 -0.3811 -0.2087  0.4275
   75SLPC  H15A 6663   2.810   3.214   6.144 -1.2894 -0.2740  0.6937
   75SLPC  H15B 6664   2.782   3.070   6.247 -0.1521 -0.4793 -0.2931
   75SLPC  H15C 6665   2.829   3.220   6.322  0.7151 -1.6266  1.5805
   75SLPC   C12 6666   2.998   3.036   6.366 -0.8277  0.2471  0.4515
   75SLPC  H12A 6667   3.101   3.003   6.365 -0.8635 -0.0255 -2.4179
   75SLPC  H12B 6668   2.947   2.941   6.361  1.4417 -1.1490  1.8315
   75SLPC   C11 6669   2.946   3.107   6.494  0.1632 -0.0132 -0.8707
   75SLPC  H11A 6670   2.931   3.037   6.579 -0.4876 -0.0825 -1.0389
   75SLPC  H11B 6671   2.841   3.142   6.497 -0.5062 -1.9789  0.3194
   75SLPC     P 6672   3.171   3.181   6.605  0.1510  0.0276 -0.4015
   75SLPC   O13 6673   3.198   3.036   6.585 -0.1435  0.0011 -0.5919
   75SLPC   O14 6674   3.271   3.276   6.556 -0.1467  0.1665  0.5585
   75SLPC   O12 6675   3.030   3.214   6.536 -0.2831  0.1645  0.2785
   75SLPC   O11 6676   3.144   3.206   6.757 -0.1002 -0.7590  0.2325
   75SLPC    C1 6677   3.041   3.309   6.798  0.4823  0.9498  0.5578
   75SLPC    HA 6678   3.031   3.394   6.727  0.4761 -0.3451 -1.0508
   75SLPC    HB 6679   2.942   3.259   6.788  0.4290  1.2000 -0.2911
   75SLPC    C2 6680   3.053   3.350   6.946 -0.2056  0.1025 -0.1978
   75SLPC    HS 6681   2.961   3.409   6.968  0.1837  0.6277  0.0609
   75SLPC   O21 6682   3.170   3.433   6.968 -0.4593 -0.1177 -0.0300
   75SLPC   C21 6683   3.153   3.510   7.067 -0.2779  0.7224 -0.4888
   75SLPC   O22 6684   3.056   3.514   7.142  0.6818  0.1307  0.6973
   75SLPC   C22 6685   3.274   3.597   7.095 -0.0176 -0.3718 -0.4177
   75SLPC   H2R 6686   3.334   3.590   7.002 -2.1733  0.0097 -1.9245
   75SLPC   H2S 6687   3.243   3.703   7.104 -1.3282 -0.6842 -0.9186
   75SLPC    C3 6688   3.063   3.221   7.035  0.4754 -0.2514 -0.1485
   75SLPC    HX 6689   3.163   3.183   7.003  0.1383 -0.7989 -0.5585
   75SLPC    HY 6690   2.986   3.144   7.011 -0.9879  0.0207  3.1633
   75SLPC   O31 6691   3.063   3.254   7.177 -0.6063 -0.4325 -0.0911
   75SLPC   C31 6692   2.933   3.265   7.230 -0.7155 -0.3509 -0.4903
   75SLPC   O32 6693   2.836   3.248   7.167  0.3414  0.0553  0.5263
   75SLPC   C32 6694   2.944   3.316   7.381 -0.6485  1.0056  0.3169
   75SLPC   H2X 6695   2.934   3.426   7.383  0.9678  1.2434 -1.4583
   75SLPC   H2Y 6696   3.043   3.293   7.425 -0.0063  2.8888 -0.0754
   75SLPC   C23 6697   3.366   3.565   7.217 -0.5262 -0.8060 -0.0318
   75SLPC   H3R 6698   3.461   3.621   7.210 -1.3421  0.4366 -2.1835
   75SLPC   H3S 6699   3.392   3.457   7.222 -2.3084 -1.2163  2.3654
   75SLPC   C24 6700   3.284   3.604   7.344 -0.5160  0.0977  0.6112
   75SLPC   H4R 6701   3.180   3.565   7.346 -0.5178  0.0626  2.7840
   75SLPC   H4S 6702   3.270   3.714   7.344 -1.5332  0.0186 -1.4328
   75SLPC   C25 6703   3.348   3.557   7.474  0.2887 -0.4772 -0.0074
   75SLPC   H5R 6704   3.454   3.591   7.479 -0.0699  0.7302 -0.4633
   75SLPC   H5S 6705   3.337   3.446   7.466 -0.4314 -0.3393 -1.0718
   75SLPC   C26 6706   3.270   3.607   7.600 -0.2717  0.0998  0.2549
   75SLPC   H6R 6707   3.168   3.564   7.607 -0.2147  0.1090  1.4064
   75SLPC   H6S 6708   3.250   3.716   7.595 -0.9221  0.1989  3.2311
   75SLPC   C27 6709   3.346   3.571   7.725 -0.1552  0.1122 -0.2569
   75SLPC   H7R 6710   3.438   3.633   7.727  0.6435 -1.0430  0.3937
   75SLPC   H7S 6711   3.378   3.464   7.725 -3.1427 -0.8950 -2.1904
   75SLPC   C28 6712   3.255   3.579   7.847  0.1477  0.3662 -0.0211
   75SLPC   H8R 6713   3.192   3.489   7.865  1.9735 -0.6041  1.9447
   75SLPC   H8S 6714   3.196   3.672   7.837 -1.7409 -0.8330 -0.4955
   75SLPC   C29 6715   3.343   3.598   7.970  0.1031 -0.4566  0.4338
   75SLPC   H9R 6716   3.451   3.584   7.956  0.0776 -0.7471  0.5187
   75SLPC  C210 6717   3.303   3.621   8.098  0.1420 -0.0928  0.4112
   75SLPC  H10R 6718   3.376   3.630   8.180  0.1344  1.0859  0.3154
   75SLPC  C211 6719   3.163   3.631   8.156  0.3344  0.2967 -0.1326
   75SLPC  H11R 6720   3.092   3.604   8.075  1.2382 -1.9951 -0.2141
   75SLPC  H11S 6721   3.148   3.735   8.192  0.2405  0.6742 -1.2438
   75SLPC  C212 6722   3.146   3.538   8.269 -0.2271 -0.0809  0.2434
   75SLPC  H12R 6723   3.170   3.434   8.242  1.2776 -0.2793  2.1084
   75SLPC  C213 6724   3.092   3.559   8.388 -0.1539 -0.3074  0.1730
   75SLPC  H13R 6725   3.088   3.470   8.452  2.3791 -0.1213  0.6802
   75SLPC  C214 6726   3.048   3.688   8.456  0.3724  0.3829  0.5427
   75SLPC  H14R 6727   2.947   3.675   8.500  0.0944 -0.2883 -0.2662
   75SLPC  H14S 6728   3.047   3.768   8.378  0.5128 -1.8251 -1.8756
   75SLPC  C215 6729   3.154   3.716   8.560 -0.1169  0.6377 -0.4304
   75SLPC  H15R 6730   3.252   3.713   8.508 -1.2499 -1.8038 -2.6813
   75SLPC  H15S 6731   3.157   3.627   8.627  0.5612  1.0574  0.1190
   75SLPC  C216 6732   3.147   3.844   8.639  1.3342 -0.4092 -0.2895
   75SLPC  H16R 6733   3.156   3.921   8.559  0.5170 -0.8194 -0.7941
   75SLPC  H16S 6734   3.235   3.866   8.703 -1.5317  1.4389  3.4839
   75SLPC  C217 6735   3.019   3.895   8.700  0.2226  0.5983  0.1065
   75SLPC  H17R 6736   2.940   3.899   8.622 -0.4979  1.6665  0.8688
   75SLPC  H17S 6737   3.032   4.002   8.727  1.6676  1.2617 -2.8999
   75SLPC  C218 6738   2.957   3.818   8.815  0.0621 -0.0465  0.0850
   75SLPC  H18R 6739   2.866   3.872   8.847 -1.0170 -1.8091  0.1323
   75SLPC  H18S 6740   3.031   3.816   8.898  1.6686  0.5512 -1.2513
   75SLPC  H18T 6741   2.930   3.716   8.780 -0.2801  0.2611 -0.5787
   75SLPC   C33 6742   2.824   3.267   7.463  0.2495  0.0375 -0.8058
   75SLPC   H3X 6743   2.734   3.310   7.415  0.8365 -0.1267 -2.1213
   75SLPC   H3Y 6744   2.808   3.157   7.466 -0.2964  0.1332 -0.1356
   75SLPC   C34 6745   2.838   3.312   7.615  0.3481  0.6516 -0.2738
   75SLPC   H4X 6746   2.757   3.253   7.662  2.2364 -1.8894  0.0344
   75SLPC   H4Y 6747   2.811   3.418   7.632 -1.2212  0.0500  1.2896
   75SLPC   C35 6748   2.975   3.276   7.677  0.4681 -0.1069  0.3018
   75SLPC   H5X 6749   3.044   3.360   7.655  0.8803 -1.1050 -2.7792
   75SLPC   H5Y 6750   3.013   3.180   7.635  0.8716  0.3959 -0.5092
   75SLPC   C36 6751   2.959   3.251   7.826  0.2190 -0.5417 -0.5676
   75SLPC   H6X 6752   3.054   3.206   7.861  0.4511 -0.3026 -0.8831
   75SLPC   H6Y 6753   2.889   3.167   7.844 -0.3904  0.0457 -0.1507
   75SLPC   C37 6754   2.912   3.377   7.901  0.2041  0.8906 -0.4050
   75SLPC   H7X 6755   2.824   3.420   7.848 -1.9459 -2.8918 -0.2796
   75SLPC   H7Y 6756   2.999   3.445   7.911  0.1838  0.7803  0.5247
   75SLPC   C38 6757   2.886   3.372   8.058 -0.1095  0.2882 -0.0203
   75SLPC   H8X 6758   2.881   3.481   8.080  0.5867  0.6295 -1.3941
   75SLPC   H8Y 6759   2.966   3.322   8.115 -1.0682 -0.9945  0.2550
   75SLPC   C39 6760   2.752   3.305   8.097 -0.0933 -0.1613 -0.1573
   75SLPC   H9X 6761   2.738   3.200   8.062 -1.8320  1.0396 -3.4118
   75SLPC   H9Y 6762   2.677   3.351   8.029  1.6721 -0.7722 -2.6546
   75SLPC  C310 6763   2.730   3.318   8.242  0.2782 -0.8851  0.7566
   75SLPC  H10X 6764   2.623   3.304   8.267  0.1591 -0.0465  0.7560
   75SLPC  H10Y 6765   2.763   3.418   8.277  0.7369 -0.8945  0.3715
   75SLPC  C311 6766   2.799   3.214   8.328 -0.4687 -0.3700 -0.5909
   75SLPC  H11X 6767   2.905   3.197   8.302 -0.2613 -1.1362  0.6884
   75SLPC  H11Y 6768   2.738   3.124   8.304 -2.2327  0.1310  1.6813
   75SLPC  C312 6769   2.797   3.253   8.481  0.3872  0.5868 -0.1582
   75SLPC  H12X 6770   2.867   3.339   8.491  1.2291  0.0489 -1.2715
   75SLPC  H12Y 6771   2.847   3.170   8.534  1.3650  0.3416 -1.4309
   75SLPC  C313 6772   2.655   3.274   8.538  0.7258 -0.2258  0.3271
   75SLPC  H13X 6773   2.594   3.185   8.514  1.2344 -0.4169 -0.2738
   75SLPC  H13Y 6774   2.600   3.357   8.488  0.1716 -2.6806 -3.5232
   75SLPC  C314 6775   2.642   3.292   8.690 -0.3320  0.4512  0.7378
   75SLPC  H14X 6776   2.699   3.372   8.744 -0.1467  0.4797  0.5002
   75SLPC  H14Y 6777   2.689   3.202   8.735  2.0935  0.3983 -1.6421
   75SLPC  C315 6778   2.503   3.315   8.740  0.7214 -0.6720  0.6357
   75SLPC  H15X 6779   2.432   3.240   8.699 -0.8204  1.2473 -0.4166
   75SLPC  H15Y 6780   2.459   3.407   8.695 -0.8733 -1.7998 -0.1970
   75SLPC  C316 6781   2.503   3.322   8.886  0.4548 -0.2734 -0.0091
   75SLPC  H16X 6782   2.422   3.395   8.909 -1.2973 -2.4829  1.2463
   75SLPC  H16Y 6783   2.600   3.360   8.925  0.7048 -0.5879 -0.3209
   75SLPC  C317 6784   2.482   3.190   8.962 -0.1426 -0.2458 -0.8058
   75SLPC  H17X 6785   2.493   3.225   9.067  0.8503 -0.9127 -0.6805
   75SLPC  H17Y 6786   2.566   3.122   8.937 -1.3056 -2.2140  0.3561
   75SLPC  C318 6787   2.348   3.115   8.963 -0.0739  0.0211 -0.5732
   75SLPC  H18X 6788   2.354   3.023   9.024 -0.3436  0.1411 -0.3597
   75SLPC  H18Y 6789   2.310   3.104   8.859 -0.1478 -1.0885 -0.4406
   75SLPC  H18Z 6790   2.274   3.181   9.014 -0.6398  0.0103 -1.3630
   76SLPC     N 6791   6.199   0.659   6.044  0.1224  0.0562 -0.5649
   76SLPC   C13 6792   6.090   0.745   5.974 -0.2286 -0.8987 -0.2679
   76SLPC  H13A 6793   6.122   0.780   5.877 -1.0719  1.0410  0.0906
   76SLPC  H13B 6794   6.009   0.677   5.951  0.9131 -2.1286 -0.7244
   76SLPC  H13C 6795   6.058   0.827   6.037 -1.4944 -0.9623 -0.7952
   76SLPC   C14 6796   6.322   0.745   6.073 -0.1508  0.0060 -0.1268
   76SLPC  H14A 6797   6.365   0.795   5.987  2.2143 -0.8909  0.4386
   76SLPC  H14B 6798   6.304   0.825   6.144  0.9641 -0.1234  0.3308
   76SLPC  H14C 6799   6.403   0.682   6.108 -0.2357 -0.2439 -0.3831
   76SLPC   C15 6800   6.243   0.550   5.952  0.3192  0.0857 -0.0530
   76SLPC  H15A 6801   6.323   0.496   6.000 -0.4255  0.8707  2.2364
   76SLPC  H15B 6802   6.165   0.475   5.946 -0.8696  1.2431  0.4881
   76SLPC  H15C 6803   6.267   0.572   5.849 -0.1996 -2.3134 -0.7434
   76SLPC   C12 6804   6.145   0.594   6.172  0.8470  0.2447  0.1038
   76SLPC  H12A 6805   6.207   0.511   6.202  0.8620 -0.7196 -2.3067
   76SLPC  H12B 6806   6.054   0.548   6.137  0.6702 -1.0202  2.0851
   76SLPC   C11 6807   6.105   0.686   6.290  0.5125 -0.0237 -0.6038
   76SLPC  H11A 6808   6.197   0.725   6.340  1.1140 -1.6531 -0.3621
   76SLPC  H11B 6809   6.069   0.618   6.370  2.1538 -0.2826 -0.0489
   76SLPC     P 6810   5.855   0.742   6.258 -0.1185  0.6951 -0.2821
   76SLPC   O13 6811   5.780   0.851   6.193 -0.3926  0.1609 -0.9370
   76SLPC   O14 6812   5.852   0.601   6.206  0.1709  0.1568  0.1425
   76SLPC   O12 6813   6.015   0.794   6.259  0.2418 -0.0976  0.4224
   76SLPC   O11 6814   5.812   0.752   6.409  0.4497  0.0795 -0.4343
   76SLPC    C1 6815   5.854   0.859   6.486 -0.6019  0.9748 -0.2185
   76SLPC    HA 6816   5.964   0.868   6.491 -0.4313 -0.7202 -0.4995
   76SLPC    HB 6817   5.814   0.957   6.451  0.3179  1.6731  0.6360
   76SLPC    C2 6818   5.812   0.842   6.625  0.3604  0.1193 -0.2514
   76SLPC    HS 6819   5.701   0.840   6.614  0.4713 -0.1944 -1.3660
   76SLPC   O21 6820   5.855   0.948   6.708  0.3367  0.2747 -0.3242
   76SLPC   C21 6821   5.761   1.049   6.722 -0.3009 -0.0958 -0.2968
   76SLPC   O22 6822   5.654   1.054   6.659 -0.1806  0.0912  0.5690
   76SLPC   C22 6823   5.806   1.140   6.832  0.5913 -0.1332  0.1427
   76SLPC   H2R 6824   5.879   1.083   6.892  2.0396  0.3528 -1.1044
   76SLPC   H2S 6825   5.848   1.230   6.782  0.3596 -0.7159 -1.1684
   76SLPC    C3 6826   5.876   0.709   6.690 -0.3280  0.0973 -0.1780
   76SLPC    HX 6827   5.983   0.729   6.713 -0.2535 -0.8561  0.3619
   76SLPC    HY 6828   5.873   0.632   6.609 -0.1269  1.1571 -1.2280
   76SLPC   O31 6829   5.801   0.661   6.812  0.1399  0.4401 -0.3550
   76SLPC   C31 6830   5.825   0.715   6.928 -0.8654  0.1522 -0.3180
   76SLPC   O32 6831   5.913   0.796   6.952 -0.5531  0.2545 -0.2751
   76SLPC   C32 6832   5.730   0.652   7.031 -0.4505 -0.2565  0.1710
   76SLPC   H2X 6833   5.670   0.574   6.979 -1.4522  0.7515 -0.2375
   76SLPC   H2Y 6834   5.652   0.721   7.068 -1.9442 -1.7054 -0.1551
   76SLPC   C23 6835   5.693   1.194   6.925  0.9995  0.5791 -0.4256
   76SLPC   H3R 6836   5.605   1.226   6.866  0.4646 -0.4778 -0.2201
   76SLPC   H3S 6837   5.737   1.287   6.969  0.2278  0.9929 -0.5180
   76SLPC   C24 6838   5.652   1.097   7.034 -0.0701 -0.2523  0.2115
   76SLPC   H4R 6839   5.605   1.007   6.988  0.8075 -1.1239  0.9786
   76SLPC   H4S 6840   5.583   1.155   7.099  0.5037  1.1107 -0.3411
   76SLPC   C25 6841   5.761   1.052   7.136 -0.3578 -0.1725  0.2231
   76SLPC   H5R 6842   5.851   1.117   7.136  0.1667 -0.8831  0.6555
   76SLPC   H5S 6843   5.784   0.953   7.092 -0.1823  0.0924 -0.3038
   76SLPC   C26 6844   5.709   1.028   7.275  0.1628 -0.1160 -0.8800
   76SLPC   H6R 6845   5.643   0.939   7.284 -0.9242  0.8852  3.1171
   76SLPC   H6S 6846   5.653   1.121   7.299 -0.1498 -1.1304  2.8813
   76SLPC   C27 6847   5.816   1.018   7.391  0.0159  0.2097  0.2749
   76SLPC   H7R 6848   5.873   1.114   7.389 -0.8737  0.7496  0.1595
   76SLPC   H7S 6849   5.883   0.933   7.365 -0.5122 -0.3214  0.6235
   76SLPC   C28 6850   5.760   1.012   7.538 -0.7201  0.1101  0.2005
   76SLPC   H8R 6851   5.702   1.106   7.553 -0.0933  0.6586 -0.7225
   76SLPC   H8S 6852   5.688   0.928   7.530  1.6123 -1.8083 -3.0696
   76SLPC   C29 6853   5.870   0.996   7.641  1.1212  0.1860  0.1118
   76SLPC   H9R 6854   5.967   1.032   7.605  0.3091  0.8851 -1.4626
   76SLPC  C210 6855   5.862   0.949   7.770 -0.8327  0.2108  0.2289
   76SLPC  H10R 6856   5.949   0.969   7.834  0.0825  2.5362 -1.5950
   76SLPC  C211 6857   5.734   0.903   7.836  0.2233  0.3695 -0.6811
   76SLPC  H11R 6858   5.730   0.798   7.798 -1.0899 -0.0989  0.6510
   76SLPC  H11S 6859   5.650   0.961   7.791  0.8992  1.2200 -0.8633
   76SLPC  C212 6860   5.748   0.911   7.989  0.3423  0.0228  0.0569
   76SLPC  H12R 6861   5.769   1.012   8.027 -1.5267 -0.4555  2.6984
   76SLPC  C213 6862   5.736   0.812   8.077  0.0090  0.8044 -0.2486
   76SLPC  H13R 6863   5.746   0.831   8.185 -2.2760  1.2213 -0.0519
   76SLPC  C214 6864   5.715   0.665   8.053  0.3615  0.0738  0.1674
   76SLPC  H14R 6865   5.785   0.597   8.106  1.0239 -3.8765 -4.9768
   76SLPC  H14S 6866   5.721   0.637   7.945  0.5004 -2.3499  0.7610
   76SLPC  C215 6867   5.566   0.638   8.096 -1.7026 -0.7638 -0.4093
   76SLPC  H15R 6868   5.552   0.535   8.057  1.9747 -1.2583 -0.7305
   76SLPC  H15S 6869   5.492   0.701   8.041 -1.4101  0.3816  0.4841
   76SLPC  C216 6870   5.546   0.643   8.247  0.0612 -0.4481  0.6059
   76SLPC  H16R 6871   5.436   0.649   8.262  0.1961  2.3707  1.0305
   76SLPC  H16S 6872   5.585   0.742   8.278  0.3605 -0.0749 -0.8927
   76SLPC  C217 6873   5.608   0.534   8.328  0.5096  0.9407 -0.2403
   76SLPC  H17R 6874   5.613   0.563   8.435  0.8164  1.6635 -0.4453
   76SLPC  H17S 6875   5.710   0.499   8.301  0.8086  1.3554  0.3280
   76SLPC  C218 6876   5.527   0.397   8.300 -0.8943 -0.4796 -0.6926
   76SLPC  H18R 6877   5.552   0.326   8.382 -0.0170 -0.4554 -0.9336
   76SLPC  H18S 6878   5.551   0.354   8.201  0.6920  2.3723 -1.6353
   76SLPC  H18T 6879   5.417   0.414   8.291 -0.5474  1.0013 -2.7905
   76SLPC   C33 6880   5.798   0.595   7.152  0.1698 -0.3852  0.0995
   76SLPC   H3X 6881   5.855   0.671   7.209 -1.8504  1.0339  0.3231
   76SLPC   H3Y 6882   5.870   0.516   7.121 -0.2395 -1.0151  0.7296
   76SLPC   C34 6883   5.713   0.535   7.261  0.0144 -0.5433 -0.1907
   76SLPC   H4X 6884   5.673   0.436   7.230  2.1232 -1.6557  0.4160
   76SLPC   H4Y 6885   5.621   0.595   7.275 -1.9096 -3.1038 -0.9311
   76SLPC   C35 6886   5.798   0.521   7.387 -0.1330 -0.3385 -0.0105
   76SLPC   H5X 6887   5.830   0.622   7.420 -0.4065 -0.4971  0.7639
   76SLPC   H5Y 6888   5.880   0.453   7.358 -1.7796 -1.0593 -3.4448
   76SLPC   C36 6889   5.706   0.474   7.504 -0.6987 -0.7681  0.3273
   76SLPC   H6X 6890   5.685   0.367   7.484 -0.4814 -0.9632  1.1013
   76SLPC   H6Y 6891   5.609   0.529   7.498 -0.9837 -1.3455 -0.3896
   76SLPC   C37 6892   5.778   0.487   7.641  0.2352 -0.1318  0.5109
   76SLPC   H7X 6893   5.763   0.586   7.688 -1.2672 -0.9231  1.7873
   76SLPC   H7Y 6894   5.888   0.480   7.624  0.0553 -2.9404  0.0191
   76SLPC   C38 6895   5.756   0.369   7.731 -0.3957 -0.1033  0.5165
   76SLPC   H8X 6896   5.766   0.269   7.682  1.9649 -0.4267  1.5367
   76SLPC   H8Y 6897   5.654   0.378   7.774 -0.8932  2.9589 -0.9952
   76SLPC   C39 6898   5.856   0.375   7.851 -0.5846 -0.6573 -0.0666
   76SLPC   H9X 6899   5.824   0.459   7.916 -0.2677  0.1439 -0.9169
   76SLPC   H9Y 6900   5.955   0.408   7.814 -0.4188 -0.4933  0.5145
   76SLPC  C310 6901   5.864   0.254   7.944  0.7667  0.1968  0.0863
   76SLPC  H10X 6902   5.903   0.175   7.877 -1.5383 -0.1790 -0.8963
   76SLPC  H10Y 6903   5.761   0.222   7.969  1.6800 -2.3566  0.8635
   76SLPC  C311 6904   5.932   0.276   8.069  0.4738 -0.9425 -0.3787
   76SLPC  H11X 6905   5.870   0.355   8.117 -0.1969 -1.7274  0.0809
   76SLPC  H11Y 6906   6.035   0.315   8.060  0.3411 -0.3858  0.4208
   76SLPC  C312 6907   5.926   0.155   8.160  0.4410  0.0551 -0.4470
   76SLPC  H12X 6908   6.002   0.082   8.124 -1.4382 -1.4329 -1.6289
   76SLPC  H12Y 6909   5.823   0.114   8.150 -0.9931  3.1940  0.3371
   76SLPC  C313 6910   5.957   0.178   8.311 -0.4270  0.3397 -0.5384
   76SLPC  H13X 6911   5.939   0.089   8.375 -1.3221  0.4023 -0.6853
   76SLPC  H13Y 6912   5.893   0.261   8.347  1.0951  1.2116  0.2162
   76SLPC  C314 6913   6.103   0.224   8.355  0.4627  0.3797 -0.2734
   76SLPC  H14X 6914   6.125   0.314   8.295 -0.3959  0.4867 -0.4427
   76SLPC  H14Y 6915   6.182   0.152   8.325  0.3366 -0.7571  1.8956
   76SLPC  C315 6916   6.114   0.261   8.501 -0.7615 -0.1437 -0.0901
   76SLPC  H15X 6917   6.215   0.302   8.523 -1.7259  2.0460  0.6038
   76SLPC  H15Y 6918   6.106   0.170   8.565  2.5291 -0.4677  0.0198
   76SLPC  C316 6919   6.016   0.371   8.539 -0.2868  0.5499 -0.2396
   76SLPC  H16X 6920   5.914   0.330   8.554 -0.2107 -0.2135 -1.5945
   76SLPC  H16Y 6921   5.999   0.447   8.460 -1.6390  0.1700 -0.3380
   76SLPC  C317 6922   6.062   0.454   8.654  0.3794  0.1846 -0.2169
   76SLPC  H17X 6923   6.170   0.476   8.640  0.2541  0.3891 -0.8907
   76SLPC  H17Y 6924   6.050   0.395   8.747 -0.0483 -0.5012 -0.7007
   76SLPC  C318 6925   5.984   0.587   8.673  0.4380  0.2304 -0.3458
   76SLPC  H18X 6926   5.878   0.553   8.666  1.0820 -1.5400 -3.9419
   76SLPC  H18Y 6927   5.986   0.664   8.593  0.8119  1.2458  0.6235
   76SLPC  H18Z 6928   5.992   0.638   8.771 -1.1998 -0.0310 -0.0372
   77SLPC     N 6929   0.659   6.652   6.375  0.0812  0.1039 -0.4964
   77SLPC   C13 6930   0.639   6.605   6.237  0.6070  0.7257 -0.6121
   77SLPC  H13A 6931   0.645   6.682   6.161 -2.5596  0.3608 -1.3552
   77SLPC  H13B 6932   0.714   6.531   6.213  0.6117 -0.4662  2.5997
   77SLPC  H13C 6933   0.544   6.558   6.216  1.7906 -1.4409 -1.5615
   77SLPC   C14 6934   0.801   6.688   6.387 -0.5204  0.9967 -0.4282
   77SLPC  H14A 6935   0.827   6.759   6.463  2.2414 -2.0275  1.7462
   77SLPC  H14B 6936   0.850   6.599   6.424  1.7581  1.9117 -1.0225
   77SLPC  H14C 6937   0.843   6.706   6.289 -2.0436  0.8007 -1.1414
   77SLPC   C15 6938   0.628   6.540   6.472  0.3006  0.3650  0.0186
   77SLPC  H15A 6939   0.521   6.523   6.476  0.6556 -2.3357 -0.4087
   77SLPC  H15B 6940   0.679   6.451   6.441  2.0569  1.7674 -1.3391
   77SLPC  H15C 6941   0.652   6.563   6.575  0.4012 -0.8012  0.2713
   77SLPC   C12 6942   0.571   6.776   6.404 -0.5041 -0.2110  0.4057
   77SLPC  H12A 6943   0.464   6.763   6.394 -0.4815 -0.1128 -0.0041
   77SLPC  H12B 6944   0.605   6.858   6.343  0.5476  0.1494  1.4538
   77SLPC   C11 6945   0.585   6.827   6.544 -0.7741 -0.5211 -0.4226
   77SLPC  H11A 6946   0.604   6.742   6.612  2.7086 -2.1492 -3.0808
   77SLPC  H11B 6947   0.496   6.882   6.580 -0.3528 -0.9928  1.4260
   77SLPC     P 6948   0.710   7.054   6.491 -0.3694  0.2440  0.4405
   77SLPC   O13 6949   0.828   7.118   6.551 -0.2278 -0.2879 -0.0225
   77SLPC   O14 6950   0.714   7.043   6.342 -0.3901 -0.6306  0.0422
   77SLPC   O12 6951   0.697   6.920   6.564  0.4221  0.0488 -0.2186
   77SLPC   O11 6952   0.580   7.139   6.532 -0.1286 -0.3872  0.1061
   77SLPC    C1 6953   0.590   7.265   6.593 -0.0489  0.0986  0.6913
   77SLPC    HA 6954   0.662   7.328   6.536 -1.7172  1.4595  0.0029
   77SLPC    HB 6955   0.491   7.310   6.572  0.5142  0.9759 -0.1883
   77SLPC    C2 6956   0.620   7.266   6.744 -0.6440  0.7565  0.2115
   77SLPC    HS 6957   0.731   7.268   6.751 -0.6640  2.4104  0.4844
   77SLPC   O21 6958   0.550   7.152   6.807 -0.1521  0.2209  0.1189
   77SLPC   C21 6959   0.642   7.068   6.866 -0.2633 -0.8106  0.7026
   77SLPC   O22 6960   0.752   7.100   6.901  0.5709 -0.1417  0.2754
   77SLPC   C22 6961   0.576   6.931   6.874 -0.6723 -0.3573  0.1732
   77SLPC   H2R 6962   0.477   6.933   6.926  0.0303 -2.3741  1.7200
   77SLPC   H2S 6963   0.544   6.904   6.771  1.3207 -0.1369 -0.5495
   77SLPC    C3 6964   0.563   7.404   6.801  0.0558 -0.2302 -0.4288
   77SLPC    HX 6965   0.467   7.433   6.753  0.0663  1.3943  0.4538
   77SLPC    HY 6966   0.628   7.492   6.779 -0.6551  1.2940  2.8147
   77SLPC   O31 6967   0.541   7.395   6.949 -1.1914 -0.0123 -0.6505
   77SLPC   C31 6968   0.655   7.415   7.019  0.4856  1.0385 -0.2497
   77SLPC   O32 6969   0.756   7.462   6.969 -0.2097 -0.6655  0.5468
   77SLPC   C32 6970   0.643   7.347   7.160  0.4662 -0.5750  0.2566
   77SLPC   H2X 6971   0.581   7.255   7.159 -3.0979  1.5821  1.5288
   77SLPC   H2Y 6972   0.581   7.417   7.220 -0.3355 -0.1896 -0.9763
   77SLPC   C23 6973   0.659   6.819   6.936 -0.0795 -0.0603  0.2845
   77SLPC   H3R 6974   0.759   6.804   6.891  0.1845 -2.0837  1.4113
   77SLPC   H3S 6975   0.604   6.726   6.910  0.6818 -0.5748  0.4661
   77SLPC   C24 6976   0.675   6.837   7.085 -0.8684  0.2202 -0.4701
   77SLPC   H4R 6977   0.575   6.827   7.131 -0.4585  0.9168  0.6256
   77SLPC   H4S 6978   0.715   6.937   7.112  0.7040 -0.5642  0.2762
   77SLPC   C25 6979   0.763   6.723   7.144 -0.5563  0.7743 -0.0163
   77SLPC   H5R 6980   0.862   6.721   7.095  0.5999  0.6693  2.1868
   77SLPC   H5S 6981   0.708   6.627   7.134 -2.0599  1.6805 -0.7913
   77SLPC   C26 6982   0.791   6.743   7.294  0.1731 -0.4123  0.4678
   77SLPC   H6R 6983   0.826   6.647   7.337  1.2446  0.6719  2.1639
   77SLPC   H6S 6984   0.690   6.771   7.330 -0.1340 -0.5249 -0.2875
   77SLPC   C27 6985   0.890   6.856   7.333 -0.5447  0.2153  0.1307
   77SLPC   H7R 6986   0.870   6.928   7.251  0.9587  0.4689 -0.0353
   77SLPC   H7S 6987   0.997   6.826   7.325  0.0275  1.6932  1.7600
   77SLPC   C28 6988   0.851   6.933   7.458 -0.4048 -0.4318  0.1106
   77SLPC   H8R 6989   0.744   6.954   7.434 -0.3149 -1.0453 -0.9246
   77SLPC   H8S 6990   0.912   7.025   7.449 -2.0483  0.4739 -4.8197
   77SLPC   C29 6991   0.876   6.852   7.580  0.2527  0.3648 -0.4819
   77SLPC   H9R 6992   0.949   6.771   7.564 -1.5915 -1.6255  0.6869
   77SLPC  C210 6993   0.826   6.872   7.707 -0.3292 -0.0063  0.0757
   77SLPC  H10R 6994   0.855   6.798   7.784 -2.4222 -0.3162  0.6213
   77SLPC  C211 6995   0.727   6.972   7.754  0.3741  0.3406  0.0663
   77SLPC  H11R 6996   0.628   6.923   7.768 -0.1884  1.4796  0.1982
   77SLPC  H11S 6997   0.710   7.060   7.689 -3.4354 -0.6774 -0.5462
   77SLPC  C212 6998   0.784   7.031   7.887  0.5706  0.9019  0.7585
   77SLPC  H12R 6999   0.892   7.050   7.879  0.4378  1.2704 -0.3270
   77SLPC  C213 7000   0.709   7.069   7.989 -0.1411  0.4847 -0.0176
   77SLPC  H13R 7001   0.756   7.116   8.077  0.8556  0.3678 -0.4766
   77SLPC  C214 7002   0.553   7.052   8.001 -0.1731  0.5538 -0.1701
   77SLPC  H14R 7003   0.523   6.958   8.052 -0.8395  0.8692  0.0370
   77SLPC  H14S 7004   0.519   7.047   7.895  2.0153  1.8318 -0.9984
   77SLPC  C215 7005   0.473   7.175   8.044  0.2212  0.3550  0.1820
   77SLPC  H15R 7006   0.483   7.258   7.971  1.7160  0.6587  0.6943
   77SLPC  H15S 7007   0.517   7.208   8.141 -0.7799  1.1894  0.3593
   77SLPC  C216 7008   0.330   7.129   8.071  0.2131  1.0485 -0.1716
   77SLPC  H16R 7009   0.332   7.028   8.119  1.7551  1.4856  0.7818
   77SLPC  H16S 7010   0.269   7.115   7.979  0.9004  0.3780 -0.5413
   77SLPC  C217 7011   0.266   7.220   8.171 -0.0520  0.0777 -0.0300
   77SLPC  H17R 7012   0.249   7.325   8.140 -1.0852 -0.0650  0.0155
   77SLPC  H17S 7013   0.331   7.222   8.261  0.3011  1.1981 -0.2959
   77SLPC  C218 7014   0.126   7.164   8.212  0.2108 -0.6122 -0.4676
   77SLPC  H18R 7015   0.076   7.250   8.262  0.8317 -0.1017 -0.7171
   77SLPC  H18S 7016   0.131   7.073   8.277 -2.1849 -1.2022 -1.0311
   77SLPC  H18T 7017   0.075   7.151   8.115  2.0927  2.6006 -2.0634
   77SLPC   C33 7018   0.786   7.320   7.198  0.1087 -0.1712  0.4173
   77SLPC   H3X 7019   0.856   7.407   7.203  1.0584 -0.7361 -1.6217
   77SLPC   H3Y 7020   0.845   7.265   7.121 -0.6694  0.5995 -0.7721
   77SLPC   C34 7021   0.792   7.252   7.336  0.1328 -0.1972  0.0506
   77SLPC   H4X 7022   0.898   7.240   7.366 -0.0720 -0.7901  0.5612
   77SLPC   H4Y 7023   0.747   7.153   7.312 -0.8787 -0.0106  1.1139
   77SLPC   C35 7024   0.718   7.309   7.456  0.0326 -0.0048 -0.0975
   77SLPC   H5X 7025   0.758   7.280   7.555 -1.4441  1.9287  1.1348
   77SLPC   H5Y 7026   0.609   7.289   7.459 -0.0693  0.6229  1.8635
   77SLPC   C36 7027   0.729   7.461   7.470 -0.5003 -0.1774  0.5432
   77SLPC   H6X 7028   0.676   7.514   7.387  0.9451  0.4463 -0.0124
   77SLPC   H6Y 7029   0.833   7.492   7.450 -0.2799 -2.2893 -2.1390
   77SLPC   C37 7030   0.673   7.506   7.611  0.9596  0.0223  0.9983
   77SLPC   H7X 7031   0.577   7.453   7.626  1.5511 -1.0764  1.0428
   77SLPC   H7Y 7032   0.662   7.616   7.603  0.1111 -0.1519 -0.6466
   77SLPC   C38 7033   0.767   7.470   7.725  0.3397 -0.0090  0.2219
   77SLPC   H8X 7034   0.868   7.512   7.705  0.0890  1.2659  1.5309
   77SLPC   H8Y 7035   0.773   7.359   7.728  1.2589  0.0031 -0.6499
   77SLPC   C39 7036   0.709   7.506   7.864  0.7662  0.2745  0.5333
   77SLPC   H9X 7037   0.611   7.453   7.867  0.3718  0.9747  0.3725
   77SLPC   H9Y 7038   0.691   7.615   7.875 -0.9410 -0.1219  2.2085
   77SLPC  C310 7039   0.809   7.445   7.965 -0.0820 -0.4759 -0.3467
   77SLPC  H10X 7040   0.908   7.491   7.946  0.0665  0.9994  3.2633
   77SLPC  H10Y 7041   0.822   7.336   7.943  1.2057 -0.5747  0.7517
   77SLPC  C311 7042   0.768   7.451   8.112 -0.1979 -0.3320 -0.1676
   77SLPC  H11X 7043   0.674   7.393   8.124 -0.6415  0.2973 -0.5426
   77SLPC  H11Y 7044   0.746   7.553   8.151  1.7213  0.4878 -1.0966
   77SLPC  C312 7045   0.872   7.377   8.200 -0.5111 -0.0531  0.4319
   77SLPC  H12X 7046   0.974   7.420   8.188 -0.0603 -0.1552  3.2662
   77SLPC  H12Y 7047   0.875   7.269   8.175  0.0635  0.5138 -2.3307
   77SLPC  C313 7048   0.834   7.378   8.344  0.3749 -0.2016 -0.5052
   77SLPC  H13X 7049   0.834   7.485   8.373 -0.2844 -0.5335  0.8056
   77SLPC  H13Y 7050   0.909   7.327   8.408  1.0969  2.1064  0.6056
   77SLPC  C314 7051   0.694   7.325   8.379  0.1930  0.8474 -0.3330
   77SLPC  H14X 7052   0.691   7.217   8.352  0.6577 -0.0055  2.6629
   77SLPC  H14Y 7053   0.616   7.373   8.317 -1.5142 -2.2510 -0.8013
   77SLPC  C315 7054   0.649   7.327   8.528  0.9491 -0.0699  0.1883
   77SLPC  H15X 7055   0.725   7.275   8.589  0.7634 -0.3560  0.1750
   77SLPC  H15Y 7056   0.557   7.267   8.542  1.3868 -0.6206  0.7431
   77SLPC  C316 7057   0.634   7.474   8.578  0.3885  0.3644 -0.0125
   77SLPC  H16X 7058   0.548   7.517   8.523 -2.4599 -0.0018  3.6968
   77SLPC  H16Y 7059   0.718   7.544   8.560 -0.1354  0.9431 -0.2339
   77SLPC  C317 7060   0.601   7.474   8.730 -0.2338  0.6175 -0.0278
   77SLPC  H17X 7061   0.679   7.417   8.783  0.1423  0.4201 -0.7757
   77SLPC  H17Y 7062   0.508   7.415   8.745 -0.1003  0.4860  0.2956
   77SLPC  C318 7063   0.586   7.611   8.803  0.2651  0.1146 -0.9092
   77SLPC  H18X 7064   0.564   7.601   8.911  1.4762  0.4506 -0.6086
   77SLPC  H18Y 7065   0.507   7.672   8.755  1.2494  2.2462  0.0329
   77SLPC  H18Z 7066   0.678   7.672   8.789 -1.7736  4.0090  0.9045
   78SLPC     N 7067   3.306   1.188   6.311  0.2401 -0.1279  0.6235
   78SLPC   C13 7068   3.221   1.272   6.219 -0.7025 -0.3416  0.4744
   78SLPC  H13A 7069   3.128   1.295   6.268 -0.2750 -0.6911  1.4775
   78SLPC  H13B 7070   3.266   1.369   6.201  0.3720 -0.9515 -0.3016
   78SLPC  H13C 7071   3.202   1.236   6.119  0.4384 -0.6791  0.3628
   78SLPC   C14 7072   3.426   1.146   6.237 -0.4428  0.2941  0.6636
   78SLPC  H14A 7073   3.396   1.092   6.148 -0.5528  2.8425 -0.9230
   78SLPC  H14B 7074   3.485   1.228   6.200 -0.8067 -0.3572 -1.5332
   78SLPC  H14C 7075   3.480   1.080   6.303 -0.6300  2.6722  3.3688
   78SLPC   C15 7076   3.235   1.060   6.333  0.3096 -0.2027  0.3163
   78SLPC  H15A 7077   3.217   1.011   6.239  1.3922 -3.9927  1.9031
   78SLPC  H15B 7078   3.293   0.988   6.389  2.8907  0.6962 -1.0254
   78SLPC  H15C 7079   3.141   1.065   6.386  0.5406 -0.3731  0.7443
   78SLPC   C12 7080   3.350   1.262   6.436  0.7192  0.1027 -0.3084
   78SLPC  H12A 7081   3.427   1.200   6.480 -0.2719 -0.5819  0.5292
   78SLPC  H12B 7082   3.272   1.266   6.511 -1.8861 -0.5139 -2.8220
   78SLPC   C11 7083   3.411   1.404   6.425 -0.2371  0.0137 -0.1540
   78SLPC  H11A 7084   3.441   1.418   6.531  0.0214  0.8136 -0.3325
   78SLPC  H11B 7085   3.329   1.469   6.387  0.2093  0.2048 -0.7948
   78SLPC     P 7086   3.645   1.493   6.341 -0.0505  0.1101  0.1874
   78SLPC   O13 7087   3.694   1.517   6.204 -0.0139 -0.0502 -0.6411
   78SLPC   O14 7088   3.607   1.616   6.421  0.0161 -0.4112  0.3456
   78SLPC   O12 7089   3.527   1.395   6.340  0.0652 -0.3813 -0.0832
   78SLPC   O11 7090   3.755   1.414   6.424 -0.2761  0.3830  0.0485
   78SLPC    C1 7091   3.759   1.270   6.411 -0.1952 -0.1803 -0.8600
   78SLPC    HA 7092   3.704   1.225   6.326  0.6500 -1.1800 -0.8868
   78SLPC    HB 7093   3.866   1.252   6.390 -0.3822 -0.9607 -1.1640
   78SLPC    C2 7094   3.701   1.197   6.538 -0.1600  0.8487  0.0011
   78SLPC    HS 7095   3.590   1.197   6.536 -0.1593 -0.3584 -1.0128
   78SLPC   O21 7096   3.757   1.255   6.660  0.2736  0.3604 -0.1522
   78SLPC   C21 7097   3.684   1.277   6.763  0.3627  0.5885 -0.3466
   78SLPC   O22 7098   3.563   1.248   6.766 -0.1140 -0.2320 -0.3486
   78SLPC   C22 7099   3.765   1.336   6.884  0.0938  0.3391  0.5601
   78SLPC   H2R 7100   3.812   1.247   6.931  1.4951 -0.0017 -1.3768
   78SLPC   H2S 7101   3.843   1.409   6.853  0.3374  0.2917  1.0418
   78SLPC    C3 7102   3.748   1.046   6.542  0.0312  0.9616 -0.3998
   78SLPC    HX 7103   3.857   1.035   6.563 -0.5473 -2.8389  1.4230
   78SLPC    HY 7104   3.731   1.000   6.442  2.1662 -0.1120 -0.3185
   78SLPC   O31 7105   3.678   0.967   6.635 -0.7726  0.9080 -0.4401
   78SLPC   C31 7106   3.552   0.929   6.607 -0.5121  0.0569 -0.3900
   78SLPC   O32 7107   3.486   0.957   6.505 -1.3091  0.3933  0.2800
   78SLPC   C32 7108   3.494   0.854   6.719 -0.1385 -0.2267  0.3502
   78SLPC   H2X 7109   3.403   0.798   6.690 -1.0339  2.0719 -1.5426
   78SLPC   H2Y 7110   3.470   0.929   6.797  2.1486  2.4251 -1.2881
   78SLPC   C23 7111   3.661   1.405   6.977  0.5300  0.0626 -0.0642
   78SLPC   H3R 7112   3.580   1.333   6.999 -1.2562  1.9970  0.0331
   78SLPC   H3S 7113   3.611   1.487   6.920  0.6320 -1.5949 -2.6954
   78SLPC   C24 7114   3.725   1.454   7.107 -0.3298  0.0205 -0.4566
   78SLPC   H4R 7115   3.785   1.373   7.153 -1.7093 -0.3640  0.7539
   78SLPC   H4S 7116   3.648   1.478   7.184 -0.5375 -0.3280 -0.5551
   78SLPC   C25 7117   3.806   1.582   7.090  0.0903 -0.3739 -0.3239
   78SLPC   H5R 7118   3.732   1.658   7.056  0.4953  0.6014  0.8657
   78SLPC   H5S 7119   3.890   1.554   7.023 -0.0748  1.2385 -1.2394
   78SLPC   C26 7120   3.887   1.623   7.210  0.2026 -0.2425 -0.2206
   78SLPC   H6R 7121   3.975   1.689   7.194 -0.3777  0.5999  0.0179
   78SLPC   H6S 7122   3.925   1.523   7.240  2.2298  0.9311  1.4138
   78SLPC   C27 7123   3.808   1.685   7.325  0.2523 -0.6619  0.4445
   78SLPC   H7R 7124   3.721   1.624   7.358  1.9222 -3.1189  0.6117
   78SLPC   H7S 7125   3.765   1.782   7.294 -0.0180 -0.8669  0.1780
   78SLPC   C28 7126   3.894   1.713   7.448 -0.8476  0.1466 -0.2354
   78SLPC   H8R 7127   3.986   1.760   7.407 -0.6301 -0.7758 -0.8292
   78SLPC   H8S 7128   3.934   1.616   7.484  1.7585  0.9413 -0.7563
   78SLPC   C29 7129   3.830   1.790   7.564  0.4513  0.3383  0.1696
   78SLPC   H9R 7130   3.774   1.877   7.528 -0.6359 -0.6564 -0.6652
   78SLPC  C210 7131   3.823   1.761   7.695 -0.2757 -0.8853 -0.0445
   78SLPC  H10R 7132   3.771   1.825   7.768 -0.5536 -0.4924 -0.5850
   78SLPC  C211 7133   3.883   1.641   7.755 -0.1963  0.1203 -0.7198
   78SLPC  H11R 7134   3.965   1.607   7.688 -0.1803 -1.8140  0.2200
   78SLPC  H11S 7135   3.815   1.554   7.763 -1.0834  0.8604 -0.0079
   78SLPC  C212 7136   3.953   1.687   7.881 -0.5308 -0.2867 -0.1220
   78SLPC  H12R 7137   4.059   1.708   7.863 -0.1204 -0.1104  2.2211
   78SLPC  C213 7138   3.906   1.704   8.003 -0.2390 -0.1177  0.5777
   78SLPC  H13R 7139   3.972   1.739   8.084 -1.5297 -0.3981  1.7982
   78SLPC  C214 7140   3.759   1.681   8.026 -0.1554 -0.1250  0.1376
   78SLPC  H14R 7141   3.698   1.633   7.947 -2.8509  1.3542  1.1653
   78SLPC  H14S 7142   3.720   1.785   8.031  0.8315  0.2569  0.0937
   78SLPC  C215 7143   3.743   1.609   8.159  0.3702  0.1458  0.0110
   78SLPC  H15R 7144   3.796   1.512   8.165 -1.9146 -1.2876 -1.6887
   78SLPC  H15S 7145   3.634   1.588   8.157  0.9196 -3.2024 -2.5180
   78SLPC  C216 7146   3.768   1.688   8.288 -0.0071  0.3131 -0.4520
   78SLPC  H16R 7147   3.754   1.797   8.273 -2.7978  0.3836  1.8388
   78SLPC  H16S 7148   3.876   1.663   8.297 -0.0044  0.4175 -0.1714
   78SLPC  C217 7149   3.682   1.638   8.410  0.3109 -1.2188  0.3978
   78SLPC  H17R 7150   3.579   1.677   8.397  0.9922  0.9060  0.8378
   78SLPC  H17S 7151   3.733   1.702   8.485  1.5686 -1.0885 -0.5327
   78SLPC  C218 7152   3.693   1.491   8.436 -0.2238 -0.4663 -0.5718
   78SLPC  H18R 7153   3.630   1.435   8.363 -0.2318 -1.4660  0.1835
   78SLPC  H18S 7154   3.654   1.448   8.530 -1.5738 -0.7761 -1.2522
   78SLPC  H18T 7155   3.798   1.457   8.420  0.0324  0.6057 -1.3230
   78SLPC   C33 7156   3.594   0.752   6.796 -0.4300 -0.0379 -0.5796
   78SLPC   H3X 7157   3.682   0.818   6.808  0.2681 -0.9221 -0.7758
   78SLPC   H3Y 7158   3.610   0.669   6.725  0.5233 -1.1860  0.9083
   78SLPC   C34 7159   3.534   0.713   6.930  0.4982 -0.3704 -0.8253
   78SLPC   H4X 7160   3.604   0.654   6.994  1.6964  2.2117  0.3924
   78SLPC   H4Y 7161   3.453   0.641   6.906  0.8706  0.5801 -6.0278
   78SLPC   C35 7162   3.524   0.831   7.035  0.9264  0.0972  0.5652
   78SLPC   H5X 7163   3.492   0.788   7.132  0.7901  1.2276  1.0332
   78SLPC   H5Y 7164   3.443   0.897   6.996  1.3056  1.4594  1.9680
   78SLPC   C36 7165   3.652   0.925   7.048  1.2531 -0.2454 -0.3619
   78SLPC   H6X 7166   3.684   0.969   6.951  0.9365  1.1930  0.1577
   78SLPC   H6Y 7167   3.735   0.870   7.097  1.0956 -1.7883 -1.7435
   78SLPC   C37 7168   3.612   1.043   7.137  0.5430  1.0757 -0.3226
   78SLPC   H7X 7169   3.539   1.109   7.085  0.2392  0.1669 -1.0943
   78SLPC   H7Y 7170   3.705   1.103   7.143  1.4982 -0.4680  0.8421
   78SLPC   C38 7171   3.537   1.019   7.269  0.1752  0.4892 -0.0311
   78SLPC   H8X 7172   3.603   0.944   7.317 -0.6785 -0.9273 -0.9966
   78SLPC   H8Y 7173   3.440   0.972   7.243 -0.2602  1.1321  0.3756
   78SLPC   C39 7174   3.498   1.143   7.347 -0.1741 -0.2631  0.0351
   78SLPC   H9X 7175   3.584   1.213   7.357 -0.0034 -0.5427  0.6202
   78SLPC   H9Y 7176   3.462   1.118   7.449 -2.1208  0.6398 -0.3883
   78SLPC  C310 7177   3.384   1.221   7.285  0.7372  0.1298 -0.0735
   78SLPC  H10X 7178   3.310   1.152   7.239  1.6452 -1.2441  0.4498
   78SLPC  H10Y 7179   3.435   1.279   7.205  0.8588 -0.0976 -0.1601
   78SLPC  C311 7180   3.321   1.331   7.376 -0.6119  0.0756 -0.2849
   78SLPC  H11X 7181   3.251   1.393   7.315 -0.3531 -0.3481 -1.0205
   78SLPC  H11Y 7182   3.411   1.385   7.413 -0.1041 -0.2090 -1.0925
   78SLPC  C312 7183   3.248   1.273   7.498  0.2309 -0.1807  0.5627
   78SLPC  H12X 7184   3.316   1.220   7.568 -0.6108  0.4489  1.9131
   78SLPC  H12Y 7185   3.167   1.210   7.455  1.2979 -0.3898 -1.2114
   78SLPC  C313 7186   3.182   1.382   7.593  0.1866 -0.6016  0.7948
   78SLPC  H13X 7187   3.117   1.449   7.532  0.3584 -1.5850 -0.5007
   78SLPC  H13Y 7188   3.261   1.450   7.634  0.2259 -0.9095  1.2329
   78SLPC  C314 7189   3.109   1.321   7.708  0.4278  0.6558  0.4997
   78SLPC  H14X 7190   3.177   1.260   7.772  0.8328 -1.5594 -1.8751
   78SLPC  H14Y 7191   3.029   1.258   7.664 -0.0429  1.7644 -0.2773
   78SLPC  C315 7192   3.038   1.430   7.798 -0.4145 -0.2330  1.1347
   78SLPC  H15X 7193   2.968   1.492   7.737  1.0658  0.3540 -0.0270
   78SLPC  H15Y 7194   3.107   1.513   7.826  0.7916 -1.3840  1.6459
   78SLPC  C316 7195   2.966   1.362   7.908 -1.0740  0.0446 -0.1132
   78SLPC  H16X 7196   3.049   1.334   7.976 -0.0744  1.7400 -0.5761
   78SLPC  H16Y 7197   2.919   1.273   7.861  0.6979  0.3931 -2.7345
   78SLPC  C317 7198   2.867   1.446   7.988 -0.8761 -0.7725  0.2669
   78SLPC  H17X 7199   2.795   1.489   7.914 -2.6591 -1.6853  1.3946
   78SLPC  H17Y 7200   2.927   1.528   8.034 -0.5998 -0.1217 -1.1836
   78SLPC  C318 7201   2.807   1.369   8.101  0.1530  0.0945 -0.1952
   78SLPC  H18X 7202   2.770   1.270   8.068  0.0115  0.7347 -2.0486
   78SLPC  H18Y 7203   2.715   1.422   8.132 -0.9303  0.3257 -3.4356
   78SLPC  H18Z 7204   2.877   1.358   8.187 -1.0051 -3.0504  0.4738
   79SLPC     N 7205   6.632   3.950   5.920 -0.0598  0.3341  0.3443
   79SLPC   C13 7206   6.551   3.893   5.809 -0.5709 -0.1571  0.3588
   79SLPC  H13A 7207   6.585   3.937   5.716  1.2282 -0.5356  0.8062
   79SLPC  H13B 7208   6.555   3.785   5.810 -1.8298 -0.2403  2.4732
   79SLPC  H13C 7209   6.449   3.916   5.834 -0.7722 -0.9984  0.3483
   79SLPC   C14 7210   6.645   4.106   5.893 -0.1453 -0.0146  0.3019
   79SLPC  H14A 7211   6.720   4.139   5.964 -0.1051  1.6512 -0.4621
   79SLPC  H14B 7212   6.676   4.122   5.791  0.8173 -2.8530  0.0581
   79SLPC  H14C 7213   6.549   4.150   5.915  0.4471  1.0900  0.7579
   79SLPC   C15 7214   6.763   3.886   5.916 -0.1580  1.4928  0.1531
   79SLPC  H15A 7215   6.761   3.793   5.971  1.3746  2.6472  2.3247
   79SLPC  H15B 7216   6.811   3.869   5.821  0.5966  1.4875  0.5288
   79SLPC  H15C 7217   6.833   3.935   5.982  1.0821  0.4890 -0.3781
   79SLPC   C12 7218   6.571   3.918   6.056 -0.0759 -0.4551 -0.9996
   79SLPC  H12A 7219   6.639   3.960   6.129 -3.1060  3.3775  0.0115
   79SLPC  H12B 7220   6.570   3.813   6.081 -0.1008 -0.1760  0.2544
   79SLPC   C11 7221   6.435   3.990   6.080  0.2360  0.1066 -0.2080
   79SLPC  H11A 7222   6.368   3.950   6.000  2.3225  0.0637 -2.0326
   79SLPC  H11B 7223   6.440   4.101   6.081 -2.6823  0.3292 -0.7236
   79SLPC     P 7224   6.384   4.011   6.343 -0.1771  0.3140  0.8928
   79SLPC   O13 7225   6.391   4.161   6.324  0.5004 -0.0861  0.6634
   79SLPC   O14 7226   6.274   3.954   6.423 -0.7243 -0.2780 -0.0011
   79SLPC   O12 7227   6.383   3.933   6.200  0.2667  0.0430  0.0533
   79SLPC   O11 7228   6.529   3.956   6.398 -0.0340 -0.1504  0.1789
   79SLPC    C1 7229   6.537   3.819   6.436 -0.0656 -0.0100 -0.7957
   79SLPC    HA 7230   6.461   3.755   6.385  1.4851 -3.2614  0.6536
   79SLPC    HB 7231   6.634   3.771   6.411 -0.8800 -3.4427  1.8154
   79SLPC    C2 7232   6.517   3.806   6.587  0.2051  0.0551 -0.2849
   79SLPC    HS 7233   6.409   3.803   6.614  0.6652 -2.2368  1.7356
   79SLPC   O21 7234   6.588   3.910   6.657  0.6252 -0.4103  0.5880
   79SLPC   C21 7235   6.534   3.958   6.770 -0.5729  0.2939  0.4340
   79SLPC   O22 7236   6.422   3.940   6.812 -0.4939 -0.2900  0.5506
   79SLPC   C22 7237   6.639   4.048   6.832  0.9068 -0.4938 -0.4838
   79SLPC   H2R 7238   6.735   3.995   6.850  0.4414 -2.2830 -2.7642
   79SLPC   H2S 7239   6.671   4.120   6.754 -3.0663 -1.0153 -2.8798
   79SLPC    C3 7240   6.593   3.676   6.647  0.7984  0.6692  0.8790
   79SLPC    HX 7241   6.700   3.697   6.628  0.6738  0.0662 -0.6105
   79SLPC    HY 7242   6.567   3.584   6.591  3.2591  1.0715 -1.1198
   79SLPC   O31 7243   6.575   3.663   6.787  0.2178 -0.4619  0.1695
   79SLPC   C31 7244   6.458   3.631   6.835  0.3927 -0.1933 -0.2907
   79SLPC   O32 7245   6.357   3.602   6.771 -0.2955  0.6263  0.0664
   79SLPC   C32 7246   6.459   3.629   6.987 -0.7908 -0.7689  0.8628
   79SLPC   H2X 7247   6.468   3.735   7.018  0.5667 -0.9981  1.3319
   79SLPC   H2Y 7248   6.556   3.579   7.005  0.8752  0.6762 -2.9383
   79SLPC   C23 7249   6.578   4.124   6.953  0.1018 -0.2008 -0.4222
   79SLPC   H3R 7250   6.485   4.172   6.916 -0.4500 -0.9991 -0.0905
   79SLPC   H3S 7251   6.646   4.211   6.965  1.7341 -1.2653 -1.6305
   79SLPC   C24 7252   6.561   4.040   7.074  0.2714  0.5048 -0.0663
   79SLPC   H4R 7253   6.660   3.989   7.077 -0.3953 -0.8872 -0.5249
   79SLPC   H4S 7254   6.480   3.964   7.071  0.6759  0.0867 -1.0276
   79SLPC   C25 7255   6.539   4.130   7.203  0.1388 -0.1879  0.4029
   79SLPC   H5R 7256   6.470   4.216   7.188  1.3869  0.7586 -0.0851
   79SLPC   H5S 7257   6.636   4.173   7.237  0.8633  0.3278 -2.1257
   79SLPC   C26 7258   6.471   4.057   7.328 -0.0863  0.3148 -0.1842
   79SLPC   H6R 7259   6.552   3.988   7.360  2.1247  1.2175 -3.3248
   79SLPC   H6S 7260   6.381   4.007   7.285 -0.4039  1.9894 -1.5657
   79SLPC   C27 7261   6.440   4.148   7.443  0.0434  0.0406  0.1317
   79SLPC   H7R 7262   6.355   4.208   7.403  0.7091 -0.3212 -1.9349
   79SLPC   H7S 7263   6.526   4.215   7.462 -0.4720  0.2010  2.1806
   79SLPC   C28 7264   6.407   4.076   7.570  0.0959 -1.1502  0.2277
   79SLPC   H8R 7265   6.497   4.017   7.595 -0.1890 -1.2233  1.1467
   79SLPC   H8S 7266   6.317   4.018   7.539 -0.1384 -0.0775 -1.2101
   79SLPC   C29 7267   6.371   4.175   7.682 -1.1118  0.0519 -0.6500
   79SLPC   H9R 7268   6.288   4.244   7.659 -2.0616 -0.3226  1.4807
   79SLPC  C210 7269   6.417   4.170   7.808  0.3421 -0.3696 -0.4704
   79SLPC  H10R 7270   6.370   4.239   7.880 -2.1062 -1.1915 -1.1610
   79SLPC  C211 7271   6.509   4.071   7.879 -0.5506 -0.8854  0.2490
   79SLPC  H11R 7272   6.556   3.993   7.816  1.5286  1.0159 -0.6858
   79SLPC  H11S 7273   6.450   4.007   7.949  2.2119 -1.1733  2.5072
   79SLPC  C212 7274   6.622   4.150   7.967  0.8171 -0.3818  0.0350
   79SLPC  H12R 7275   6.649   4.254   7.941 -2.3689  1.0269  1.7322
   79SLPC  C213 7276   6.677   4.104   8.082  0.4706 -0.2232 -0.1479
   79SLPC  H13R 7277   6.754   4.168   8.127  1.2529 -0.0003 -1.7124
   79SLPC  C214 7278   6.633   3.975   8.142  0.2871  0.5432  0.3355
   79SLPC  H14R 7279   6.524   3.955   8.148  0.6261 -2.3799 -1.3364
   79SLPC  H14S 7280   6.665   3.977   8.249 -0.3309 -0.1201  0.5386
   79SLPC  C215 7281   6.713   3.863   8.070  0.8549 -0.0862 -0.8015
   79SLPC  H15R 7282   6.821   3.866   8.096  1.2061  1.1823 -2.2676
   79SLPC  H15S 7283   6.707   3.858   7.959  0.5658  1.2399 -0.8637
   79SLPC  C216 7284   6.681   3.726   8.132 -0.5070 -0.1998 -0.6943
   79SLPC  H16R 7285   6.586   3.682   8.093  1.0288 -4.0390 -0.5498
   79SLPC  H16S 7286   6.678   3.736   8.242 -0.6250  0.7541 -0.7718
   79SLPC  C217 7287   6.789   3.618   8.109 -0.1205 -0.6683 -0.2836
   79SLPC  H17R 7288   6.892   3.650   8.136 -0.1890  0.2386 -1.0591
   79SLPC  H17S 7289   6.791   3.596   8.000  0.1854 -2.2509  0.0086
   79SLPC  C218 7290   6.759   3.492   8.182  0.6085 -0.2211  0.1343
   79SLPC  H18R 7291   6.832   3.410   8.168 -0.4565 -0.9094 -1.7540
   79SLPC  H18S 7292   6.654   3.465   8.159  0.4953  0.4141 -0.1189
   79SLPC  H18T 7293   6.741   3.535   8.284  0.2442 -1.1718  0.4800
   79SLPC   C33 7294   6.353   3.536   7.048 -0.1382  0.0224  0.1587
   79SLPC   H3X 7295   6.334   3.448   6.982 -3.0294  0.8893 -0.3268
   79SLPC   H3Y 7296   6.258   3.593   7.044 -0.3512 -0.3219  0.2814
   79SLPC   C34 7297   6.365   3.511   7.197 -0.5215 -0.3022  1.1385
   79SLPC   H4X 7298   6.443   3.434   7.214  1.6331  1.5571  0.1462
   79SLPC   H4Y 7299   6.264   3.469   7.217 -1.3567  0.5981 -0.9079
   79SLPC   C35 7300   6.372   3.646   7.274  0.0573  0.2631  0.0046
   79SLPC   H5X 7301   6.312   3.728   7.229  1.8808  1.0285 -1.1172
   79SLPC   H5Y 7302   6.476   3.682   7.288 -0.3298  2.5004 -2.1094
   79SLPC   C36 7303   6.335   3.638   7.422  0.4428  0.3831 -0.0423
   79SLPC   H6X 7304   6.421   3.593   7.477  0.2265 -0.0189 -0.0314
   79SLPC   H6Y 7305   6.244   3.575   7.421  0.9136 -0.3232 -1.2766
   79SLPC   C37 7306   6.296   3.765   7.477  0.0009  0.4075 -1.2462
   79SLPC   H7X 7307   6.205   3.798   7.423 -1.0369  0.0003  0.1862
   79SLPC   H7Y 7308   6.380   3.837   7.464 -0.3378  0.8770 -0.8667
   79SLPC   C38 7309   6.258   3.745   7.630 -1.0319 -0.3309 -0.2553
   79SLPC   H8X 7310   6.195   3.655   7.645 -1.2266 -0.5219 -2.0190
   79SLPC   H8Y 7311   6.201   3.837   7.655  1.2803  0.7443  1.4518
   79SLPC   C39 7312   6.385   3.744   7.722  0.1005  0.2019 -0.1875
   79SLPC   H9X 7313   6.403   3.849   7.753  1.2520  0.1356 -0.5553
   79SLPC   H9Y 7314   6.473   3.716   7.659 -1.2176 -0.2257 -1.9233
   79SLPC  C310 7315   6.377   3.653   7.848 -0.3817 -0.2161  0.0310
   79SLPC  H10X 7316   6.481   3.633   7.880 -1.0609 -1.0332  1.8668
   79SLPC  H10Y 7317   6.337   3.554   7.818 -1.4673 -0.1941  1.2852
   79SLPC  C311 7318   6.292   3.717   7.964 -0.3071  0.3412  0.9413
   79SLPC  H11X 7319   6.203   3.757   7.912  1.6585 -0.4094 -3.4569
   79SLPC  H11Y 7320   6.349   3.805   8.000 -1.4126  0.9889  1.1497
   79SLPC  C312 7321   6.247   3.618   8.072  1.0643  0.2479  0.2264
   79SLPC  H12X 7322   6.182   3.540   8.028 -0.8026  1.6094  0.4492
   79SLPC  H12Y 7323   6.178   3.670   8.143 -0.8273  2.1772 -2.7989
   79SLPC  C313 7324   6.344   3.552   8.161  0.0595  0.4817  0.5005
   79SLPC  H13X 7325   6.403   3.634   8.209  2.1533  0.7306 -2.2523
   79SLPC  H13Y 7326   6.415   3.499   8.093 -0.5878  0.9581 -0.5634
   79SLPC  C314 7327   6.279   3.460   8.263 -0.3598  0.1506  0.2635
   79SLPC  H14X 7328   6.341   3.371   8.287 -1.6476 -0.3428  1.9741
   79SLPC  H14Y 7329   6.176   3.432   8.232 -0.3043  0.3485 -0.1001
   79SLPC  C315 7330   6.263   3.511   8.412 -0.0564 -0.2299  0.2965
   79SLPC  H15X 7331   6.209   3.608   8.420 -0.1753 -0.4483  3.5497
   79SLPC  H15Y 7332   6.366   3.525   8.452  1.3491 -0.5360 -2.9712
   79SLPC  C316 7333   6.181   3.422   8.509 -0.1231 -0.1040  1.7272
   79SLPC  H16X 7334   6.219   3.318   8.514 -2.9674 -1.2691  0.7491
   79SLPC  H16Y 7335   6.074   3.420   8.481 -0.0598 -0.5552  1.5119
   79SLPC  C317 7336   6.183   3.465   8.653  0.0318 -0.7204 -0.1162
   79SLPC  H17X 7337   6.149   3.570   8.661  0.2252 -0.7017  0.5207
   79SLPC  H17Y 7338   6.286   3.464   8.695  0.0787  1.9731  0.0457
   79SLPC  C318 7339   6.092   3.380   8.747 -0.0015 -0.0635 -0.1322
   79SLPC  H18X 7340   6.129   3.276   8.757 -1.8469 -1.0145 -2.2467
   79SLPC  H18Y 7341   5.993   3.362   8.701  0.3978 -2.4182 -0.1850
   79SLPC  H18Z 7342   6.066   3.420   8.847  1.7042  1.4643 -0.2448
   80SLPC     N 7343   0.865   5.070   6.393 -0.1367  0.1903  0.0044
   80SLPC   C13 7344   0.790   5.112   6.514 -0.2155  0.0911 -0.3995
   80SLPC  H13A 7345   0.817   5.047   6.596 -1.7671 -1.4520 -1.0522
   80SLPC  H13B 7346   0.823   5.212   6.541  1.4466 -0.1796 -1.3015
   80SLPC  H13C 7347   0.682   5.107   6.512 -0.3140  0.5922  1.3763
   80SLPC   C14 7348   0.815   5.143   6.277  0.2450  0.0872  0.6390
   80SLPC  H14A 7349   0.867   5.112   6.188  2.1954 -0.2598  1.8469
   80SLPC  H14B 7350   0.711   5.127   6.252  0.3184  1.0006 -0.3164
   80SLPC  H14C 7351   0.831   5.249   6.294  2.2696 -0.6054  4.1389
   80SLPC   C15 7352   0.827   4.931   6.373 -0.9105  0.8925 -0.5384
   80SLPC  H15A 7353   0.885   4.887   6.293  1.3041  0.4653  1.1824
   80SLPC  H15B 7354   0.853   4.874   6.461 -0.9911  0.7556 -0.6045
   80SLPC  H15C 7355   0.722   4.925   6.351 -1.1004 -1.1311  0.7587
   80SLPC   C12 7356   1.019   5.090   6.405 -0.1583 -0.3820 -0.2737
   80SLPC  H12A 7357   1.062   5.034   6.324 -0.7129 -1.4122  0.1165
   80SLPC  H12B 7358   1.057   5.038   6.492 -0.3435 -1.7937 -1.0166
   80SLPC   C11 7359   1.077   5.235   6.409  0.0042 -0.7093 -0.1368
   80SLPC  H11A 7360   1.076   5.280   6.308 -0.3520  0.1964  0.2568
   80SLPC  H11B 7361   1.185   5.229   6.435 -0.4579  0.4981  2.3874
   80SLPC     P 7362   0.984   5.465   6.481  0.0625  0.0198  0.1935
   80SLPC   O13 7363   1.122   5.522   6.461 -0.0137 -0.1390 -0.0881
   80SLPC   O14 7364   0.891   5.495   6.369  0.5446 -0.4820 -0.0996
   80SLPC   O12 7365   1.000   5.309   6.501 -0.3145  0.3711 -0.3428
   80SLPC   O11 7366   0.917   5.518   6.612  0.3584  0.5759  0.2629
   80SLPC    C1 7367   0.768   5.508   6.619 -1.3963  0.2268 -0.6524
   80SLPC    HA 7368   0.724   5.597   6.569 -0.1172 -0.2133 -2.6748
   80SLPC    HB 7369   0.729   5.416   6.570  0.1404 -0.1338 -1.2567
   80SLPC    C2 7370   0.707   5.511   6.761 -0.2638 -0.4995  0.1748
   80SLPC    HS 7371   0.600   5.537   6.749 -0.2640 -0.0896  0.9605
   80SLPC   O21 7372   0.783   5.599   6.849 -0.6798  0.1605  0.2120
   80SLPC   C21 7373   0.753   5.729   6.834 -0.2867 -0.1598 -0.1023
   80SLPC   O22 7374   0.672   5.776   6.758 -0.2954  0.0042  0.6537
   80SLPC   C22 7375   0.846   5.808   6.919  0.1117  0.1040  0.8457
   80SLPC   H2R 7376   0.920   5.748   6.977 -0.2326  0.0747  1.2592
   80SLPC   H2S 7377   0.914   5.868   6.854  0.1184 -1.3402 -0.5555
   80SLPC    C3 7378   0.699   5.375   6.839 -0.0630 -0.0798  0.1895
   80SLPC    HX 7379   0.799   5.327   6.830  0.3831  0.8604 -0.0089
   80SLPC    HY 7380   0.642   5.304   6.776  1.3848  0.0349 -1.3098
   80SLPC   O31 7381   0.674   5.385   6.980  0.1889  0.3217 -0.2716
   80SLPC   C31 7382   0.549   5.338   7.019 -0.2072 -0.0642  0.0338
   80SLPC   O32 7383   0.460   5.306   6.942 -0.0761 -0.4146 -0.0567
   80SLPC   C32 7384   0.539   5.341   7.167  0.4244  0.5043  0.0455
   80SLPC   H2X 7385   0.497   5.443   7.181  1.5921  1.0197 -0.0974
   80SLPC   H2Y 7386   0.641   5.340   7.211  0.2121  1.1697  0.5791
   80SLPC   C23 7387   0.755   5.899   7.009  0.3913 -0.1555  0.2034
   80SLPC   H3R 7388   0.685   5.966   6.955 -0.0902 -1.1707 -0.4603
   80SLPC   H3S 7389   0.825   5.963   7.067 -0.7518  0.3153  1.1129
   80SLPC   C24 7390   0.681   5.815   7.115 -0.0947  0.4472  0.3707
   80SLPC   H4R 7391   0.625   5.736   7.061 -1.9483  1.1192  1.2430
   80SLPC   H4S 7392   0.604   5.882   7.158 -1.2073 -1.5454  1.6230
   80SLPC   C25 7393   0.768   5.769   7.232 -0.1055 -0.2776  0.0629
   80SLPC   H5R 7394   0.812   5.852   7.291 -0.9444 -0.2971  0.7494
   80SLPC   H5S 7395   0.853   5.706   7.201  0.3144 -1.2210  2.8304
   80SLPC   C26 7396   0.700   5.688   7.344  0.1466 -0.5134 -0.2218
   80SLPC   H6R 7397   0.644   5.599   7.308  0.2020 -1.7611  2.5287
   80SLPC   H6S 7398   0.634   5.754   7.404 -1.7575 -1.6912 -0.9174
   80SLPC   C27 7399   0.806   5.637   7.448  0.4193 -0.0921  0.4910
   80SLPC   H7R 7400   0.873   5.720   7.476 -1.7884  2.2415 -0.7360
   80SLPC   H7S 7401   0.876   5.563   7.405  0.1219 -1.0376  1.5657
   80SLPC   C28 7402   0.733   5.575   7.565 -0.6280 -0.8205 -0.2719
   80SLPC   H8R 7403   0.804   5.505   7.613 -0.6063 -1.4047 -1.1302
   80SLPC   H8S 7404   0.651   5.512   7.525 -1.9761  0.2457  0.7662
   80SLPC   C29 7405   0.690   5.674   7.669 -0.1402  0.4017 -0.1574
   80SLPC   H9R 7406   0.748   5.765   7.688  1.4257 -0.6797  0.4948
   80SLPC  C210 7407   0.581   5.659   7.742 -0.2854 -0.2122 -0.0833
   80SLPC  H10R 7408   0.536   5.737   7.804 -1.5121 -1.0273  0.0961
   80SLPC  C211 7409   0.474   5.546   7.747 -0.1750  0.0655 -0.4386
   80SLPC  H11R 7410   0.418   5.539   7.651  0.4417 -0.4472 -0.7788
   80SLPC  H11S 7411   0.407   5.568   7.832 -0.4469  0.3741 -0.7293
   80SLPC  C212 7412   0.531   5.403   7.778 -0.2480  0.0543 -0.4450
   80SLPC  H12R 7413   0.572   5.346   7.694  0.2144 -0.4783  0.1285
   80SLPC  C213 7414   0.537   5.343   7.905 -0.0915 -0.5819 -0.1994
   80SLPC  H13R 7415   0.568   5.238   7.913  1.1436 -0.4196 -2.1326
   80SLPC  C214 7416   0.493   5.397   8.038  0.0180 -0.3285  0.2814
   80SLPC  H14R 7417   0.399   5.351   8.076 -0.6100  0.8476  0.2098
   80SLPC  H14S 7418   0.473   5.506   8.030 -1.4636 -0.6965 -1.8541
   80SLPC  C215 7419   0.601   5.396   8.142  0.2664 -0.8181 -0.7667
   80SLPC  H15R 7420   0.668   5.477   8.105 -0.1214 -1.6543 -3.5368
   80SLPC  H15S 7421   0.645   5.294   8.145 -1.3952 -1.5542  0.9458
   80SLPC  C216 7422   0.544   5.447   8.278  0.1140  0.3058  0.3709
   80SLPC  H16R 7423   0.628   5.463   8.348  1.5570  0.0601 -1.2456
   80SLPC  H16S 7424   0.498   5.355   8.320  0.9284 -0.8471 -1.1758
   80SLPC  C217 7425   0.435   5.562   8.276 -0.5428 -0.0192  0.0246
   80SLPC  H17R 7426   0.387   5.559   8.376  0.1118 -0.4561  0.3316
   80SLPC  H17S 7427   0.362   5.542   8.195  2.4352  2.0514 -3.5118
   80SLPC  C218 7428   0.489   5.703   8.251 -0.1432  0.9407  0.1745
   80SLPC  H18R 7429   0.557   5.704   8.164 -0.0710  0.2596  0.2151
   80SLPC  H18S 7430   0.539   5.746   8.340 -0.3805  0.2141  0.6773
   80SLPC  H18T 7431   0.415   5.782   8.230  0.1098  1.3213  0.6980
   80SLPC   C33 7432   0.435   5.246   7.218 -0.6605  0.3866  0.1764
   80SLPC   H3X 7433   0.463   5.139   7.210  0.8687  0.6575  1.4258
   80SLPC   H3Y 7434   0.342   5.267   7.160 -0.5448  1.6776  0.4330
   80SLPC   C34 7435   0.406   5.251   7.368  0.5582  0.4829  0.4102
   80SLPC   H4X 7436   0.368   5.347   7.409  0.0191  0.5936 -0.3386
   80SLPC   H4Y 7437   0.509   5.245   7.409  1.0027 -0.0553 -0.7456
   80SLPC   C35 7438   0.327   5.131   7.408  0.1774  0.2877 -0.7463
   80SLPC   H5X 7439   0.394   5.043   7.394  1.4593  0.8879  1.1564
   80SLPC   H5Y 7440   0.235   5.104   7.352 -2.1792  2.2649  1.9145
   80SLPC   C36 7441   0.303   5.133   7.562  0.2490  0.2159  0.2969
   80SLPC   H6X 7442   0.259   5.229   7.596 -1.4820 -0.7073  0.8035
   80SLPC   H6Y 7443   0.395   5.121   7.624  0.6838 -1.8399 -0.6518
   80SLPC   C37 7444   0.201   5.022   7.598 -0.3330 -0.3365 -0.1890
   80SLPC   H7X 7445   0.237   4.924   7.561  2.4190 -0.5845  2.6866
   80SLPC   H7Y 7446   0.112   5.038   7.533 -0.7620 -0.6429  0.3141
   80SLPC   C38 7447   0.166   5.024   7.748 -0.6436 -0.1687  0.2418
   80SLPC   H8X 7448   0.095   4.943   7.776 -0.0530 -1.1149 -0.8974
   80SLPC   H8Y 7449   0.131   5.129   7.762  1.0917  0.6547 -1.2014
   80SLPC   C39 7450   0.279   4.995   7.845 -0.5400 -0.5425 -0.7259
   80SLPC   H9X 7451   0.365   5.066   7.844 -0.7521  0.3285  5.0111
   80SLPC   H9Y 7452   0.320   4.892   7.835 -0.8827 -0.7325 -0.2065
   80SLPC  C310 7453   0.224   5.003   7.995 -0.2515  0.1544  1.1938
   80SLPC  H10X 7454   0.147   4.923   8.005  1.0732 -1.4390 -0.5941
   80SLPC  H10Y 7455   0.173   5.101   7.999  0.6592  0.8207 -1.5249
   80SLPC  C311 7456   0.338   4.983   8.090  0.3119 -0.3776  0.5898
   80SLPC  H11X 7457   0.429   5.047   8.089  1.0450 -1.4085 -0.2251
   80SLPC  H11Y 7458   0.375   4.880   8.071  2.1746  0.5267 -1.1732
   80SLPC  C312 7459   0.290   4.988   8.242 -1.0497 -0.0762  0.4730
   80SLPC  H12X 7460   0.375   4.953   8.303  0.1010  3.5164  1.1921
   80SLPC  H12Y 7461   0.205   4.918   8.253 -2.8894  1.6339 -1.7003
   80SLPC  C313 7462   0.254   5.117   8.305  0.4019  0.4772 -0.6691
   80SLPC  H13X 7463   0.154   5.153   8.272  0.3917  2.9268  1.6241
   80SLPC  H13Y 7464   0.336   5.185   8.275  0.5812 -0.2594 -1.8872
   80SLPC  C314 7465   0.240   5.100   8.456 -0.4331 -1.1223 -0.0967
   80SLPC  H14X 7466   0.322   5.040   8.500 -0.4380 -1.0370  0.0312
   80SLPC  H14Y 7467   0.152   5.035   8.472 -1.5657  0.7857  2.0329
   80SLPC  C315 7468   0.212   5.231   8.533  0.0987 -0.1637  0.6433
   80SLPC  H15X 7469   0.113   5.263   8.494  1.2646  1.4998 -1.1496
   80SLPC  H15Y 7470   0.294   5.301   8.508 -2.0394  2.2069 -0.1792
   80SLPC  C316 7471   0.203   5.216   8.686 -0.4320 -0.5912 -0.8747
   80SLPC  H16X 7472   0.125   5.139   8.704 -0.9164  0.1938  0.4752
   80SLPC  H16Y 7473   0.173   5.315   8.727 -0.1401 -1.1583  0.7920
   80SLPC  C317 7474   0.326   5.169   8.767 -0.1586 -0.6063 -0.3748
   80SLPC  H17X 7475   0.420   5.218   8.734 -1.0100 -0.5201 -2.8748
   80SLPC  H17Y 7476   0.351   5.063   8.747  0.4241 -0.8259  1.3143
   80SLPC  C318 7477   0.308   5.202   8.921 -0.1158 -0.4005 -0.0112
   80SLPC  H18X 7478   0.280   5.310   8.919  2.1139  0.2455 -2.7388
   80SLPC  H18Y 7479   0.393   5.181   8.989 -0.7979 -2.1496  0.3536
   80SLPC  H18Z 7480   0.219   5.144   8.954 -0.3176 -1.7066 -2.6311
   81SAPS     N 7481   2.928   1.647  10.958 -0.0413 -0.7068  0.5181
   81SAPS   HN1 7482   2.889   1.676  11.050 -1.7681 -2.7803  0.5073
   81SAPS   HN2 7483   3.023   1.685  10.940 -1.1488  1.0616 -2.2349
   81SAPS   HN3 7484   2.870   1.683  10.880  1.7119  0.2254 -0.4230
   81SAPS   C12 7485   2.922   1.497  10.955 -0.3646  0.2876  0.1858
   81SAPS  H12A 7486   2.972   1.460  11.043  0.6770  2.1579  0.4285
   81SAPS   C13 7487   2.782   1.437  10.962 -0.1637  0.5943  0.8939
   81SAPS  O13A 7488   2.682   1.510  10.962  0.0438 -0.2109 -0.6265
   81SAPS  O13B 7489   2.767   1.314  10.992  0.1771  0.4288  0.2106
   81SAPS   C11 7490   2.989   1.451  10.827 -0.5090  0.8548  0.1915
   81SAPS  H11A 7491   2.928   1.500  10.747 -1.0052 -1.7104 -1.1107
   81SAPS  H11B 7492   2.974   1.343  10.810 -2.6128  1.4186 -2.1975
   81SAPS     P 7493   3.246   1.424  10.883 -0.1999 -0.0802 -0.1381
   81SAPS   O13 7494   3.335   1.535  10.930 -0.6344  0.9066  0.0177
   81SAPS   O14 7495   3.212   1.325  10.984 -0.4081 -0.1861  0.0761
   81SAPS   O12 7496   3.124   1.486  10.799 -0.2579 -0.2422  0.2791
   81SAPS   O11 7497   3.330   1.345  10.778  0.0327  0.3374  0.2866
   81SAPS    C1 7498   3.254   1.265  10.685  0.2710  0.2038  0.7987
   81SAPS    HA 7499   3.172   1.208  10.735  0.2403  0.2892  0.8463
   81SAPS    HB 7500   3.207   1.334  10.612 -1.7870 -2.1533 -0.2605
   81SAPS    C2 7501   3.342   1.169  10.596 -0.2536 -0.2594 -0.1908
   81SAPS    HS 7502   3.387   1.089  10.659 -1.3390  0.7865  2.0349
   81SAPS   O21 7503   3.444   1.248  10.520  0.1613 -0.2431 -0.0151
   81SAPS   C21 7504   3.541   1.174  10.469 -0.0752  0.0367 -0.2790
   81SAPS   O22 7505   3.550   1.052  10.472 -0.0361  0.0885 -0.1559
   81SAPS   C22 7506   3.645   1.275  10.420 -0.2281 -0.5906  0.2630
   81SAPS   H2R 7507   3.620   1.285  10.312 -1.5071  1.6508  0.7070
   81SAPS   H2S 7508   3.636   1.374  10.469  3.6505  0.5529 -1.0044
   81SAPS    C3 7509   3.240   1.104  10.494  0.0877 -0.2756 -0.1990
   81SAPS    HX 7510   3.190   1.030  10.560 -3.2431 -0.3073 -2.5029
   81SAPS    HY 7511   3.296   1.049  10.415 -1.0415  0.0675 -1.2622
   81SAPS   O31 7512   3.150   1.205  10.442  0.0791 -0.1525  0.2692
   81SAPS   C31 7513   3.184   1.249  10.320  0.3198  0.1150  0.2198
   81SAPS   O32 7514   3.285   1.213  10.261 -0.2190 -0.0834 -0.6459
   81SAPS   C32 7515   3.076   1.336  10.266  0.3631  0.3524  0.3729
   81SAPS   H2X 7516   3.111   1.441  10.280  1.5954 -0.0609  0.4957
   81SAPS   H2Y 7517   2.986   1.318  10.328 -0.2506  1.8515 -0.0366
   81SAPS   C23 7518   3.793   1.231  10.442 -0.3545  0.9338 -0.1798
   81SAPS   H3R 7519   3.799   1.131  10.395 -0.1955  0.0577  1.6045
   81SAPS   H3S 7520   3.826   1.212  10.547 -1.0106  0.0184 -0.1293
   81SAPS   C24 7521   3.897   1.312  10.364 -0.1095  0.0021 -0.0352
   81SAPS   H4R 7522   3.892   1.418  10.398 -1.0099 -0.5014  1.4881
   81SAPS   H4S 7523   3.870   1.310  10.256  0.1184 -4.3905 -0.1906
   81SAPS   C25 7524   4.038   1.265  10.391  0.0169  0.2789 -1.0615
   81SAPS   H5R 7525   4.059   1.234  10.495  1.4481 -0.2278 -1.4809
   81SAPS   C26 7526   4.129   1.251  10.298  0.6166 -0.3279 -0.3139
   81SAPS   H6R 7527   4.230   1.235  10.338  0.7722  3.1790  1.0550
   81SAPS   C27 7528   4.114   1.274  10.147  0.6984  0.2765 -0.6956
   81SAPS   H7R 7529   4.008   1.259  10.119  0.2067  2.5714 -0.2871
   81SAPS   H7S 7530   4.169   1.193  10.094 -0.3180  0.2783 -1.7968
   81SAPS   C28 7531   4.170   1.409  10.094 -0.2030  1.0904 -0.1848
   81SAPS   H8R 7532   4.245   1.458  10.158  0.1272  0.2146  0.1005
   81SAPS   C29 7533   4.141   1.492   9.986  0.2363  0.4728  0.5000
   81SAPS   H9R 7534   4.196   1.587   9.984  1.5926 -0.2878  0.0660
   81SAPS  C210 7535   4.034   1.459   9.885  0.0542 -0.8277 -0.1315
   81SAPS  H10R 7536   3.976   1.369   9.913  0.3600 -0.6459  1.1653
   81SAPS  H10S 7537   4.083   1.432   9.789  2.6966  0.2062  0.8381
   81SAPS  C211 7538   3.932   1.575   9.864 -0.2226 -0.0903  0.2957
   81SAPS  H11R 7539   3.920   1.639   9.953 -0.4282  1.1981 -0.6244
   81SAPS  C212 7540   3.875   1.625   9.754 -0.6346 -0.0154  0.7039
   81SAPS  H12R 7541   3.798   1.703   9.766  1.0415  1.5208  1.9104
   81SAPS  C213 7542   3.899   1.562   9.618 -0.1424  0.0036 -0.4548
   81SAPS  H13R 7543   3.813   1.501   9.585 -0.0052 -0.3378 -0.1830
   81SAPS  H13S 7544   3.989   1.498   9.614  0.1098  0.4046 -1.3745
   81SAPS  C214 7545   3.918   1.677   9.520 -0.2462  0.2039  0.2349
   81SAPS  H14R 7546   4.006   1.737   9.548 -0.3523  1.7928 -2.5219
   81SAPS  C215 7547   3.843   1.713   9.411  0.4231  0.1412 -0.9058
   81SAPS  H15R 7548   3.875   1.795   9.344 -0.9116  0.5325 -1.0877
   81SAPS  C216 7549   3.727   1.646   9.355 -0.1968  0.5430 -0.2762
   81SAPS  H16R 7550   3.648   1.722   9.334 -1.2029 -0.4965 -0.3727
   81SAPS  H16S 7551   3.688   1.580   9.436  0.8421  3.2033  2.5691
   81SAPS  C217 7552   3.761   1.549   9.235 -0.1883 -0.2333 -0.5435
   81SAPS  H17R 7553   3.683   1.470   9.225 -0.2576  0.1232 -4.1016
   81SAPS  H17S 7554   3.853   1.502   9.275 -0.0299  1.0774  0.7000
   81SAPS  C218 7555   3.799   1.621   9.101  0.2209 -0.0991  0.6779
   81SAPS  H18R 7556   3.859   1.548   9.042 -0.2199 -0.5991  0.8414
   81SAPS  H18S 7557   3.869   1.702   9.129  1.5005 -0.7573 -0.4907
   81SAPS  C219 7558   3.680   1.670   9.010 -0.7424  0.2378  0.4791
   81SAPS  H19R 7559   3.620   1.744   9.068 -1.1543  0.5879 -0.3803
   81SAPS  H19S 7560   3.618   1.579   8.994 -2.0347  1.1772 -0.0108
   81SAPS  C220 7561   3.722   1.744   8.881 -0.3446 -0.0631 -0.5672
   81SAPS  H20R 7562   3.762   1.674   8.804  0.0902  1.5225 -1.8355
   81SAPS  H20S 7563   3.806   1.815   8.896 -2.4916  2.3179  0.8887
   81SAPS  H20T 7564   3.636   1.804   8.843  0.2879  0.7357 -0.7653
   81SAPS   C33 7565   3.035   1.309  10.118  0.4421 -0.3501 -0.6920
   81SAPS   H3X 7566   3.040   1.199  10.102  2.1363 -0.2352 -1.1974
   81SAPS   H3Y 7567   3.104   1.359  10.046 -0.4947  0.4939 -1.0363
   81SAPS   C34 7568   2.887   1.358  10.089  0.7957  1.4554  0.6060
   81SAPS   H4X 7569   2.883   1.466  10.061 -0.1164  0.8307 -1.9691
   81SAPS   H4Y 7570   2.826   1.353  10.181  0.1406  2.8220  0.2797
   81SAPS   C35 7571   2.826   1.288   9.962 -0.2148 -0.1031 -0.1791
   81SAPS   H5X 7572   2.718   1.311   9.954  0.0112  0.9001 -0.3834
   81SAPS   H5Y 7573   2.847   1.179   9.966  0.0140 -0.0363  0.6112
   81SAPS   C36 7574   2.898   1.333   9.828 -0.0760  0.0280 -0.4239
   81SAPS   H6X 7575   3.009   1.330   9.837 -0.1491 -0.5689  0.3626
   81SAPS   H6Y 7576   2.883   1.442   9.807 -0.1646  0.2991  0.9758
   81SAPS   C37 7577   2.843   1.262   9.705 -0.4047 -0.1720  0.2413
   81SAPS   H7X 7578   2.735   1.283   9.686  0.2879 -0.0735 -5.0040
   81SAPS   H7Y 7579   2.862   1.153   9.714 -1.8530 -0.3523  1.7051
   81SAPS   C38 7580   2.907   1.306   9.575 -0.4367 -0.7051 -0.6613
   81SAPS   H8X 7581   3.016   1.283   9.585 -0.3957  0.3310  2.7812
   81SAPS   H8Y 7582   2.902   1.417   9.564 -0.3945 -0.8472 -2.4059
   81SAPS   C39 7583   2.846   1.260   9.441  0.0404  0.0037 -0.2037
   81SAPS   H9X 7584   2.735   1.264   9.437  0.0289  0.4653  0.5405
   81SAPS   H9Y 7585   2.869   1.151   9.435  2.7615  0.4734  0.2675
   81SAPS  C310 7586   2.902   1.344   9.320 -0.5450  0.5083  0.4460
   81SAPS  H10X 7587   3.009   1.368   9.343 -0.3888  0.3810 -0.1359
   81SAPS  H10Y 7588   2.848   1.440   9.310  0.6204  0.9592 -3.0075
   81SAPS  C311 7589   2.893   1.281   9.182  0.6344 -0.3422  0.8490
   81SAPS  H11X 7590   2.790   1.245   9.162 -0.3599  2.9478 -0.5137
   81SAPS  H11Y 7591   2.965   1.196   9.182  0.1960 -0.7385 -0.7190
   81SAPS  C312 7592   2.920   1.378   9.068 -0.8735  0.3322  0.2178
   81SAPS  H12X 7593   2.947   1.318   8.978 -0.2358  1.2757 -0.2376
   81SAPS  H12Y 7594   2.995   1.452   9.101 -1.9287  0.8002  1.6663
   81SAPS  C313 7595   2.798   1.461   9.024  0.1788  0.7806 -0.1805
   81SAPS  H13X 7596   2.782   1.532   9.109  1.0701  0.3636  0.3586
   81SAPS  H13Y 7597   2.704   1.404   9.017 -0.4762  2.0470 -2.7267
   81SAPS  C314 7598   2.823   1.546   8.898  0.6213  0.1402 -0.5957
   81SAPS  H14X 7599   2.919   1.600   8.909  0.0074  0.9808  1.0092
   81SAPS  H14Y 7600   2.753   1.632   8.896  0.8254  0.2948 -1.3893
   81SAPS  C315 7601   2.802   1.475   8.765 -0.3788 -0.4642  0.4794
   81SAPS  H15X 7602   2.693   1.487   8.748 -0.8419 -0.6683  2.9163
   81SAPS  H15Y 7603   2.836   1.369   8.764  1.7634  0.1555 -0.8495
   81SAPS  C316 7604   2.878   1.535   8.645 -0.1553 -0.3281 -0.2605
   81SAPS  H16X 7605   2.859   1.644   8.659  0.8866 -0.3171  1.4596
   81SAPS  H16Y 7606   2.839   1.503   8.547 -1.1926 -0.1865  0.0966
   81SAPS  C317 7607   3.029   1.504   8.663 -0.3945 -0.7139  0.4737
   81SAPS  H17X 7608   3.049   1.397   8.687  2.2458 -0.1277  1.1480
   81SAPS  H17Y 7609   3.049   1.547   8.764 -1.1009 -1.5029  0.9639
   81SAPS  C318 7610   3.110   1.567   8.549 -0.0486 -0.0638  0.4470
   81SAPS  H18X 7611   3.211   1.601   8.579 -0.4575  1.2786  0.3708
   81SAPS  H18Y 7612   3.061   1.666   8.537  2.8163  1.4721  0.7606
   81SAPS  H18Z 7613   3.116   1.503   8.459  2.6155  0.1647  0.3972
   82SAPS     N 7614   2.208   0.976  11.126  0.5997 -0.2562  0.0566
   82SAPS   HN1 7615   2.125   0.934  11.171 -0.1864  1.6665  0.4973
   82SAPS   HN2 7616   2.206   0.937  11.029  1.7654 -1.9793  0.6839
   82SAPS   HN3 7617   2.296   0.948  11.174  0.6113  1.5466  1.1886
   82SAPS   C12 7618   2.178   1.121  11.117  1.0557 -0.0162 -0.1794
   82SAPS  H12A 7619   2.128   1.154  11.207 -1.0474  0.9965 -1.6418
   82SAPS   C13 7620   2.298   1.212  11.086 -0.0827 -0.4834  0.7894
   82SAPS  O13A 7621   2.414   1.165  11.080 -0.0994  0.7392  0.0713
   82SAPS  O13B 7622   2.273   1.335  11.099 -0.3419 -0.4972  0.7123
   82SAPS   C11 7623   2.078   1.136  10.993 -0.0453  0.0524  0.2923
   82SAPS  H11A 7624   2.128   1.120  10.895 -1.1317 -3.7034  0.2099
   82SAPS  H11B 7625   2.039   1.240  10.989  0.4586  0.2233 -0.2313
   82SAPS     P 7626   1.814   1.058  10.996 -0.3774 -0.2578  0.2459
   82SAPS   O13 7627   1.749   0.925  10.989  0.0350  0.0163 -0.2815
   82SAPS   O14 7628   1.776   1.149  11.109  0.3108 -0.1801 -0.2939
   82SAPS   O12 7629   1.970   1.041  10.989  0.3082  0.4527 -0.3975
   82SAPS   O11 7630   1.775   1.140  10.869 -0.4631 -0.2502 -0.0227
   82SAPS    C1 7631   1.847   1.134  10.748  0.3932 -0.5062 -0.1172
   82SAPS    HA 7632   1.927   1.057  10.751  0.7464 -0.1510 -0.4744
   82SAPS    HB 7633   1.785   1.109  10.659 -0.0377 -0.5967  0.2031
   82SAPS    C2 7634   1.906   1.274  10.716 -0.7562 -0.6365  0.4069
   82SAPS    HS 7635   1.961   1.307  10.806  0.9890 -0.3839 -0.6946
   82SAPS   O21 7636   1.793   1.360  10.688 -0.3407  0.8178 -0.8629
   82SAPS   C21 7637   1.827   1.490  10.678  0.2233 -0.5152 -0.6753
   82SAPS   O22 7638   1.931   1.545  10.700  0.1627  0.6206  0.0924
   82SAPS   C22 7639   1.705   1.567  10.627  0.2066  0.8792  0.0336
   82SAPS   H2R 7640   1.618   1.499  10.614  1.9473 -1.1488 -1.6103
   82SAPS   H2S 7641   1.685   1.648  10.701  2.1331  2.6725 -1.3066
   82SAPS    C3 7642   2.007   1.277  10.600  0.0525  0.6763  0.1895
   82SAPS    HX 7643   2.089   1.204  10.616  0.0202  0.4785 -0.5142
   82SAPS    HY 7644   2.047   1.378  10.576  2.5578 -0.5137 -1.0183
   82SAPS   O31 7645   1.945   1.214  10.480 -0.1299  0.4802 -0.5775
   82SAPS   C31 7646   2.022   1.233  10.366 -0.3503 -0.7196  0.6412
   82SAPS   O32 7647   2.126   1.291  10.360  0.5966 -0.1535  0.2371
   82SAPS   C32 7648   1.954   1.170  10.249 -0.4225  0.2546 -0.2535
   82SAPS   H2X 7649   1.843   1.160  10.253 -0.5393 -0.0482 -2.8335
   82SAPS   H2Y 7650   1.979   1.062  10.251  0.4589  0.4576  0.6385
   82SAPS   C23 7651   1.728   1.643  10.496 -0.2341 -0.8568  0.2021
   82SAPS   H3R 7652   1.803   1.724  10.509 -3.7800  2.3948  2.6847
   82SAPS   H3S 7653   1.642   1.706  10.465  0.3984 -0.9212 -1.8320
   82SAPS   C24 7654   1.775   1.550  10.385  0.8931 -0.0667 -0.0461
   82SAPS   H4R 7655   1.868   1.503  10.424  0.1362 -0.0428  1.9121
   82SAPS   H4S 7656   1.799   1.619  10.301 -2.4614 -0.9629 -1.9003
   82SAPS   C25 7657   1.681   1.446  10.326  0.6031  0.7002 -0.3090
   82SAPS   H5R 7658   1.644   1.372  10.398 -1.1751  1.5220 -0.3175
   82SAPS   C26 7659   1.647   1.433  10.197 -0.5349 -0.0614 -0.3326
   82SAPS   H6R 7660   1.573   1.356  10.170  1.5221 -1.9527 -0.9546
   82SAPS   C27 7661   1.701   1.511  10.082  0.2591  0.0093 -0.5998
   82SAPS   H7R 7662   1.696   1.438   9.999 -1.1176  0.4086 -0.9011
   82SAPS   H7S 7663   1.807   1.540  10.097  0.0488 -0.4007  2.3698
   82SAPS   C28 7664   1.631   1.642  10.042  0.1679  0.6386 -0.6993
   82SAPS   H8R 7665   1.591   1.705  10.123 -0.1681  1.4991 -1.5068
   82SAPS   C29 7666   1.613   1.684   9.918  0.5154  0.5044 -0.1444
   82SAPS   H9R 7667   1.546   1.770   9.905  0.4919  0.2354 -2.1520
   82SAPS  C210 7668   1.657   1.618   9.789 -0.1655  0.3317 -0.0922
   82SAPS  H10R 7669   1.749   1.556   9.799 -0.4273 -0.6843 -2.9701
   82SAPS  H10S 7670   1.678   1.695   9.711  1.5707 -1.1118 -1.1236
   82SAPS  C211 7671   1.556   1.529   9.725 -0.4751  0.2642  0.5223
   82SAPS  H11R 7672   1.523   1.451   9.796  1.8065 -1.9927 -0.7304
   82SAPS  C212 7673   1.510   1.509   9.599 -0.1099  0.3472 -0.0977
   82SAPS  H12R 7674   1.438   1.426   9.597 -0.4563  0.4622  2.6677
   82SAPS  C213 7675   1.546   1.576   9.472 -0.1978 -0.4780 -0.1455
   82SAPS  H13R 7676   1.649   1.615   9.486 -0.1146 -1.1789  1.5425
   82SAPS  H13S 7677   1.480   1.665   9.468 -0.0251 -0.3696 -0.6191
   82SAPS  C214 7678   1.557   1.483   9.353 -0.1717 -0.1520 -0.6499
   82SAPS  H14R 7679   1.651   1.427   9.337 -0.8375 -0.9117 -2.1510
   82SAPS  C215 7680   1.452   1.459   9.269 -0.5385 -0.4046 -0.2803
   82SAPS  H15R 7681   1.474   1.389   9.187 -0.2616  0.3954 -0.9064
   82SAPS  C216 7682   1.310   1.523   9.270  0.8174  0.3067  0.9093
   82SAPS  H16R 7683   1.295   1.578   9.365  0.3443 -0.4104  1.2603
   82SAPS  H16S 7684   1.230   1.445   9.267 -0.5972  1.6334 -3.5863
   82SAPS  C217 7685   1.278   1.592   9.130 -0.2901 -0.1032 -0.0440
   82SAPS  H17R 7686   1.199   1.666   9.156  0.4739  0.6452  0.1902
   82SAPS  H17S 7687   1.259   1.520   9.048 -0.8196  0.6826 -0.6242
   82SAPS  C218 7688   1.387   1.683   9.066  0.5372  0.1713  0.1971
   82SAPS  H18R 7689   1.471   1.627   9.021  0.6591  1.6700 -1.5821
   82SAPS  H18S 7690   1.435   1.728   9.155  2.7728 -2.2675  0.3382
   82SAPS  C219 7691   1.335   1.787   8.968 -0.6040  0.7275  0.2869
   82SAPS  H19R 7692   1.421   1.852   8.942  0.6524 -0.5415  1.1062
   82SAPS  H19S 7693   1.266   1.854   9.023  0.5937  2.8531 -0.7091
   82SAPS  C220 7694   1.263   1.728   8.850 -0.0059 -0.1039  0.3736
   82SAPS  H20R 7695   1.245   1.806   8.773  1.1594 -1.0629 -0.9338
   82SAPS  H20S 7696   1.164   1.683   8.872 -0.6031 -0.0538 -1.9628
   82SAPS  H20T 7697   1.326   1.649   8.803  0.3504  0.8188 -0.7510
   82SAPS   C33 7698   1.989   1.230  10.110  0.3485 -0.2297 -0.2019
   82SAPS   H3X 7699   2.096   1.224  10.080  0.3962  0.4876 -0.2011
   82SAPS   H3Y 7700   1.966   1.338  10.117 -2.0658 -0.7649  1.2305
   82SAPS   C34 7701   1.902   1.174  10.003  0.3344  0.6629 -0.7589
   82SAPS   H4X 7702   1.793   1.186  10.020  0.7197  1.7438  1.3484
   82SAPS   H4Y 7703   1.910   1.064   9.995 -0.8853  0.6461 -2.1393
   82SAPS   C35 7704   1.939   1.238   9.869  0.4455  0.6526  0.4499
   82SAPS   H5X 7705   2.045   1.224   9.840  0.0907 -0.2747 -0.4653
   82SAPS   H5Y 7706   1.923   1.346   9.886  1.2798  1.0018 -0.7991
   82SAPS   C36 7707   1.856   1.196   9.747 -0.0822  0.5512  0.4084
   82SAPS   H6X 7708   1.749   1.210   9.772 -0.7678 -1.8014 -0.9590
   82SAPS   H6Y 7709   1.857   1.087   9.728 -0.6645  0.6247 -0.0729
   82SAPS   C37 7710   1.871   1.298   9.630 -0.0173  0.1902  0.3346
   82SAPS   H7X 7711   1.978   1.324   9.613 -0.2944  0.6805 -0.7695
   82SAPS   H7Y 7712   1.826   1.395   9.660  0.6808  0.1737  1.4920
   82SAPS   C38 7713   1.801   1.255   9.503  0.1521  0.1645 -0.0124
   82SAPS   H8X 7714   1.798   1.340   9.431 -0.1844 -1.3775 -1.9140
   82SAPS   H8Y 7715   1.696   1.240   9.535  0.1526  0.9482  0.3730
   82SAPS   C39 7716   1.864   1.131   9.442  0.9988  0.3143  0.3115
   82SAPS   H9X 7717   1.849   1.044   9.511 -0.8032  2.1343  2.3792
   82SAPS   H9Y 7718   1.973   1.143   9.425  0.9467 -1.3189 -1.4890
   82SAPS  C310 7719   1.807   1.094   9.304  0.7123  0.2303 -0.6985
   82SAPS  H10X 7720   1.700   1.074   9.325 -0.1617  1.8797 -3.1730
   82SAPS  H10Y 7721   1.851   1.000   9.265 -0.4754 -2.1752  3.1177
   82SAPS  C311 7722   1.828   1.200   9.195  0.3091 -0.0535  0.3905
   82SAPS  H11X 7723   1.917   1.194   9.129 -0.6436  0.8006 -1.0448
   82SAPS  H11Y 7724   1.811   1.303   9.233 -1.8503  0.9232 -2.8043
   82SAPS  C312 7725   1.711   1.176   9.102 -0.3312  0.2319  0.0652
   82SAPS  H12X 7726   1.616   1.201   9.153 -0.0265 -0.6408  1.1109
   82SAPS  H12Y 7727   1.691   1.073   9.066 -2.0365  0.4999  0.1779
   82SAPS  C313 7728   1.729   1.261   8.969 -0.4992 -0.2199  0.0408
   82SAPS  H13X 7729   1.826   1.238   8.920 -0.3080  0.3142  0.1549
   82SAPS  H13Y 7730   1.716   1.366   9.004 -1.3929  0.0170 -0.9442
   82SAPS  C314 7731   1.611   1.234   8.877  0.4018  0.3321 -0.9304
   82SAPS  H14X 7732   1.537   1.167   8.924  0.6272  1.0031  0.4506
   82SAPS  H14Y 7733   1.647   1.189   8.782 -2.4478  1.5301 -2.7230
   82SAPS  C315 7734   1.534   1.365   8.850 -0.0812  0.2856  0.9137
   82SAPS  H15X 7735   1.612   1.444   8.848  1.9344 -1.5875 -2.0674
   82SAPS  H15Y 7736   1.462   1.378   8.935 -1.6189  0.5724 -0.3891
   82SAPS  C316 7737   1.476   1.368   8.714 -0.4382  0.1268  1.0385
   82SAPS  H16X 7738   1.559   1.335   8.647  0.6853 -0.3321  2.6050
   82SAPS  H16Y 7739   1.449   1.470   8.680  2.0242  0.0821 -1.4526
   82SAPS  C317 7740   1.359   1.271   8.691  0.1797  0.4013 -0.2612
   82SAPS  H17X 7741   1.399   1.169   8.710  1.3427  0.7787 -0.6082
   82SAPS  H17Y 7742   1.318   1.263   8.588 -0.8358  1.0430  0.0725
   82SAPS  C318 7743   1.239   1.296   8.782 -0.0068 -0.1936 -0.5750
   82SAPS  H18X 7744   1.144   1.243   8.762 -0.5207  0.4683  0.0531
   82SAPS  H18Y 7745   1.211   1.403   8.773  1.0872  0.0927 -0.7036
   82SAPS  H18Z 7746   1.262   1.278   8.890 -0.1804  0.2593 -0.4627
   83SAPS     N 7747   3.002   2.047  11.425 -0.1948 -0.0999 -0.4944
   83SAPS   HN1 7748   3.014   2.126  11.358  0.2006 -1.1643 -1.7161
   83SAPS   HN2 7749   3.035   1.964  11.373  3.0259  0.0970  0.9791
   83SAPS   HN3 7750   2.905   2.026  11.456  0.3078 -1.0860  0.4827
   83SAPS   C12 7751   3.102   2.073  11.533 -0.8987  0.3627 -0.7000
   83SAPS  H12A 7752   3.077   2.162  11.589  0.1803  0.0203  0.3725
   83SAPS   C13 7753   3.105   1.953  11.635 -0.6795  1.0741 -0.5665
   83SAPS  O13A 7754   3.040   1.852  11.614  0.1059 -0.3566 -0.4196
   83SAPS  O13B 7755   3.191   1.970  11.730  0.1162 -0.1064  0.3587
   83SAPS   C11 7756   3.236   2.087  11.469 -0.3631  0.6271  0.2891
   83SAPS  H11A 7757   3.310   2.085  11.552  0.8031  1.2154 -0.7034
   83SAPS  H11B 7758   3.243   2.187  11.421 -0.2946  1.2621  1.5922
   83SAPS     P 7759   3.408   1.975  11.299  0.1461 -0.4431  0.1798
   83SAPS   O13 7760   3.516   2.004  11.392  0.5096  0.1333  0.3734
   83SAPS   O14 7761   3.412   1.842  11.232 -0.0581  0.0981  0.6786
   83SAPS   O12 7762   3.267   1.984  11.373 -0.0560 -0.2312  0.2212
   83SAPS   O11 7763   3.403   2.086  11.188 -0.1737  0.2346 -0.1210
   83SAPS    C1 7764   3.310   2.105  11.089  0.0118  0.4754 -0.1468
   83SAPS    HA 7765   3.205   2.078  11.116 -0.2473  3.8065  2.9106
   83SAPS    HB 7766   3.309   2.213  11.062  0.6620  0.8316  1.1690
   83SAPS    C2 7767   3.341   2.040  10.954 -0.6046 -0.0301 -0.0241
   83SAPS    HS 7768   3.365   1.934  10.975 -3.4744 -0.5507  0.9802
   83SAPS   O21 7769   3.450   2.104  10.879 -0.0570 -0.2225 -0.0514
   83SAPS   C21 7770   3.519   2.016  10.799 -0.9458  0.2506 -0.3152
   83SAPS   O22 7771   3.491   1.897  10.776  0.3398 -1.0475  0.0294
   83SAPS   C22 7772   3.641   2.095  10.747 -0.1655 -0.4199 -0.2494
   83SAPS   H2R 7773   3.687   2.148  10.834  1.8828 -0.2768 -1.3613
   83SAPS   H2S 7774   3.717   2.025  10.707  0.5639 -0.4934  1.1829
   83SAPS    C3 7775   3.210   2.039  10.865  0.3406 -0.4913  0.1056
   83SAPS    HX 7776   3.185   2.142  10.831  1.4604 -0.2220  0.0290
   83SAPS    HY 7777   3.115   2.009  10.913  0.8559 -0.3398  1.2534
   83SAPS   O31 7778   3.235   1.966  10.743 -0.2496  0.4523  0.4486
   83SAPS   C31 7779   3.215   1.835  10.765 -0.1134 -0.1188  0.0588
   83SAPS   O32 7780   3.165   1.784  10.861  0.2844  0.0843 -0.3697
   83SAPS   C32 7781   3.259   1.755  10.644  0.0289  0.3918  0.0425
   83SAPS   H2X 7782   3.199   1.661  10.643  0.3892  0.1500  0.5539
   83SAPS   H2Y 7783   3.358   1.710  10.666 -0.9332 -1.1778  1.3829
   83SAPS   C23 7784   3.608   2.203  10.645 -0.4881 -0.2085 -0.2822
   83SAPS   H3R 7785   3.706   2.249  10.621  2.0251 -2.6784  4.0318
   83SAPS   H3S 7786   3.546   2.278  10.698 -1.9796 -2.0469  0.7204
   83SAPS   C24 7787   3.544   2.159  10.517 -0.0948 -0.7997 -0.3228
   83SAPS   H4R 7788   3.439   2.135  10.543  0.0138 -0.2664  0.6406
   83SAPS   H4S 7789   3.598   2.066  10.491  0.9519  0.4169 -2.8631
   83SAPS   C25 7790   3.564   2.260  10.403 -0.0967  0.7816  0.2932
   83SAPS   H5R 7791   3.563   2.365  10.436  2.3521  0.3160  2.1273
   83SAPS   C26 7792   3.594   2.244  10.271  0.3314  0.6111 -0.0479
   83SAPS   H6R 7793   3.599   2.335  10.210 -1.3850  0.8939  0.1676
   83SAPS   C27 7794   3.606   2.113  10.193 -0.3710 -0.5590 -0.8727
   83SAPS   H7R 7795   3.588   2.021  10.252 -0.4971  0.4232  0.6774
   83SAPS   H7S 7796   3.710   2.111  10.154  0.2645 -1.4907  0.7412
   83SAPS   C28 7797   3.500   2.092  10.087  0.0438 -0.0214  0.5372
   83SAPS   H8R 7798   3.405   2.143  10.107 -0.8799 -1.4767  0.0747
   83SAPS   C29 7799   3.501   2.006   9.991 -0.0563  0.4812 -0.2752
   83SAPS   H9R 7800   3.423   2.013   9.914  0.0861 -2.6767 -0.8440
   83SAPS  C210 7801   3.611   1.906   9.954  0.4356 -0.2268  0.4861
   83SAPS  H10R 7802   3.557   1.811   9.936  0.6355  0.2523 -3.3192
   83SAPS  H10S 7803   3.688   1.905  10.034  2.1802 -0.3820 -1.1292
   83SAPS  C211 7804   3.682   1.961   9.825  0.1117  0.4194  0.2341
   83SAPS  H11R 7805   3.770   2.026   9.843 -0.7133  1.6365  0.0121
   83SAPS  C212 7806   3.622   1.956   9.701  0.2703  0.5998  0.3882
   83SAPS  H12R 7807   3.667   2.014   9.618  1.3857 -1.2148 -0.3387
   83SAPS  C213 7808   3.486   1.896   9.678  0.4668  0.3289  0.9802
   83SAPS  H13R 7809   3.402   1.965   9.699 -1.3254 -1.4959  0.0975
   83SAPS  H13S 7810   3.472   1.803   9.738  2.4817 -0.7201 -0.0479
   83SAPS  C214 7811   3.471   1.847   9.536 -0.4037  0.0573  0.3544
   83SAPS  H14R 7812   3.477   1.739   9.519 -0.7468  0.0672  0.1580
   83SAPS  C215 7813   3.408   1.919   9.438  0.0624  0.1348  0.4572
   83SAPS  H15R 7814   3.393   1.870   9.341 -0.8840 -0.9416  1.1220
   83SAPS  C216 7815   3.343   2.056   9.439  0.2346 -0.3882  0.0156
   83SAPS  H16R 7816   3.340   2.095   9.543  0.5036  2.8919 -1.0913
   83SAPS  H16S 7817   3.238   2.041   9.406  0.7315  0.0177 -1.8765
   83SAPS  C217 7818   3.402   2.156   9.335  0.4478 -0.1408 -0.3491
   83SAPS  H17R 7819   3.510   2.160   9.360  0.1677  1.2078  0.8077
   83SAPS  H17S 7820   3.351   2.255   9.335 -0.0767 -0.3750 -2.4958
   83SAPS  C218 7821   3.387   2.102   9.195 -0.0833  0.8248 -0.6959
   83SAPS  H18R 7822   3.288   2.114   9.146  0.1374  2.1452 -0.8621
   83SAPS  H18S 7823   3.399   1.992   9.192  1.8739  0.8529  2.0858
   83SAPS  C219 7824   3.497   2.151   9.110 -0.3655 -0.2085  0.8959
   83SAPS  H19R 7825   3.590   2.097   9.137 -0.0752 -0.4908 -0.5812
   83SAPS  H19S 7826   3.518   2.260   9.116  0.3320 -0.2320 -0.5738
   83SAPS  C220 7827   3.475   2.110   8.966  0.5782 -0.3822  0.7603
   83SAPS  H20R 7828   3.445   2.004   8.958  0.0382 -0.1146 -1.0943
   83SAPS  H20S 7829   3.570   2.117   8.910  1.0204 -0.7704  1.4410
   83SAPS  H20T 7830   3.392   2.173   8.927 -0.9765 -3.3826 -1.0806
   83SAPS   C33 7831   3.261   1.831  10.513  0.4896 -0.1102  0.2828
   83SAPS   H3X 7832   3.362   1.850  10.472  0.2938 -0.9274 -0.6406
   83SAPS   H3Y 7833   3.213   1.931  10.516  0.5851  0.0429 -1.9513
   83SAPS   C34 7834   3.196   1.744  10.404  0.8775  0.4528  0.6191
   83SAPS   H4X 7835   3.090   1.732  10.437  0.7958  2.5040  1.2612
   83SAPS   H4Y 7836   3.257   1.652  10.398  1.8191  1.1484 -1.4709
   83SAPS   C35 7837   3.209   1.811  10.261  0.9448  0.1706  0.0473
   83SAPS   H5X 7838   3.319   1.817  10.249  1.1026 -0.5528  1.0422
   83SAPS   H5Y 7839   3.154   1.907  10.258 -0.2524 -0.4618  0.9110
   83SAPS   C36 7840   3.155   1.719  10.152  0.2132  0.4263  0.6904
   83SAPS   H6X 7841   3.054   1.701  10.194 -0.6256  0.5190 -1.2022
   83SAPS   H6Y 7842   3.215   1.627  10.169  1.6222  1.6198  2.6906
   83SAPS   C37 7843   3.162   1.772  10.009 -0.0283  0.0983 -0.0025
   83SAPS   H7X 7844   3.262   1.816   9.990  0.8923 -0.8576  2.3297
   83SAPS   H7Y 7845   3.087   1.853  10.003 -1.7222 -1.4896 -2.7473
   83SAPS   C38 7846   3.108   1.681   9.894  0.1397 -0.2741 -0.1946
   83SAPS   H8X 7847   2.997   1.673   9.891  0.2741 -1.9405 -2.6444
   83SAPS   H8Y 7848   3.145   1.577   9.892 -0.7052 -0.5811 -2.0162
   83SAPS   C39 7849   3.136   1.757   9.765  0.3439 -0.1200  0.5793
   83SAPS   H9X 7850   3.243   1.786   9.761  0.4713 -0.6548 -0.1265
   83SAPS   H9Y 7851   3.068   1.845   9.768  0.9074  0.3616 -0.4515
   83SAPS  C310 7852   3.106   1.667   9.640 -0.1494  0.2202  0.1767
   83SAPS  H10X 7853   3.002   1.627   9.635 -0.7215  1.6904 -0.1250
   83SAPS  H10Y 7854   3.167   1.574   9.638  1.0573  1.0075 -0.4630
   83SAPS  C311 7855   3.114   1.738   9.504 -0.1148 -0.5916  0.0022
   83SAPS  H11X 7856   3.217   1.746   9.465 -0.3732 -0.7674 -0.7298
   83SAPS  H11Y 7857   3.072   1.839   9.522 -0.9229 -1.0041  0.5169
   83SAPS  C312 7858   3.040   1.677   9.377  0.7243  0.1534  0.0693
   83SAPS  H12X 7859   2.935   1.662   9.409  0.9935 -0.5100  0.6498
   83SAPS  H12Y 7860   3.072   1.575   9.347  0.4907  0.2637 -0.5878
   83SAPS  C313 7861   3.049   1.757   9.248  0.3671 -0.3384 -0.7638
   83SAPS  H13X 7862   2.990   1.701   9.173 -1.1796 -0.1837  0.2995
   83SAPS  H13Y 7863   3.156   1.758   9.216  0.7208 -2.0205  0.3023
   83SAPS  C314 7864   2.995   1.894   9.246 -0.1908  0.1573  0.2595
   83SAPS  H14X 7865   3.058   1.943   9.323  0.4082 -1.5672  0.9226
   83SAPS  H14Y 7866   2.886   1.885   9.264 -0.3474  0.4868 -0.5030
   83SAPS  C315 7867   3.021   1.954   9.101  0.1915  0.1550 -1.0406
   83SAPS  H15X 7868   3.129   1.944   9.077  0.0393 -1.0823 -1.2596
   83SAPS  H15Y 7869   3.000   2.063   9.112  2.1709  0.5677 -0.9274
   83SAPS  C316 7870   2.932   1.892   8.987  0.1422 -0.0112 -0.0012
   83SAPS  H16X 7871   2.831   1.897   9.034 -0.2029  1.5537 -0.8169
   83SAPS  H16Y 7872   2.969   1.788   8.981  1.6229  0.3745  1.5997
   83SAPS  C317 7873   2.933   1.963   8.850 -0.6653  0.1416  0.6215
   83SAPS  H17X 7874   2.946   2.072   8.868 -1.1331  0.2462  0.3510
   83SAPS  H17Y 7875   2.830   1.944   8.812 -0.5778  2.4531 -0.9503
   83SAPS  C318 7876   3.019   1.915   8.741  0.0146  0.9012  0.4103
   83SAPS  H18X 7877   3.015   1.982   8.653 -3.4713 -0.5860 -0.7370
   83SAPS  H18Y 7878   2.990   1.815   8.702 -0.4374  0.9697  0.5714
   83SAPS  H18Z 7879   3.126   1.908   8.771  0.0681  0.0988  0.0767
   84SAPS     N 7880   6.549   1.729  11.139 -0.1965 -0.0771  0.1176
   84SAPS   HN1 7881   6.561   1.660  11.062 -1.0066  0.6392 -0.6889
   84SAPS   HN2 7882   6.485   1.797  11.093  0.2264 -0.0686 -0.4683
   84SAPS   HN3 7883   6.635   1.786  11.145  0.1398 -0.1747 -2.4544
   84SAPS   C12 7884   6.500   1.674  11.265 -0.1054  1.1118  0.3890
   84SAPS  H12A 7885   6.585   1.619  11.302  0.8594  2.8617  0.8748
   84SAPS   C13 7886   6.479   1.776  11.375  0.1482  0.5559  0.0549
   84SAPS  O13A 7887   6.531   1.888  11.362  0.7437 -0.0772  0.9276
   84SAPS  O13B 7888   6.432   1.739  11.487 -0.2491  0.0106  0.0659
   84SAPS   C11 7889   6.369   1.597  11.247 -0.3529  0.1180 -1.1539
   84SAPS  H11A 7890   6.283   1.662  11.220  0.2262  1.4663  0.1087
   84SAPS  H11B 7891   6.347   1.556  11.348  0.2214 -0.4300 -1.2465
   84SAPS     P 7892   6.253   1.399  11.129 -0.0148  0.2267 -0.1014
   84SAPS   O13 7893   6.302   1.272  11.077  0.3580  0.1765  0.6610
   84SAPS   O14 7894   6.151   1.400  11.239 -0.3409  0.2118  0.2432
   84SAPS   O12 7895   6.386   1.479  11.170  0.0978 -0.5782  0.3940
   84SAPS   O11 7896   6.200   1.480  11.002  0.3229  0.3303  0.2591
   84SAPS    C1 7897   6.285   1.491  10.886 -0.0990  0.7197 -0.4399
   84SAPS    HA 7898   6.340   1.585  10.903  0.8847 -0.1876  1.7025
   84SAPS    HB 7899   6.370   1.420  10.881 -0.6405  0.0606 -0.5872
   84SAPS    C2 7900   6.208   1.465  10.753  0.3247  0.5519  0.1453
   84SAPS    HS 7901   6.272   1.457  10.663 -0.2125 -1.7827 -0.0985
   84SAPS   O21 7902   6.115   1.577  10.744 -0.2632 -0.1181  0.2251
   84SAPS   C21 7903   6.170   1.679  10.676 -0.2417 -0.3763 -0.1088
   84SAPS   O22 7904   6.283   1.677  10.633  0.1696 -0.2366 -0.6596
   84SAPS   C22 7905   6.074   1.798  10.666  0.5520  0.1617 -0.2956
   84SAPS   H2R 7906   5.972   1.758  10.648  0.9596 -2.2714  2.0256
   84SAPS   H2S 7907   6.073   1.839  10.770 -2.0298  1.2946 -0.6970
   84SAPS    C3 7908   6.130   1.327  10.757 -0.1693  0.4633  0.1556
   84SAPS    HX 7909   6.080   1.314  10.856 -1.7395  1.3398 -0.4826
   84SAPS    HY 7910   6.214   1.256  10.744  1.6332  2.7996 -1.8926
   84SAPS   O31 7911   6.031   1.308  10.648  0.3664 -0.5898 -0.3823
   84SAPS   C31 7912   5.913   1.364  10.674  0.3924 -0.6012  0.0426
   84SAPS   O32 7913   5.878   1.389  10.790 -0.8617  0.4493 -0.4396
   84SAPS   C32 7914   5.830   1.393  10.551 -0.2084  0.6785 -0.4529
   84SAPS   H2X 7915   5.724   1.374  10.579  0.0441  0.5477  0.4436
   84SAPS   H2Y 7916   5.873   1.325  10.475  1.1572  2.0136 -0.9168
   84SAPS   C23 7917   6.117   1.909  10.566 -0.1348  0.1916  0.4835
   84SAPS   H3R 7918   6.224   1.930  10.590  0.5472 -0.3457 -1.7640
   84SAPS   H3S 7919   6.053   1.997  10.589  1.0527  1.1885  0.1033
   84SAPS   C24 7920   6.108   1.867  10.418 -0.5220 -0.4562 -0.4461
   84SAPS   H4R 7921   6.155   1.768  10.398 -0.5282 -0.5802  0.1207
   84SAPS   H4S 7922   6.152   1.949  10.358  1.0020 -0.7132  0.2548
   84SAPS   C25 7923   5.967   1.848  10.389  0.4789  0.0607  0.3714
   84SAPS   H5R 7924   5.902   1.845  10.478  1.2941 -0.9509  0.9653
   84SAPS   C26 7925   5.923   1.857  10.264  0.8260 -0.6878  0.4694
   84SAPS   H6R 7926   5.815   1.857  10.246  1.0112 -2.0370 -0.8053
   84SAPS   C27 7927   6.016   1.860  10.147 -0.0780  0.2844  0.5415
   84SAPS   H7R 7928   5.968   1.788  10.078 -0.7227  1.2488 -0.0284
   84SAPS   H7S 7929   6.111   1.806  10.167  0.9790  0.8291 -2.4906
   84SAPS   C28 7930   6.044   1.992  10.077  0.1710  0.0559 -0.7535
   84SAPS   H8R 7931   6.101   2.057  10.145 -1.3871  1.6169 -0.8509
   84SAPS   C29 7932   5.999   2.040   9.962  0.3831 -0.6186 -0.4930
   84SAPS   H9R 7933   6.042   2.133   9.923  0.4478 -0.2105  0.5218
   84SAPS  C210 7934   5.911   1.970   9.865  0.3774 -0.5935 -0.1770
   84SAPS  H10R 7935   5.833   1.910   9.916 -0.0691  0.1708  0.0501
   84SAPS  H10S 7936   5.963   1.894   9.803  2.0772  0.6481 -0.3535
   84SAPS  C211 7937   5.840   2.074   9.782  1.2075  0.0532 -0.7394
   84SAPS  H11R 7938   5.776   2.144   9.839 -1.9031 -1.5000 -2.0750
   84SAPS  C212 7939   5.848   2.097   9.650  0.1134 -0.6287 -0.6862
   84SAPS  H12R 7940   5.786   2.178   9.608  2.8069  2.9379  1.6024
   84SAPS  C213 7941   5.924   2.008   9.548 -0.0068  0.2693 -0.5237
   84SAPS  H13R 7942   5.885   2.025   9.446  2.3545  1.5692 -1.2781
   84SAPS  H13S 7943   5.897   1.902   9.571 -2.1126  0.8468 -0.1191
   84SAPS  C214 7944   6.072   2.041   9.537 -0.0772 -0.5551  0.1660
   84SAPS  H14R 7945   6.122   2.057   9.634  2.4500  1.7046 -1.3918
   84SAPS  C215 7946   6.154   2.065   9.435 -0.0959  0.0403 -0.3066
   84SAPS  H15R 7947   6.260   2.088   9.454  0.1171 -0.2533 -1.1056
   84SAPS  C216 7948   6.119   2.062   9.290  0.7289 -0.1385  0.0926
   84SAPS  H16R 7949   6.174   2.144   9.239 -0.2954  0.2150 -0.4814
   84SAPS  H16S 7950   6.011   2.084   9.276  0.8486  0.1279 -0.4495
   84SAPS  C217 7951   6.166   1.925   9.233 -0.3176  0.4047 -0.1488
   84SAPS  H17R 7952   6.265   1.890   9.272 -0.8225 -1.8398 -0.7122
   84SAPS  H17S 7953   6.157   1.936   9.123 -1.8369 -0.0754 -0.0966
   84SAPS  C218 7954   6.070   1.805   9.270  0.0258 -0.4539 -0.6804
   84SAPS  H18R 7955   5.965   1.840   9.259  0.8942  1.8972 -2.0843
   84SAPS  H18S 7956   6.085   1.792   9.379 -1.7805  1.7923 -0.1000
   84SAPS  C219 7957   6.080   1.674   9.193  0.0343 -0.1950 -1.0801
   84SAPS  H19R 7958   6.026   1.586   9.235  0.1067 -0.6144 -1.8514
   84SAPS  H19S 7959   6.187   1.644   9.192  0.7103  2.0319 -1.8971
   84SAPS  C220 7960   6.048   1.690   9.044 -0.0919  0.1074 -0.2190
   84SAPS  H20R 7961   6.141   1.720   8.991 -0.2090 -0.7214 -0.9138
   84SAPS  H20S 7962   5.967   1.766   9.035  0.9977  1.4192  0.5856
   84SAPS  H20T 7963   6.020   1.590   9.006 -0.1920 -0.3652  1.0277
   84SAPS   C33 7964   5.832   1.533  10.484 -0.1760  0.7301 -0.3329
   84SAPS   H3X 7965   5.937   1.557  10.457 -0.7105  2.7824 -0.7862
   84SAPS   H3Y 7966   5.801   1.612  10.556 -0.5618 -0.6413  1.0499
   84SAPS   C34 7967   5.749   1.542  10.360  0.1528 -1.1695 -0.2058
   84SAPS   H4X 7968   5.727   1.649  10.346 -1.1361 -1.2565  1.0313
   84SAPS   H4Y 7969   5.654   1.484  10.366  0.1161 -0.9941  1.2366
   84SAPS   C35 7970   5.833   1.490  10.239 -0.8081  0.0139  0.0162
   84SAPS   H5X 7971   5.866   1.384  10.251  0.0421  0.3595  0.8043
   84SAPS   H5Y 7972   5.935   1.534  10.235  0.0464 -1.5085  2.7961
   84SAPS   C36 7973   5.749   1.507  10.107 -0.2900 -0.2042  0.1453
   84SAPS   H6X 7974   5.718   1.614  10.107  0.3401 -0.0138 -0.2933
   84SAPS   H6Y 7975   5.650   1.460  10.124 -0.7994  0.2793 -1.3008
   84SAPS   C37 7976   5.804   1.440   9.977 -0.0812 -0.4952 -0.3857
   84SAPS   H7X 7977   5.802   1.331   9.997 -2.8142 -0.1236  2.0550
   84SAPS   H7Y 7978   5.904   1.482   9.955 -0.8142 -0.2252 -3.9245
   84SAPS   C38 7979   5.709   1.471   9.862  0.6167 -0.3147  0.4749
   84SAPS   H8X 7980   5.673   1.576   9.876  1.1910  0.4710 -2.9604
   84SAPS   H8Y 7981   5.618   1.408   9.868  0.2609  0.2541  1.2794
   84SAPS   C39 7982   5.780   1.472   9.721  0.0872  0.1347  0.7704
   84SAPS   H9X 7983   5.814   1.369   9.698  0.2539  0.4767 -0.6096
   84SAPS   H9Y 7984   5.871   1.535   9.716  2.4785 -3.1285 -0.4035
   84SAPS  C310 7985   5.681   1.528   9.601 -0.4932  0.3556  0.0887
   84SAPS  H10X 7986   5.656   1.630   9.640 -1.1951 -0.7443  2.7581
   84SAPS  H10Y 7987   5.588   1.468   9.608 -0.7822  0.9055  1.4775
   84SAPS  C311 7988   5.754   1.500   9.470  0.4175 -0.0222 -0.3690
   84SAPS  H11X 7989   5.801   1.400   9.470  1.1904  0.3142  1.3332
   84SAPS  H11Y 7990   5.838   1.570   9.449  2.0214 -1.8780 -0.4424
   84SAPS  C312 7991   5.655   1.509   9.354 -0.4251  0.8721  0.3365
   84SAPS  H12X 7992   5.596   1.603   9.358 -0.4879  0.8851 -0.5220
   84SAPS  H12Y 7993   5.578   1.430   9.362  1.4280 -0.8857  1.7755
   84SAPS  C313 7994   5.729   1.495   9.210 -0.2540 -0.6294  0.2027
   84SAPS  H13X 7995   5.830   1.540   9.217 -1.2213  1.9033 -1.0151
   84SAPS  H13Y 7996   5.673   1.546   9.128  1.8340 -1.8693 -2.1481
   84SAPS  C314 7997   5.745   1.349   9.178  0.6856 -0.2392  0.1283
   84SAPS  H14X 7998   5.647   1.302   9.156 -0.0234  0.8269  0.9186
   84SAPS  H14Y 7999   5.783   1.301   9.270 -0.4788 -1.3524  0.0442
   84SAPS  C315 8000   5.833   1.325   9.055  0.4089 -0.1088 -0.1622
   84SAPS  H15X 8001   5.874   1.224   9.073  3.6479  1.3759  1.5716
   84SAPS  H15Y 8002   5.931   1.375   9.065  0.0913  0.3416  0.9411
   84SAPS  C316 8003   5.765   1.352   8.926 -0.4966  0.3185  0.1852
   84SAPS  H16X 8004   5.717   1.452   8.929  0.0071  0.5593  2.5166
   84SAPS  H16Y 8005   5.684   1.276   8.918 -2.1225  1.8558  1.2638
   84SAPS  C317 8006   5.864   1.348   8.808 -0.0736  0.5878  0.1237
   84SAPS  H17X 8007   5.941   1.267   8.810  0.1657  0.8336  1.3419
   84SAPS  H17Y 8008   5.920   1.443   8.814 -0.9450  1.0321  2.0302
   84SAPS  C318 8009   5.794   1.330   8.676  0.1028 -1.2700  0.2779
   84SAPS  H18X 8010   5.872   1.355   8.601  0.7647  1.2455  1.6992
   84SAPS  H18Y 8011   5.710   1.399   8.656 -1.4998 -2.8025  1.5077
   84SAPS  H18Z 8012   5.758   1.226   8.667 -2.1999 -0.5239  0.4078
   85SAPS     N 8013   1.993   4.502  11.332  0.1145  0.1600 -0.3309
   85SAPS   HN1 8014   2.067   4.447  11.379  0.5231 -1.1424 -2.3672
   85SAPS   HN2 8015   2.037   4.578  11.276  1.2971 -0.6304 -0.4940
   85SAPS   HN3 8016   1.958   4.546  11.419  1.3038  1.2525 -0.3771
   85SAPS   C12 8017   1.891   4.426  11.264  0.0321 -0.0142 -0.0810
   85SAPS  H12A 8018   1.916   4.407  11.161 -0.1520 -0.6595 -0.0112
   85SAPS   C13 8019   1.855   4.292  11.337 -0.0473 -0.1525  0.3999
   85SAPS  O13A 8020   1.911   4.256  11.441  0.6001  0.3335  0.6025
   85SAPS  O13B 8021   1.761   4.222  11.285 -0.7743  0.2265  0.2169
   85SAPS   C11 8022   1.770   4.525  11.258  0.8434 -0.7896  0.2638
   85SAPS  H11A 8023   1.715   4.528  11.355  0.1789 -0.1879 -0.1232
   85SAPS  H11B 8024   1.700   4.469  11.193 -0.1209  1.1727 -0.4434
   85SAPS     P 8025   1.700   4.739  11.112  0.5217 -0.2033  0.3108
   85SAPS   O13 8026   1.599   4.787  11.210 -0.4219  0.7566  0.6625
   85SAPS   O14 8027   1.782   4.843  11.044 -0.3750  1.2134  0.1689
   85SAPS   O12 8028   1.800   4.652  11.197 -0.1582  0.2629  0.0161
   85SAPS   O11 8029   1.631   4.633  11.015 -0.3866 -0.8054 -0.4641
   85SAPS    C1 8030   1.701   4.550  10.928 -0.1371  0.1194  0.1045
   85SAPS    HA 8031   1.805   4.526  10.959  1.1257  1.1568 -2.9411
   85SAPS    HB 8032   1.649   4.451  10.932  5.0890 -2.9556  2.9709
   85SAPS    C2 8033   1.697   4.604  10.783  0.7176  0.4632 -0.1848
   85SAPS    HS 8034   1.765   4.692  10.771  0.9959 -0.0133 -2.5885
   85SAPS   O21 8035   1.564   4.634  10.745  0.5343  0.3451 -0.4174
   85SAPS   C21 8036   1.542   4.748  10.678  0.3197 -0.4037  0.5492
   85SAPS   O22 8037   1.629   4.827  10.647  0.7713 -0.3827 -0.2240
   85SAPS   C22 8038   1.390   4.751  10.640 -0.1918 -0.0674  0.2695
   85SAPS   H2R 8039   1.378   4.668  10.567  3.6872 -0.5550 -0.0347
   85SAPS   H2S 8040   1.335   4.739  10.736  1.2915  0.2366  1.1870
   85SAPS    C3 8041   1.735   4.505  10.678  0.1640  0.5301  0.1373
   85SAPS    HX 8042   1.669   4.416  10.690  0.5584  0.3962  1.5358
   85SAPS    HY 8043   1.837   4.467  10.704  0.6200  0.8367 -1.1589
   85SAPS   O31 8044   1.739   4.555  10.544 -0.2149 -0.3689  0.4785
   85SAPS   C31 8045   1.756   4.465  10.448  0.1097  0.5560 -0.7751
   85SAPS   O32 8046   1.767   4.343  10.477 -0.0978 -0.6545  0.2567
   85SAPS   C32 8047   1.771   4.528  10.310 -0.9858  0.5017 -0.2035
   85SAPS   H2X 8048   1.846   4.610  10.313  2.3673 -2.1079 -3.5018
   85SAPS   H2Y 8049   1.669   4.556  10.276 -0.5194 -0.0138 -2.1425
   85SAPS   C23 8050   1.339   4.885  10.579  0.0998  0.9955 -1.0016
   85SAPS   H3R 8051   1.414   4.919  10.505  0.9498 -0.1386 -0.6969
   85SAPS   H3S 8052   1.328   4.952  10.667 -0.3101  0.0703 -0.3250
   85SAPS   C24 8053   1.202   4.854  10.522 -0.3777  0.1425 -0.4316
   85SAPS   H4R 8054   1.145   4.821  10.612 -3.1515  1.5320 -1.5596
   85SAPS   H4S 8055   1.228   4.768  10.456 -1.7706 -2.2064  1.8868
   85SAPS   C25 8056   1.159   4.980  10.444 -0.0532  0.0505  0.1139
   85SAPS   H5R 8057   1.170   5.077  10.494  0.0205  0.2628 -0.3085
   85SAPS   C26 8058   1.082   4.978  10.325 -0.3012  0.3160 -0.5309
   85SAPS   H6R 8059   1.048   5.070  10.276  0.0086  0.1280 -1.1118
   85SAPS   C27 8060   1.044   4.853  10.251  0.3727 -0.3377  0.1097
   85SAPS   H7R 8061   0.940   4.835  10.285  0.6806 -1.4045  0.5368
   85SAPS   H7S 8062   1.113   4.767  10.267  0.1259 -0.6787 -0.6359
   85SAPS   C28 8063   1.051   4.863  10.104  0.1825  0.7322  0.4762
   85SAPS   H8R 8064   1.147   4.829  10.061  1.9024  2.0298  3.0321
   85SAPS   C29 8065   0.950   4.900  10.024 -0.9150  0.2440  0.1722
   85SAPS   H9R 8066   0.972   4.904   9.917 -0.1475  0.0744  0.3206
   85SAPS  C210 8067   0.816   4.939  10.065  0.4816 -0.2075 -0.1418
   85SAPS  H10R 8068   0.792   4.893  10.164 -1.2553  0.4963 -0.1932
   85SAPS  H10S 8069   0.733   4.895  10.006 -0.6036  0.1128  1.0825
   85SAPS  C211 8070   0.788   5.085  10.088 -0.8948 -0.8834 -0.9232
   85SAPS  H11R 8071   0.854   5.122  10.168 -0.2942 -0.9568 -1.3789
   85SAPS  C212 8072   0.698   5.164  10.031 -0.4693 -0.4165  0.3215
   85SAPS  H12R 8073   0.696   5.270  10.058  1.3938  0.0289 -1.0852
   85SAPS  C213 8074   0.608   5.124   9.916  0.2537  0.4264 -0.1416
   85SAPS  H13R 8075   0.501   5.134   9.944  0.2429 -4.0518  2.2389
   85SAPS  H13S 8076   0.619   5.015   9.901  0.5614  0.2619  1.1415
   85SAPS  C214 8077   0.640   5.206   9.798 -0.2615 -0.6637 -0.4677
   85SAPS  H14R 8078   0.617   5.313   9.806  0.0121 -0.6032 -0.4836
   85SAPS  C215 8079   0.667   5.162   9.672  0.4416  0.0951 -0.1153
   85SAPS  H15R 8080   0.679   5.236   9.591  0.1918 -1.0598 -1.2435
   85SAPS  C216 8081   0.682   5.016   9.644 -0.3983 -0.1316 -0.4715
   85SAPS  H16R 8082   0.593   4.971   9.596 -0.7546  1.2417 -1.1617
   85SAPS  H16S 8083   0.714   4.960   9.735 -2.2438  1.6240  1.3861
   85SAPS  C217 8084   0.789   4.976   9.536 -0.3193 -0.5401 -0.4966
   85SAPS  H17R 8085   0.789   5.046   9.450  0.7348  1.2231  0.8889
   85SAPS  H17S 8086   0.772   4.874   9.494  0.1037 -0.9404  0.2903
   85SAPS  C218 8087   0.929   4.958   9.594  0.0897 -0.1843 -0.7305
   85SAPS  H18R 8088   0.913   4.891   9.681  0.8168  0.1400 -0.3376
   85SAPS  H18S 8089   0.951   5.058   9.639 -0.4237 -1.1758  1.9085
   85SAPS  C219 8090   1.031   4.912   9.484 -0.3292 -0.0445  0.4985
   85SAPS  H19R 8091   1.023   4.986   9.402  1.9355  2.5894  2.4695
   85SAPS  H19S 8092   1.011   4.807   9.451 -0.4122 -0.1406  0.8509
   85SAPS  C220 8093   1.168   4.923   9.545 -0.6131 -0.5231  0.5593
   85SAPS  H20R 8094   1.245   4.890   9.472 -0.7278 -0.9775  0.6452
   85SAPS  H20S 8095   1.168   4.854   9.631 -1.4529 -1.2530 -0.0061
   85SAPS  H20T 8096   1.196   5.028   9.570  1.8988 -1.2771  1.1250
   85SAPS   C33 8097   1.830   4.428  10.216  0.4620 -0.1178  0.0785
   85SAPS   H3X 8098   1.753   4.355  10.184  2.6697 -0.9417 -4.0923
   85SAPS   H3Y 8099   1.926   4.376  10.240 -0.4611 -2.5703 -1.2535
   85SAPS   C34 8100   1.864   4.494  10.078  0.0509 -0.4271  0.2835
   85SAPS   H4X 8101   1.951   4.559  10.102  0.5471 -1.0043  0.0922
   85SAPS   H4Y 8102   1.783   4.560  10.040  0.2978  0.2101  0.8560
   85SAPS   C35 8103   1.904   4.391   9.980  0.3170  0.2784  0.6861
   85SAPS   H5X 8104   1.843   4.299   9.998 -1.4259  1.5423  1.4879
   85SAPS   H5Y 8105   2.007   4.352   9.996  0.9256  0.8688 -1.4916
   85SAPS   C36 8106   1.895   4.418   9.834  0.5435 -0.3153 -0.3190
   85SAPS   H6X 8107   1.786   4.433   9.823  0.2526 -1.4737  0.7707
   85SAPS   H6Y 8108   1.940   4.337   9.772  2.1757 -0.1029  0.5443
   85SAPS   C37 8109   1.956   4.553   9.795 -0.1927 -0.4156  0.0884
   85SAPS   H7X 8110   2.066   4.557   9.782 -0.3596 -0.6325 -1.5488
   85SAPS   H7Y 8111   1.923   4.621   9.876  0.6327 -1.4721  1.3480
   85SAPS   C38 8112   1.899   4.605   9.657  0.1007  0.8238 -0.0019
   85SAPS   H8X 8113   1.911   4.715   9.656 -0.1390  0.8868  1.5575
   85SAPS   H8Y 8114   1.794   4.568   9.659  0.1423  0.6946 -0.1718
   85SAPS   C39 8115   1.981   4.548   9.545  0.3132 -0.1697  0.1431
   85SAPS   H9X 8116   2.000   4.440   9.564 -0.7087 -0.0420  2.2741
   85SAPS   H9Y 8117   2.076   4.605   9.537 -0.4595  1.5636  2.2682
   85SAPS  C310 8118   1.900   4.570   9.416  0.1307  0.0293  0.9316
   85SAPS  H10X 8119   1.794   4.536   9.429  0.1793  0.5337  3.1022
   85SAPS  H10Y 8120   1.931   4.495   9.340 -0.6522 -0.5540  1.1650
   85SAPS  C311 8121   1.913   4.700   9.349 -0.2937 -0.3652  0.5726
   85SAPS  H11X 8122   2.019   4.731   9.342 -0.2464 -0.9115 -2.1153
   85SAPS  H11Y 8123   1.872   4.770   9.424 -1.6217 -2.1635  1.5947
   85SAPS  C312 8124   1.850   4.716   9.207 -0.1341 -0.3105  0.3794
   85SAPS  H12X 8125   1.866   4.819   9.167  1.8314 -0.5227  0.5011
   85SAPS  H12Y 8126   1.739   4.711   9.214 -0.2665  0.6874 -0.5774
   85SAPS  C313 8127   1.893   4.605   9.102  0.5887  0.2540  0.1871
   85SAPS  H13X 8128   1.847   4.509   9.132  0.3130 -0.0181 -1.0516
   85SAPS  H13Y 8129   2.004   4.607   9.090  0.3644  1.0287 -2.4577
   85SAPS  C314 8130   1.856   4.638   8.956  0.2310 -0.0259 -0.7774
   85SAPS  H14X 8131   1.761   4.694   8.944  0.3232  0.6425  1.1460
   85SAPS  H14Y 8132   1.849   4.537   8.909 -0.6711 -1.5503  2.3332
   85SAPS  C315 8133   1.972   4.711   8.881  0.6932 -0.1046 -0.8884
   85SAPS  H15X 8134   2.066   4.651   8.882  1.9869  1.8185  1.3641
   85SAPS  H15Y 8135   1.996   4.800   8.942 -1.3951  0.6704 -1.1393
   85SAPS  C316 8136   1.934   4.751   8.736 -0.7292 -0.6639  0.2844
   85SAPS  H16X 8137   1.835   4.798   8.753  0.3998  2.1700 -0.2810
   85SAPS  H16Y 8138   1.914   4.665   8.668 -0.9037 -1.3985  1.2522
   85SAPS  C317 8139   2.012   4.864   8.669  0.1712 -0.0208  0.3487
   85SAPS  H17X 8140   2.121   4.844   8.669  0.4779  1.3876 -1.1916
   85SAPS  H17Y 8141   2.005   4.962   8.721  0.1217  1.2026 -1.8332
   85SAPS  C318 8142   1.977   4.896   8.524 -0.3300 -0.1943  0.0819
   85SAPS  H18X 8143   1.886   4.960   8.526 -1.7931 -2.1595 -0.7977
   85SAPS  H18Y 8144   1.960   4.801   8.469  0.2534  0.1429 -0.6976
   85SAPS  H18Z 8145   2.060   4.942   8.467 -1.1045 -1.9209 -2.6258
   86SAPS     N 8146   5.138   3.377  10.936 -0.0199  0.0164  0.0930
   86SAPS   HN1 8147   5.240   3.364  10.952 -0.3395 -0.0362  2.4763
   86SAPS   HN2 8148   5.103   3.295  10.882  4.4618 -1.3001 -1.2537
   86SAPS   HN3 8149   5.117   3.466  10.886 -0.4295  0.5002  1.0941
   86SAPS   C12 8150   5.066   3.382  11.072 -0.0006 -0.1978  0.7413
   86SAPS  H12A 8151   5.106   3.300  11.130  1.1472 -0.0479  0.1971
   86SAPS   C13 8152   5.099   3.513  11.146 -0.3695 -0.0170  0.2474
   86SAPS  O13A 8153   5.195   3.584  11.112 -0.4809 -0.4484 -0.3457
   86SAPS  O13B 8154   5.040   3.531  11.254 -0.1318  0.6267 -0.0531
   86SAPS   C11 8155   4.914   3.364  11.046  0.4713  0.5683 -0.2025
   86SAPS  H11A 8156   4.888   3.443  10.972 -0.0877 -0.3976 -1.0635
   86SAPS  H11B 8157   4.858   3.369  11.142 -0.2941  0.7402 -0.6494
   86SAPS     P 8158   4.764   3.201  10.929  0.3587  0.0587 -0.0414
   86SAPS   O13 8159   4.766   3.066  10.866  0.0172 -0.0043 -0.0488
   86SAPS   O14 8160   4.664   3.234  11.033  0.0286  0.4520  0.2329
   86SAPS   O12 8161   4.903   3.238  10.980 -0.0836  0.7197 -0.0884
   86SAPS   O11 8162   4.738   3.303  10.816  0.1582  0.1680  0.0661
   86SAPS    C1 8163   4.827   3.328  10.709 -1.1583 -0.6481  0.0210
   86SAPS    HA 8164   4.883   3.422  10.732  1.9830 -2.4075  0.1487
   86SAPS    HB 8165   4.903   3.248  10.698 -0.0803  0.4943 -1.3407
   86SAPS    C2 8166   4.747   3.346  10.575 -0.5099 -0.7615  0.4874
   86SAPS    HS 8167   4.661   3.413  10.596  2.0754  3.4332 -1.1139
   86SAPS   O21 8168   4.710   3.219  10.520 -0.0624 -0.1434  0.0390
   86SAPS   C21 8169   4.609   3.167  10.575  0.3076 -0.5400  0.7967
   86SAPS   O22 8170   4.526   3.224  10.637  0.1774 -0.1655  0.3103
   86SAPS   C22 8171   4.607   3.020  10.545  0.3599 -0.3252 -0.4384
   86SAPS   H2R 8172   4.712   2.990  10.564  0.3579 -1.6224 -2.1784
   86SAPS   H2S 8173   4.542   2.969  10.620 -0.1646 -1.7758 -1.8109
   86SAPS    C3 8174   4.831   3.431  10.469 -0.2317  1.0058 -0.6763
   86SAPS    HX 8175   4.936   3.393  10.468 -1.3421 -2.3794 -1.2597
   86SAPS    HY 8176   4.848   3.532  10.512 -0.7939 -0.2955  2.9807
   86SAPS   O31 8177   4.780   3.432  10.338  0.2677 -0.2218  1.0255
   86SAPS   C31 8178   4.841   3.350  10.259  0.4778  0.3333 -0.1159
   86SAPS   O32 8179   4.923   3.268  10.293 -0.0709  0.3489  0.9040
   86SAPS   C32 8180   4.798   3.364  10.113 -0.4993  0.1716  0.5709
   86SAPS   H2X 8181   4.862   3.442  10.066 -2.8705  1.3515 -0.9273
   86SAPS   H2Y 8182   4.693   3.399  10.108 -1.4049 -1.3525  4.9123
   86SAPS   C23 8183   4.560   2.989  10.401 -0.2419 -0.1361  0.6141
   86SAPS   H3R 8184   4.580   2.882  10.379  4.5887  0.2065  2.1024
   86SAPS   H3S 8185   4.625   3.047  10.332 -1.9955  0.0099 -0.9930
   86SAPS   C24 8186   4.413   3.027  10.384 -0.0025  0.0875 -0.0016
   86SAPS   H4R 8187   4.382   3.022  10.277  0.6633  0.7259 -0.2321
   86SAPS   H4S 8188   4.392   3.132  10.413  0.1330  0.3563 -0.8407
   86SAPS   C25 8189   4.332   2.944  10.472  1.0600 -0.5407  0.1727
   86SAPS   H5R 8190   4.384   2.858  10.516  0.6743 -1.2528 -0.7225
   86SAPS   C26 8191   4.198   2.961  10.498  0.4795 -0.1125  0.0645
   86SAPS   H6R 8192   4.152   2.902  10.578  1.5589  2.9335  3.2027
   86SAPS   C27 8193   4.104   3.058  10.434  0.4930  0.5868  0.3334
   86SAPS   H7R 8194   4.151   3.109  10.346 -2.5213  2.6277 -0.2471
   86SAPS   H7S 8195   4.088   3.147  10.499  0.5555  0.7629  0.1096
   86SAPS   C28 8196   3.967   3.002  10.415  0.8063  0.6920 -0.1748
   86SAPS   H8R 8197   3.948   2.928  10.494  0.5365 -0.2067 -1.0616
   86SAPS   C29 8198   3.868   3.009  10.319 -0.3709 -0.5224  0.0404
   86SAPS   H9R 8199   3.774   2.955  10.337 -0.4997 -0.3320 -0.0441
   86SAPS  C210 8200   3.881   3.087  10.189  0.3672 -0.3881 -0.3385
   86SAPS  H10R 8201   3.943   3.176  10.212  0.8568 -0.4920 -1.2198
   86SAPS  H10S 8202   3.789   3.135  10.147 -0.5441  0.7228  2.6763
   86SAPS  C211 8203   3.950   3.017  10.075  0.5273 -0.1890 -0.4567
   86SAPS  H11R 8204   4.058   3.004  10.089  0.4921 -0.2643 -0.2589
   86SAPS  C212 8205   3.893   2.960   9.968  0.0673  1.0493  0.1578
   86SAPS  H12R 8206   3.956   2.904   9.898 -0.7537 -0.6004  0.6797
   86SAPS  C213 8207   3.748   2.967   9.935 -0.3076 -0.1775 -0.3069
   86SAPS  H13R 8208   3.692   2.962  10.031  1.2626 -0.3428  0.6377
   86SAPS  H13S 8209   3.718   2.877   9.878 -1.4603 -0.5336  0.8003
   86SAPS  C214 8210   3.718   3.089   9.853 -0.4213 -0.8345  0.4923
   86SAPS  H14R 8211   3.703   3.177   9.918 -2.6382 -0.1996 -0.7663
   86SAPS  C215 8212   3.693   3.109   9.721  0.1759 -0.1185  0.1103
   86SAPS  H15R 8213   3.674   3.211   9.684 -1.6454  0.1263  1.5742
   86SAPS  C216 8214   3.691   3.015   9.603 -0.4050 -0.3167  0.1125
   86SAPS  H16R 8215   3.598   3.021   9.542 -0.2001  0.5391 -0.1324
   86SAPS  H16S 8216   3.699   2.910   9.636  0.0242  0.2480  1.9267
   86SAPS  C217 8217   3.813   3.043   9.508 -0.7303 -0.4006  0.0976
   86SAPS  H17R 8218   3.900   3.058   9.575 -0.0520 -0.8790 -0.6651
   86SAPS  H17S 8219   3.804   3.142   9.458  2.5914 -0.9480 -1.8625
   86SAPS  C218 8220   3.848   2.927   9.416 -0.1720 -0.3249  0.4019
   86SAPS  H18R 8221   3.854   2.836   9.479 -1.7174 -0.2099  0.7799
   86SAPS  H18S 8222   3.947   2.926   9.367 -1.1885  1.0897 -1.8329
   86SAPS  C219 8223   3.752   2.917   9.290 -0.4904  0.5898 -0.4836
   86SAPS  H19R 8224   3.658   2.967   9.325 -1.1775 -0.3536 -0.9425
   86SAPS  H19S 8225   3.731   2.810   9.268 -0.3113 -0.0247  2.0720
   86SAPS  C220 8226   3.793   2.977   9.153 -0.3699 -0.0745  1.0573
   86SAPS  H20R 8227   3.704   2.971   9.086 -0.8397 -0.9397  1.7328
   86SAPS  H20S 8228   3.875   2.922   9.102 -1.6808 -2.0434  0.9463
   86SAPS  H20T 8229   3.815   3.084   9.172 -2.6500  0.5347  0.5748
   86SAPS   C33 8230   4.822   3.236  10.026 -0.6305  0.7999 -0.6111
   86SAPS   H3X 8231   4.775   3.151  10.080 -3.4065  2.4964 -0.1431
   86SAPS   H3Y 8232   4.932   3.227  10.020 -0.6977 -0.3707 -0.3272
   86SAPS   C34 8233   4.758   3.249   9.884  0.1596 -0.2139 -0.5239
   86SAPS   H4X 8234   4.813   3.325   9.823  0.8840 -0.2823  0.0337
   86SAPS   H4Y 8235   4.653   3.284   9.894  0.9572  2.2633 -0.1111
   86SAPS   C35 8236   4.752   3.111   9.814  0.7892 -0.5913 -0.0850
   86SAPS   H5X 8237   4.689   3.033   9.860  1.1854 -0.9854 -0.2034
   86SAPS   H5Y 8238   4.852   3.065   9.833  0.3499 -1.2989  0.5644
   86SAPS   C36 8239   4.741   3.120   9.665  0.0170  0.1333  0.3943
   86SAPS   H6X 8240   4.827   3.179   9.627  0.1316 -0.5890 -0.4804
   86SAPS   H6Y 8241   4.645   3.172   9.642  0.1262  0.2805  0.2730
   86SAPS   C37 8242   4.751   2.983   9.589 -0.2985  0.1778  1.0914
   86SAPS   H7X 8243   4.659   2.926   9.612 -1.3285  0.9846 -0.7664
   86SAPS   H7Y 8244   4.848   2.929   9.595 -0.6382 -0.6444 -0.2684
   86SAPS   C38 8245   4.747   3.014   9.439  0.1015  0.3161 -0.3732
   86SAPS   H8X 8246   4.850   3.013   9.395  0.5097  0.1443  0.5579
   86SAPS   H8Y 8247   4.681   3.102   9.424 -2.0636 -0.9167  1.3576
   86SAPS   C39 8248   4.671   2.891   9.366 -0.1084 -0.4558 -1.5216
   86SAPS   H9X 8249   4.570   2.875   9.409 -0.0926 -0.8240 -1.6258
   86SAPS   H9Y 8250   4.732   2.798   9.371 -3.1443 -2.6507 -2.8825
   86SAPS  C310 8251   4.664   2.923   9.218  0.2335  0.2739 -0.0338
   86SAPS  H10X 8252   4.766   2.950   9.184  0.2146  1.2655  0.6731
   86SAPS  H10Y 8253   4.595   3.008   9.200  1.2467  1.3703  1.0932
   86SAPS  C311 8254   4.645   2.799   9.129  0.1049 -0.2399 -0.3701
   86SAPS  H11X 8255   4.665   2.838   9.028 -2.9538  0.1917 -0.9123
   86SAPS  H11Y 8256   4.541   2.758   9.130  0.5180 -1.3398 -1.1640
   86SAPS  C312 8257   4.745   2.683   9.134 -0.1742  0.3938  0.0608
   86SAPS  H12X 8258   4.742   2.636   9.235  0.0093  0.8622  0.2893
   86SAPS  H12Y 8259   4.848   2.721   9.115  0.4785 -0.2973  2.0061
   86SAPS  C313 8260   4.707   2.575   9.032 -0.1267  0.7326 -0.1751
   86SAPS  H13X 8261   4.802   2.524   9.004 -0.3260  1.0151 -1.4032
   86SAPS  H13Y 8262   4.678   2.608   8.930  2.4129 -1.6174 -1.8222
   86SAPS  C314 8263   4.611   2.472   9.088  0.1631 -0.2742 -0.0448
   86SAPS  H14X 8264   4.531   2.531   9.138 -0.3722 -0.8446 -0.2112
   86SAPS  H14Y 8265   4.671   2.420   9.165 -0.2106 -0.4113  0.1541
   86SAPS  C315 8266   4.551   2.379   8.985  0.1760 -0.1647  0.0392
   86SAPS  H15X 8267   4.509   2.290   9.036 -0.7548  0.9390  1.2774
   86SAPS  H15Y 8268   4.611   2.346   8.897  1.0174  2.5126 -0.4915
   86SAPS  C316 8269   4.420   2.442   8.917  0.1799 -0.5634 -0.1689
   86SAPS  H16X 8270   4.439   2.548   8.889 -1.6802  0.4474  2.0486
   86SAPS  H16Y 8271   4.346   2.450   9.000 -1.1323 -0.2208 -1.3372
   86SAPS  C317 8272   4.364   2.365   8.791  0.0004  0.7457 -0.4002
   86SAPS  H17X 8273   4.357   2.255   8.803 -0.2993  0.7812 -0.2513
   86SAPS  H17Y 8274   4.415   2.382   8.693 -0.6201 -1.2948 -1.1377
   86SAPS  C318 8275   4.215   2.413   8.772 -0.5522  0.6084  0.3822
   86SAPS  H18X 8276   4.159   2.381   8.862  0.0291 -0.4976  0.3731
   86SAPS  H18Y 8277   4.171   2.353   8.689  0.4576  0.1782  0.1331
   86SAPS  H18Z 8278   4.215   2.522   8.752  2.5153  0.5142 -0.7418
   87SAPS     N 8279   5.295   3.784  10.954 -0.0605 -0.2213 -0.5521
   87SAPS   HN1 8280   5.241   3.729  11.024 -0.1274 -0.2899 -0.6589
   87SAPS   HN2 8281   5.294   3.727  10.867  1.1427 -2.1859  0.6242
   87SAPS   HN3 8282   5.393   3.800  10.987  0.0616 -0.9809 -0.5098
   87SAPS   C12 8283   5.231   3.913  10.938 -0.4509 -0.6491 -0.0834
   87SAPS  H12A 8284   5.213   3.943  11.040  1.5904 -0.5623  0.2916
   87SAPS   C13 8285   5.311   4.026  10.870  0.1649 -0.0473 -0.4720
   87SAPS  O13A 8286   5.436   4.026  10.865 -0.5295  0.5134 -0.2391
   87SAPS  O13B 8287   5.252   4.137  10.851  0.0315 -0.2058 -0.0025
   87SAPS   C11 8288   5.102   3.896  10.858 -0.3341 -0.8402  0.2768
   87SAPS  H11A 8289   5.123   3.855  10.757  1.3585 -0.1121  0.3027
   87SAPS  H11B 8290   5.060   3.997  10.836  1.1195 -0.5782 -1.5838
   87SAPS     P 8291   4.922   3.721  10.867  0.1466  0.7916  0.0061
   87SAPS   O13 8292   5.017   3.604  10.844 -0.0901 -0.5795  0.0493
   87SAPS   O14 8293   4.796   3.691  10.944 -0.5235 -0.9591 -0.2500
   87SAPS   O12 8294   5.004   3.832  10.939  0.6396  0.1188 -0.2168
   87SAPS   O11 8295   4.885   3.785  10.727  0.1795 -0.1205  0.2782
   87SAPS    C1 8296   4.813   3.908  10.715  0.0967  0.2559  0.5966
   87SAPS    HA 8297   4.825   3.975  10.803 -2.7280 -0.6279  1.7869
   87SAPS    HB 8298   4.839   3.963  10.622 -2.5654  0.3175 -0.2171
   87SAPS    C2 8299   4.660   3.877  10.699 -0.9027  0.5920 -0.1867
   87SAPS    HS 8300   4.640   3.811  10.786  2.6046 -1.9904 -1.1143
   87SAPS   O21 8301   4.654   3.812  10.573 -0.7706  0.3735 -0.2010
   87SAPS   C21 8302   4.572   3.710  10.574 -0.2649  0.7056  0.0511
   87SAPS   O22 8303   4.511   3.672  10.674 -0.2312 -0.2799 -0.2292
   87SAPS   C22 8304   4.557   3.654  10.438  0.0898  0.9041  0.4571
   87SAPS   H2R 8305   4.506   3.738  10.386 -1.2099  0.5833  1.1624
   87SAPS   H2S 8306   4.658   3.629  10.398 -0.0123  0.5902  0.3916
   87SAPS    C3 8307   4.566   3.999  10.703  0.2028  0.2080  0.3064
   87SAPS    HX 8308   4.579   4.062  10.794  0.5367  1.0542 -0.3153
   87SAPS    HY 8309   4.463   3.957  10.712  0.8044 -1.2115  0.8952
   87SAPS   O31 8310   4.587   4.092  10.592  0.3655  0.1595  0.0632
   87SAPS   C31 8311   4.507   4.067  10.484 -0.0944 -0.7719 -0.2314
   87SAPS   O32 8312   4.415   3.989  10.483 -0.2661  0.0978 -0.3260
   87SAPS   C32 8313   4.542   4.176  10.376  0.4050  0.5011  0.2696
   87SAPS   H2X 8314   4.635   4.148  10.320 -0.0254  2.1827 -1.4171
   87SAPS   H2Y 8315   4.563   4.272  10.428  0.9775  2.1725 -2.7855
   87SAPS   C23 8316   4.443   3.542  10.439 -0.5678  0.2032  0.4128
   87SAPS   H3R 8317   4.352   3.579  10.492  0.2493  1.2867  1.1037
   87SAPS   H3S 8318   4.477   3.459  10.503  0.8483  0.2427 -0.2511
   87SAPS   C24 8319   4.419   3.485  10.298  0.0028 -0.1474 -0.1703
   87SAPS   H4R 8320   4.512   3.447  10.251 -1.1505 -0.4766 -2.3316
   87SAPS   H4S 8321   4.397   3.578  10.240  0.0115  0.8322  1.3549
   87SAPS   C25 8322   4.304   3.400  10.268 -0.0994  0.3424  0.0092
   87SAPS   H5R 8323   4.224   3.411  10.342 -0.2856  1.0982 -0.3010
   87SAPS   C26 8324   4.291   3.314  10.164 -0.5133 -0.1083 -0.7064
   87SAPS   H6R 8325   4.198   3.260  10.142 -1.7696  0.5567  2.4689
   87SAPS   C27 8326   4.386   3.293  10.047  0.3237  0.3649  0.4554
   87SAPS   H7R 8327   4.360   3.189  10.016  1.8695  0.0486  0.1386
   87SAPS   H7S 8328   4.493   3.287  10.076  1.0398 -2.4652 -2.1959
   87SAPS   C28 8329   4.346   3.390   9.940  0.5681 -0.2557 -0.0688
   87SAPS   H8R 8330   4.326   3.494   9.967 -0.3885  0.2129 -2.3214
   87SAPS   C29 8331   4.329   3.360   9.806 -0.2170 -0.1136  0.5272
   87SAPS   H9R 8332   4.309   3.444   9.737  2.6838 -0.7064 -1.2509
   87SAPS  C210 8333   4.356   3.232   9.733 -0.5956 -0.0073  0.3193
   87SAPS  H10R 8334   4.423   3.172   9.797  0.1480 -0.2895 -0.7131
   87SAPS  H10S 8335   4.416   3.246   9.641  2.5493 -0.3297  2.1808
   87SAPS  C211 8336   4.227   3.160   9.710 -0.3106 -0.0086  0.5625
   87SAPS  H11R 8337   4.146   3.159   9.785  1.3566 -0.9688  2.4425
   87SAPS  C212 8338   4.210   3.084   9.601 -0.1323  0.2285 -0.1545
   87SAPS  H12R 8339   4.113   3.037   9.580 -0.3584  0.5539  0.1449
   87SAPS  C213 8340   4.311   3.058   9.491 -0.0231 -0.2961  0.1461
   87SAPS  H13R 8341   4.412   3.048   9.535 -1.2236 -0.3499  3.1510
   87SAPS  H13S 8342   4.320   3.150   9.430 -0.3745  0.7813  1.6501
   87SAPS  C214 8343   4.269   2.943   9.405 -0.8516  0.3337 -0.0590
   87SAPS  H14R 8344   4.249   2.847   9.454  1.1321 -0.8012 -1.3704
   87SAPS  C215 8345   4.260   2.945   9.277  0.3595  0.3866  0.1282
   87SAPS  H15R 8346   4.225   2.856   9.222  1.7731 -0.6746  0.8794
   87SAPS  C216 8347   4.292   3.062   9.182  0.4627  0.0754  0.1285
   87SAPS  H16R 8348   4.402   3.070   9.172  0.3284  0.5914 -1.1601
   87SAPS  H16S 8349   4.261   3.156   9.232 -1.9107 -0.1135 -0.8280
   87SAPS  C217 8350   4.223   3.069   9.036 -0.2291  0.4168 -1.0629
   87SAPS  H17R 8351   4.264   3.165   8.996 -0.1768  1.0930  0.5365
   87SAPS  H17S 8352   4.116   3.092   9.057  0.3203  3.1235 -0.7776
   87SAPS  C218 8353   4.256   2.951   8.949  0.2015  0.5598 -0.2278
   87SAPS  H18R 8354   4.254   2.865   9.019  0.1839  1.7330  1.2578
   87SAPS  H18S 8355   4.359   2.945   8.909  1.9396 -0.2015  3.9052
   87SAPS  C219 8356   4.155   2.928   8.839 -0.3425 -0.5904  0.3963
   87SAPS  H19R 8357   4.156   3.001   8.756  1.5944 -1.0029  0.0009
   87SAPS  H19S 8358   4.049   2.927   8.872 -0.8800 -0.6303 -1.2674
   87SAPS  C220 8359   4.184   2.789   8.772  0.4083  0.6902  0.6170
   87SAPS  H20R 8360   4.099   2.754   8.711 -1.0345 -1.4583  3.6193
   87SAPS  H20S 8361   4.193   2.713   8.853 -0.3426 -0.2665 -0.1841
   87SAPS  H20T 8362   4.279   2.782   8.715  1.2607  0.8956  1.9551
   87SAPS   C33 8363   4.439   4.200  10.263  0.1750  0.2245  0.2332
   87SAPS   H3X 8364   4.385   4.295  10.284  3.8844  2.8371 -1.0690
   87SAPS   H3Y 8365   4.367   4.116  10.262  2.8066 -2.1608 -0.1206
   87SAPS   C34 8366   4.501   4.218  10.125  0.3084 -0.1953  0.1239
   87SAPS   H4X 8367   4.577   4.139  10.109  1.2104  0.3255  1.5680
   87SAPS   H4Y 8368   4.539   4.322  10.111 -0.3821  0.0839  0.3123
   87SAPS   C35 8369   4.389   4.198  10.017 -0.8589 -0.3009  0.1486
   87SAPS   H5X 8370   4.319   4.284  10.025 -0.0846  0.3448  0.0769
   87SAPS   H5Y 8371   4.340   4.100  10.031 -0.4787 -0.5309 -0.1168
   87SAPS   C36 8372   4.451   4.190   9.876  0.4388  0.3119 -0.2717
   87SAPS   H6X 8373   4.381   4.139   9.807 -1.0639  0.4506  1.0695
   87SAPS   H6Y 8374   4.538   4.121   9.886  0.2156  0.3487  3.1890
   87SAPS   C37 8375   4.487   4.320   9.804  0.3566 -0.3560  0.0860
   87SAPS   H7X 8376   4.548   4.381   9.875 -0.7453 -0.2949  1.0116
   87SAPS   H7Y 8377   4.396   4.383   9.793  1.8869  1.9001 -0.5061
   87SAPS   C38 8378   4.560   4.300   9.672  0.5200  0.1684  0.0800
   87SAPS   H8X 8379   4.483   4.246   9.612 -1.0144  1.3507  0.9162
   87SAPS   H8Y 8380   4.647   4.232   9.665  0.0308 -0.3336 -1.6689
   87SAPS   C39 8381   4.593   4.428   9.593 -0.2664  0.5277  0.4289
   87SAPS   H9X 8382   4.659   4.505   9.638  0.9322 -0.5521  0.5889
   87SAPS   H9Y 8383   4.496   4.470   9.558 -0.7675 -1.3610 -0.6305
   87SAPS  C310 8384   4.655   4.389   9.458  0.3815  0.1128 -0.5162
   87SAPS  H10X 8385   4.606   4.301   9.413 -4.5197  2.4175 -0.3328
   87SAPS  H10Y 8386   4.754   4.345   9.481  0.9024  0.8612 -1.2429
   87SAPS  C311 8387   4.666   4.504   9.363 -0.4693 -0.9268  0.6448
   87SAPS  H11X 8388   4.741   4.566   9.415 -0.3274 -0.3697 -0.2096
   87SAPS  H11Y 8389   4.571   4.559   9.350  0.1300 -0.0663 -0.1553
   87SAPS  C312 8390   4.728   4.465   9.221  0.0193  0.5541  0.3371
   87SAPS  H12X 8391   4.828   4.422   9.246  0.7991  1.2268 -1.4349
   87SAPS  H12Y 8392   4.741   4.544   9.145 -0.0881  0.2927  0.0457
   87SAPS  C313 8393   4.641   4.356   9.154  0.3171 -0.3938  0.5385
   87SAPS  H13X 8394   4.536   4.384   9.176  0.3776 -1.1865  1.9397
   87SAPS  H13Y 8395   4.639   4.262   9.213 -3.1351  0.3063  1.7958
   87SAPS  C314 8396   4.668   4.338   9.004  0.3717  0.0667  0.0008
   87SAPS  H14X 8397   4.767   4.293   8.982 -0.1850 -1.2974  0.2077
   87SAPS  H14Y 8398   4.674   4.439   8.957 -2.0092  0.7820  1.0951
   87SAPS  C315 8399   4.560   4.258   8.932 -0.2067  0.6284 -0.1367
   87SAPS  H15X 8400   4.487   4.337   8.905 -0.9520  0.3022  0.8535
   87SAPS  H15Y 8401   4.514   4.185   9.002 -1.3946  0.7859 -0.7341
   87SAPS  C316 8402   4.606   4.186   8.806  0.3298 -0.2550  0.7327
   87SAPS  H16X 8403   4.519   4.121   8.780 -0.5185  1.2394 -0.3426
   87SAPS  H16Y 8404   4.689   4.121   8.840  1.1510  0.8547  0.9039
   87SAPS  C317 8405   4.645   4.274   8.685  0.2948  0.0207 -0.5913
   87SAPS  H17X 8406   4.708   4.358   8.721 -0.0680 -0.0633  0.2676
   87SAPS  H17Y 8407   4.556   4.329   8.646  2.3164  2.7048 -1.7141
   87SAPS  C318 8408   4.701   4.183   8.574 -0.6439 -0.2448  0.1721
   87SAPS  H18X 8409   4.794   4.126   8.596 -2.0584 -2.5577  0.4636
   87SAPS  H18Y 8410   4.721   4.245   8.484  0.7935  0.9657  1.2868
   87SAPS  H18Z 8411   4.619   4.111   8.551  0.0100 -0.3106 -2.1320
   88SAPS     N 8412   0.866   3.586  11.229  0.1440  0.6516  0.6970
   88SAPS   HN1 8413   0.948   3.647  11.211 -0.4895  1.1710 -0.5921
   88SAPS   HN2 8414   0.853   3.567  11.330  1.2727 -0.1378  0.7182
   88SAPS   HN3 8415   0.898   3.488  11.212 -0.2306  0.6235  0.1404
   88SAPS   C12 8416   0.750   3.638  11.158  0.0976 -0.3278 -0.6569
   88SAPS  H12A 8417   0.656   3.607  11.201 -0.7173  1.5870 -0.9380
   88SAPS   C13 8418   0.749   3.797  11.182  0.5098  0.7477 -0.1140
   88SAPS  O13A 8419   0.840   3.847  11.256 -0.6278 -0.3752  0.1835
   88SAPS  O13B 8420   0.638   3.853  11.161  0.2514  0.1901  0.5958
   88SAPS   C11 8421   0.745   3.605  11.001 -0.0143  0.4391 -0.4998
   88SAPS  H11A 8422   0.823   3.653  10.938  0.7081 -1.7592 -1.3708
   88SAPS  H11B 8423   0.655   3.651  10.956  0.8443  2.7423  0.0058
   88SAPS     P 8424   0.611   3.381  10.958  0.1238  0.4710 -0.4211
   88SAPS   O13 8425   0.642   3.240  10.925  0.1770  0.1167 -0.1056
   88SAPS   O14 8426   0.502   3.397  11.058 -0.0013  0.2880 -0.2208
   88SAPS   O12 8427   0.742   3.465  10.983  0.1081 -0.1577 -0.0316
   88SAPS   O11 8428   0.577   3.451  10.821 -0.1807  0.1311  0.1002
   88SAPS    C1 8429   0.665   3.453  10.708 -0.3797 -0.1702  0.6425
   88SAPS    HA 8430   0.738   3.535  10.725 -3.1335  2.5701  0.1561
   88SAPS    HB 8431   0.720   3.357  10.712 -0.5459 -0.2732  0.4674
   88SAPS    C2 8432   0.596   3.470  10.575  0.4541 -1.1841 -0.5927
   88SAPS    HS 8433   0.529   3.558  10.585  2.0754  0.3299 -2.1049
   88SAPS   O21 8434   0.513   3.353  10.549  0.7257  0.3122 -0.0440
   88SAPS   C21 8435   0.400   3.374  10.473  0.3518 -0.1994  0.0510
   88SAPS   O22 8436   0.355   3.490  10.446 -0.4928 -0.3314 -0.7050
   88SAPS   C22 8437   0.347   3.237  10.429 -0.2494  0.3508  0.1592
   88SAPS   H2R 8438   0.423   3.195  10.359 -0.2150 -0.1229  0.4746
   88SAPS   H2S 8439   0.343   3.178  10.523 -2.0006  0.3396  0.0982
   88SAPS    C3 8440   0.701   3.500  10.466  0.6245  0.2405 -0.0469
   88SAPS    HX 8441   0.781   3.422  10.466 -1.5752 -2.1810  1.8941
   88SAPS    HY 8442   0.744   3.600  10.488  0.6552 -0.2646  2.3981
   88SAPS   O31 8443   0.629   3.505  10.345  0.3120 -0.1468  0.0448
   88SAPS   C31 8444   0.712   3.537  10.240  0.4477 -0.5952 -0.1294
   88SAPS   O32 8445   0.830   3.549  10.251 -0.4447  0.1919 -0.2601
   88SAPS   C32 8446   0.625   3.570  10.116  0.2784 -0.1651 -0.8482
   88SAPS   H2X 8447   0.606   3.680  10.119  0.8138 -0.0709 -0.8323
   88SAPS   H2Y 8448   0.534   3.508  10.124 -0.4340  0.9105 -0.3705
   88SAPS   C23 8449   0.206   3.237  10.372 -0.4724  0.4231  0.2166
   88SAPS   H3R 8450   0.135   3.293  10.436 -2.0685 -0.0700 -1.0360
   88SAPS   H3S 8451   0.164   3.135  10.375  0.1865 -0.1850 -4.1613
   88SAPS   C24 8452   0.198   3.281  10.225  0.2064  0.0869 -0.0124
   88SAPS   H4R 8453   0.249   3.212  10.153  1.1828  0.4429  0.3191
   88SAPS   H4S 8454   0.271   3.365  10.223 -0.7494  0.9748  1.1625
   88SAPS   C25 8455   0.058   3.315  10.172  0.5643  0.4784  0.0030
   88SAPS   H5R 8456  -0.018   3.351  10.242  3.0119  0.7859  2.6454
   88SAPS   C26 8457   0.012   3.291  10.044 -0.9406  0.1169 -0.3853
   88SAPS   H6R 8458  -0.092   3.322  10.028 -0.8236  1.2936  0.9442
   88SAPS   C27 8459   0.085   3.236   9.922 -0.3832 -0.9530 -0.0715
   88SAPS   H7R 8460   0.186   3.199   9.950  0.4904  0.8076 -0.6946
   88SAPS   H7S 8461   0.111   3.322   9.855 -0.3445 -0.4952  0.5271
   88SAPS   C28 8462   0.021   3.126   9.843 -0.1227 -0.2913  0.4033
   88SAPS   H8R 8463   0.019   3.030   9.897 -0.7204  0.4400  1.7496
   88SAPS   C29 8464  -0.025   3.135   9.719  0.5786  0.5103  0.1879
   88SAPS   H9R 8465  -0.060   3.040   9.677 -0.0801  0.3526  1.0582
   88SAPS  C210 8466  -0.028   3.254   9.627 -0.0884 -0.0203  1.2985
   88SAPS  H10R 8467   0.056   3.238   9.556 -1.2754  0.7310 -0.3638
   88SAPS  H10S 8468  -0.009   3.349   9.681 -0.7547 -0.6867  2.7430
   88SAPS  C211 8469  -0.158   3.251   9.548 -0.1434  0.2765  0.0566
   88SAPS  H11R 8470  -0.244   3.284   9.608  1.5504 -0.0890  2.8428
   88SAPS  C212 8471  -0.167   3.202   9.423  0.8067  0.1070 -0.7723
   88SAPS  H12R 8472  -0.266   3.196   9.375  1.0224 -3.8783 -1.0243
   88SAPS  C213 8473  -0.064   3.127   9.339 -0.0892  0.4693 -0.4225
   88SAPS  H13R 8474   0.043   3.152   9.355 -0.2225  0.6642  0.1707
   88SAPS  H13S 8475  -0.078   3.138   9.229 -0.0256  0.2600 -0.4511
   88SAPS  C214 8476  -0.067   2.985   9.383  0.2699 -0.3160 -0.1833
   88SAPS  H14R 8477   0.013   2.970   9.457 -0.2908  0.1463  0.5178
   88SAPS  C215 8478  -0.143   2.878   9.347  0.1815  0.4032 -0.0946
   88SAPS  H15R 8479  -0.139   2.786   9.408  2.3294  0.2444 -0.3931
   88SAPS  C216 8480  -0.255   2.888   9.247 -0.2232 -0.7384 -0.4420
   88SAPS  H16R 8481  -0.251   2.995   9.218  2.1937 -0.1893  1.5266
   88SAPS  H16S 8482  -0.353   2.863   9.292  0.7420 -4.0651  0.1225
   88SAPS  C217 8483  -0.245   2.794   9.122 -0.4001 -0.3944  0.0867
   88SAPS  H17R 8484  -0.339   2.814   9.065 -0.4898  0.5860  0.5761
   88SAPS  H17S 8485  -0.245   2.691   9.164  0.3752  0.2407  1.7245
   88SAPS  C218 8486  -0.126   2.824   9.032  0.2330 -0.5517  0.6632
   88SAPS  H18R 8487  -0.027   2.807   9.080  0.4286 -0.5570  0.2629
   88SAPS  H18S 8488  -0.129   2.927   8.989  1.1741 -1.1820 -0.9871
   88SAPS  C219 8489  -0.135   2.735   8.910  0.1117  0.3718 -0.1475
   88SAPS  H19R 8490  -0.158   2.632   8.943 -1.2713  0.3549 -1.0821
   88SAPS  H19S 8491  -0.035   2.743   8.860  1.5694  3.2716  2.8619
   88SAPS  C220 8492  -0.239   2.773   8.808 -0.4653  0.5186  0.5224
   88SAPS  H20R 8493  -0.200   2.869   8.769  1.1495 -0.7215 -1.1038
   88SAPS  H20S 8494  -0.338   2.791   8.855  0.5925  0.2257  3.0140
   88SAPS  H20T 8495  -0.251   2.699   8.726  1.0947  1.9558 -1.0788
   88SAPS   C33 8496   0.712   3.551   9.987  0.4103  0.1926  0.3583
   88SAPS   H3X 8497   0.730   3.442   9.983 -2.2694 -0.2948 -3.0844
   88SAPS   H3Y 8498   0.808   3.606   9.990  0.7532 -0.3220 -0.7826
   88SAPS   C34 8499   0.643   3.610   9.869  0.5531  0.7946 -0.0430
   88SAPS   H4X 8500   0.618   3.718   9.885  0.5063  0.5068  2.2221
   88SAPS   H4Y 8501   0.551   3.552   9.847  0.8426  0.0217  0.7203
   88SAPS   C35 8502   0.737   3.611   9.742 -0.1072  0.7720 -0.0556
   88SAPS   H5X 8503   0.844   3.615   9.770  0.4906  1.7883 -2.2884
   88SAPS   H5Y 8504   0.711   3.692   9.670 -0.3682 -0.1486 -1.0266
   88SAPS   C36 8505   0.716   3.471   9.668 -0.0109 -0.3166 -0.6300
   88SAPS   H6X 8506   0.609   3.466   9.639  0.3457 -0.5237 -1.9796
   88SAPS   H6Y 8507   0.733   3.390   9.743  2.8552  1.1953  0.5535
   88SAPS   C37 8508   0.802   3.445   9.543  0.2457 -0.6961 -0.0046
   88SAPS   H7X 8509   0.763   3.363   9.479  0.6586 -0.1749 -0.9406
   88SAPS   H7Y 8510   0.902   3.418   9.585  0.0917 -1.1411  0.0861
   88SAPS   C38 8511   0.825   3.561   9.444 -0.1989 -0.3801 -0.1156
   88SAPS   H8X 8512   0.895   3.632   9.493 -0.7742  1.7820 -2.2417
   88SAPS   H8Y 8513   0.732   3.622   9.441 -0.6956 -1.1562 -1.4082
   88SAPS   C39 8514   0.875   3.515   9.312  0.1215  0.1020 -0.6078
   88SAPS   H9X 8515   0.936   3.423   9.330  1.3979  1.3376  1.9165
   88SAPS   H9Y 8516   0.930   3.591   9.253  0.4920 -0.6409 -1.2478
   88SAPS  C310 8517   0.756   3.476   9.213 -0.9986  0.3506  0.0948
   88SAPS  H10X 8518   0.722   3.572   9.168 -2.8573  0.5030  1.7080
   88SAPS  H10Y 8519   0.665   3.448   9.269 -0.2811 -0.7865  0.7340
   88SAPS  C311 8520   0.796   3.386   9.095  0.3495 -0.2765 -0.4603
   88SAPS  H11X 8521   0.835   3.291   9.137 -0.4071 -0.6992 -0.6878
   88SAPS  H11Y 8522   0.874   3.432   9.030 -0.4242  1.5129 -0.1850
   88SAPS  C312 8523   0.674   3.350   9.012  0.0531  0.4618 -0.0065
   88SAPS  H12X 8524   0.636   3.442   8.964 -1.9025  1.8916  3.7998
   88SAPS  H12Y 8525   0.593   3.312   9.079  1.4305  0.8470  1.9753
   88SAPS  C313 8526   0.714   3.246   8.907  0.6101  0.5241  0.0829
   88SAPS  H13X 8527   0.649   3.156   8.912  1.3130  0.0551  1.2051
   88SAPS  H13Y 8528   0.821   3.219   8.922  0.7815  0.5425 -1.0136
   88SAPS  C314 8529   0.708   3.314   8.764  0.0903  0.2922 -0.4702
   88SAPS  H14X 8530   0.603   3.346   8.745 -0.1814 -0.4468 -0.2245
   88SAPS  H14Y 8531   0.736   3.230   8.697  0.2699  1.6678 -2.2091
   88SAPS  C315 8532   0.810   3.424   8.746  0.2689 -0.0466 -0.2048
   88SAPS  H15X 8533   0.904   3.396   8.800  0.0939 -0.9875 -0.3584
   88SAPS  H15Y 8534   0.766   3.515   8.791  0.0987 -1.0346  1.7227
   88SAPS  C316 8535   0.834   3.449   8.598  0.2168 -0.3254  0.3468
   88SAPS  H16X 8536   0.845   3.355   8.540  0.8482  0.4160 -0.7855
   88SAPS  H16Y 8537   0.911   3.527   8.576 -1.5509  1.2338 -0.5554
   88SAPS  C317 8538   0.715   3.522   8.532 -0.2333 -0.0697  1.0002
   88SAPS  H17X 8539   0.677   3.616   8.579  0.6100 -0.0475  1.6730
   88SAPS  H17Y 8540   0.622   3.462   8.536 -1.5950  1.5997 -2.0282
   88SAPS  C318 8541   0.733   3.554   8.388 -0.0356  0.4594 -0.1537
   88SAPS  H18X 8542   0.824   3.615   8.369 -0.5003  1.5593  1.0203
   88SAPS  H18Y 8543   0.645   3.603   8.342  0.2532  1.9720  0.8401
   88SAPS  H18Z 8544   0.759   3.454   8.346  0.7965 -0.8028  2.9791
   89SAPS     N 8545   5.513   4.186  10.668 -0.2033 -0.1538  0.5783
   89SAPS   HN1 8546   5.452   4.219  10.591  1.3147  1.8810  0.1460
   89SAPS   HN2 8547   5.588   4.131  10.621 -0.8105 -0.1029 -0.4735
   89SAPS   HN3 8548   5.466   4.118  10.731  0.7187 -0.3816  1.0539
   89SAPS   C12 8549   5.550   4.312  10.742 -0.4757  1.0552 -0.3747
   89SAPS  H12A 8550   5.475   4.328  10.818  1.1907 -0.6272  1.7561
   89SAPS   C13 8551   5.679   4.295  10.831 -0.2095 -0.1298  0.0997
   89SAPS  O13A 8552   5.753   4.195  10.815 -0.3259 -0.0439  0.5031
   89SAPS  O13B 8553   5.716   4.400  10.892  0.2948  0.0591  0.0697
   89SAPS   C11 8554   5.563   4.434  10.647 -0.2282 -0.0345 -0.7485
   89SAPS  H11A 8555   5.640   4.412  10.570  2.4450 -1.2946  2.0767
   89SAPS  H11B 8556   5.607   4.517  10.707 -1.2242 -0.2424  0.3055
   89SAPS     P 8557   5.355   4.584  10.654 -0.1411 -0.2754  0.0958
   89SAPS   O13 8558   5.271   4.534  10.763  0.2855 -0.4866 -0.0424
   89SAPS   O14 8559   5.442   4.700  10.683  0.4356  0.3912  0.3103
   89SAPS   O12 8560   5.445   4.468  10.590  0.2081  0.1894  0.1413
   89SAPS   O11 8561   5.264   4.625  10.541 -0.3791 -0.8986 -0.1883
   89SAPS    C1 8562   5.175   4.737  10.540  0.3309 -0.5989 -0.3802
   89SAPS    HA 8563   5.098   4.712  10.615 -0.1568  0.1580 -0.6078
   89SAPS    HB 8564   5.229   4.828  10.575  1.7038 -1.1434 -0.9990
   89SAPS    C2 8565   5.118   4.770  10.402  0.0687 -0.7930  0.0773
   89SAPS    HS 8566   5.064   4.683  10.359 -1.3504  1.2926 -2.7083
   89SAPS   O21 8567   5.211   4.816  10.306  0.3224 -0.0170  0.3399
   89SAPS   C21 8568   5.285   4.732  10.242 -0.5400 -0.1209  0.1611
   89SAPS   O22 8569   5.276   4.612  10.251 -0.0701  0.2332  0.4356
   89SAPS   C22 8570   5.392   4.805  10.163 -0.9002  0.0162  0.4528
   89SAPS   H2R 8571   5.440   4.871  10.237  0.4097 -2.5615  2.0467
   89SAPS   H2S 8572   5.460   4.729  10.119 -1.3202 -0.1126  0.0177
   89SAPS    C3 8573   5.008   4.883  10.412  0.1084 -0.5503  0.1921
   89SAPS    HX 8574   5.047   4.967  10.475 -1.4898 -0.7070  1.4570
   89SAPS    HY 8575   4.920   4.843  10.466 -0.8730  1.5086  0.2389
   89SAPS   O31 8576   4.959   4.928  10.280 -0.1820  0.0842 -0.4263
   89SAPS   C31 8577   4.996   5.048  10.236  0.0487 -0.6699  0.3677
   89SAPS   O32 8578   5.089   5.117  10.272  0.2600 -0.2902 -0.1803
   89SAPS   C32 8579   4.930   5.065  10.096 -0.0991 -0.3792  0.1981
   89SAPS   H2X 8580   4.822   5.073  10.120  0.4656  1.7328  2.4728
   89SAPS   H2Y 8581   4.954   4.974  10.036  0.1391  0.2067 -0.6068
   89SAPS   C23 8582   5.342   4.873  10.040  0.1294 -0.1005  0.3152
   89SAPS   H3R 8583   5.268   4.948  10.077  1.7665  3.2262 -2.5389
   89SAPS   H3S 8584   5.292   4.799   9.973  0.0636 -0.6608  0.9732
   89SAPS   C24 8585   5.437   4.959   9.950  0.6448  0.3001 -0.5033
   89SAPS   H4R 8586   5.482   5.051   9.993  0.0257  0.4968 -0.2652
   89SAPS   H4S 8587   5.367   4.995   9.871  0.3926  0.8201 -0.0488
   89SAPS   C25 8588   5.553   4.881   9.892 -0.0679 -0.0213  0.1247
   89SAPS   H5R 8589   5.620   4.862   9.976 -1.5209 -2.0283  0.9152
   89SAPS   C26 8590   5.580   4.845   9.771 -0.0651  0.7625 -0.5297
   89SAPS   H6R 8591   5.682   4.803   9.768  0.4005  1.9169 -1.7212
   89SAPS   C27 8592   5.505   4.857   9.642 -0.4337 -0.6740  0.0431
   89SAPS   H7R 8593   5.558   4.935   9.583  0.1846  0.4964  2.0491
   89SAPS   H7S 8594   5.411   4.916   9.652  1.2722  2.2459  0.0262
   89SAPS   C28 8595   5.480   4.721   9.581 -0.3700  0.0262 -0.0161
   89SAPS   H8R 8596   5.460   4.638   9.650  0.4676 -0.6215 -0.5413
   89SAPS   C29 8597   5.457   4.709   9.446  0.0681 -0.5624 -0.0496
   89SAPS   H9R 8598   5.425   4.611   9.409 -0.8648  0.1434 -1.1593
   89SAPS  C210 8599   5.462   4.815   9.341 -0.3088 -0.2751 -0.0875
   89SAPS  H10R 8600   5.563   4.830   9.297 -0.1181 -2.1287 -0.3322
   89SAPS  H10S 8601   5.429   4.910   9.389  2.2372  1.1980 -1.0842
   89SAPS  C211 8602   5.362   4.778   9.227  0.3729 -0.3245 -0.4663
   89SAPS  H11R 8603   5.274   4.723   9.262  1.0685 -1.3365 -0.2736
   89SAPS  C212 8604   5.373   4.809   9.096 -0.8221  0.0923  0.4755
   89SAPS  H12R 8605   5.303   4.757   9.029 -1.6966  2.2715 -0.4200
   89SAPS  C213 8606   5.493   4.878   9.040 -0.6698 -0.1687 -0.1881
   89SAPS  H13R 8607   5.549   4.939   9.115 -0.3021  0.4639 -0.9571
   89SAPS  H13S 8608   5.464   4.958   8.969 -0.7366  0.4181  0.4862
   89SAPS  C214 8609   5.583   4.780   8.969 -0.7398  0.2211 -1.0950
   89SAPS  H14R 8610   5.682   4.773   9.017 -1.0206 -1.1688 -0.6686
   89SAPS  C215 8611   5.567   4.707   8.858  0.3108 -0.4703 -0.4972
   89SAPS  H15R 8612   5.652   4.645   8.824 -0.0229 -0.4677 -1.3556
   89SAPS  C216 8613   5.439   4.700   8.771 -0.5500  0.1920  0.4646
   89SAPS  H16R 8614   5.357   4.755   8.823 -0.8768  0.1087  0.0434
   89SAPS  H16S 8615   5.409   4.593   8.768 -0.4971  0.1903 -0.0436
   89SAPS  C217 8616   5.451   4.763   8.626  0.1977  0.2022 -0.2985
   89SAPS  H17R 8617   5.351   4.736   8.588  0.0570 -0.9528  0.8156
   89SAPS  H17S 8618   5.534   4.711   8.573 -0.4173 -0.3480 -0.7408
   89SAPS  C218 8619   5.458   4.912   8.636 -0.0007 -0.6135 -0.2539
   89SAPS  H18R 8620   5.539   4.949   8.703 -0.8850 -0.6738  0.8789
   89SAPS  H18S 8621   5.372   4.949   8.696  0.2785 -1.2359  0.5472
   89SAPS  C219 8622   5.455   4.982   8.503  0.1772 -0.4725  1.4362
   89SAPS  H19R 8623   5.411   5.083   8.519 -0.2779 -0.5258  0.5562
   89SAPS  H19S 8624   5.388   4.928   8.432  1.6921  0.9152 -1.2255
   89SAPS  C220 8625   5.590   4.998   8.425  0.7032  0.0073  0.3076
   89SAPS  H20R 8626   5.649   4.904   8.431 -0.4607 -0.7428  0.1299
   89SAPS  H20S 8627   5.646   5.077   8.481 -0.5089  1.1420 -0.0383
   89SAPS  H20T 8628   5.569   5.020   8.318 -2.1760 -0.6067  0.6783
   89SAPS   C33 8629   4.970   5.195  10.021 -0.3249  0.3057  0.2899
   89SAPS   H3X 8630   4.984   5.279  10.092 -1.1421  2.0010 -1.4441
   89SAPS   H3Y 8631   4.893   5.222   9.945 -1.5266 -0.6862  1.1131
   89SAPS   C34 8632   5.111   5.173   9.953  0.7010 -0.5833 -0.4081
   89SAPS   H4X 8633   5.103   5.108   9.863  0.2445 -1.0318 -0.0440
   89SAPS   H4Y 8634   5.190   5.138  10.023  0.5973 -0.4618 -0.2300
   89SAPS   C35 8635   5.161   5.315   9.915 -0.0884  0.3640 -0.6025
   89SAPS   H5X 8636   5.173   5.390   9.996  0.7191  2.8552 -2.8733
   89SAPS   H5Y 8637   5.087   5.372   9.854 -0.6537  1.0216  0.6501
   89SAPS   C36 8638   5.295   5.317   9.835  0.4501  0.4282 -0.0500
   89SAPS   H6X 8639   5.366   5.245   9.881 -0.3327 -1.1811 -1.2522
   89SAPS   H6Y 8640   5.337   5.419   9.829  1.5000  0.0929  1.2630
   89SAPS   C37 8641   5.275   5.280   9.686  0.0451 -0.7322 -0.2211
   89SAPS   H7X 8642   5.192   5.342   9.648 -0.3926 -0.6979  0.7696
   89SAPS   H7Y 8643   5.242   5.174   9.681  1.1287 -1.0492 -1.0875
   89SAPS   C38 8644   5.413   5.308   9.623  0.1624 -0.3300 -0.3479
   89SAPS   H8X 8645   5.479   5.236   9.675 -1.5325 -0.6465  1.4767
   89SAPS   H8Y 8646   5.441   5.414   9.646  3.4463 -1.3514  1.0188
   89SAPS   C39 8647   5.401   5.288   9.477 -0.5622 -0.4544 -1.0364
   89SAPS   H9X 8648   5.296   5.322   9.460 -0.7557 -0.3352  0.2724
   89SAPS   H9Y 8649   5.408   5.180   9.452  0.7217 -0.1108 -2.3129
   89SAPS  C310 8650   5.494   5.367   9.387 -0.6385  0.4724 -0.3498
   89SAPS  H10X 8651   5.594   5.318   9.390 -0.8891 -0.6838 -4.3538
   89SAPS  H10Y 8652   5.495   5.475   9.412  0.9552 -0.1335  2.6864
   89SAPS  C311 8653   5.464   5.345   9.236 -0.2461 -0.2188 -0.0188
   89SAPS  H11X 8654   5.375   5.403   9.202 -0.7090  0.4127  2.1106
   89SAPS  H11Y 8655   5.446   5.237   9.214 -4.3723  0.5141 -1.1056
   89SAPS  C312 8656   5.566   5.401   9.138  0.4303 -0.4755 -0.0962
   89SAPS  H12X 8657   5.664   5.357   9.167  2.5037  2.6249 -1.8568
   89SAPS  H12Y 8658   5.569   5.512   9.141 -0.0908 -0.4848  0.9806
   89SAPS  C313 8659   5.531   5.362   8.997 -0.2387 -0.8338  0.1682
   89SAPS  H13X 8660   5.431   5.404   8.975 -0.2672 -0.5033  0.9179
   89SAPS  H13Y 8661   5.542   5.254   8.971  0.8116 -0.5487 -0.6567
   89SAPS  C314 8662   5.634   5.432   8.895 -0.6285  0.3728  0.1674
   89SAPS  H14X 8663   5.729   5.380   8.923 -1.2733 -0.6590  0.4886
   89SAPS  H14Y 8664   5.646   5.542   8.902 -2.6429  1.0099 -3.6710
   89SAPS  C315 8665   5.605   5.383   8.752 -0.2260 -0.0707 -0.2397
   89SAPS  H15X 8666   5.504   5.424   8.733 -0.0999  1.0851  1.4256
   89SAPS  H15Y 8667   5.596   5.272   8.742  2.0787 -0.3982  0.8095
   89SAPS  C316 8668   5.707   5.447   8.664  0.3002 -0.7097  0.1356
   89SAPS  H16X 8669   5.813   5.424   8.692  0.3717  1.9109  2.4457
   89SAPS  H16Y 8670   5.704   5.558   8.674 -1.0644 -0.5675 -1.5967
   89SAPS  C317 8671   5.700   5.424   8.514  0.1638  0.0045  0.0823
   89SAPS  H17X 8672   5.728   5.318   8.496  0.3706  0.1975 -0.7473
   89SAPS  H17Y 8673   5.768   5.494   8.462 -0.8919 -2.0149 -4.5014
   89SAPS  C318 8674   5.561   5.441   8.448 -0.3354  0.3953 -0.2851
   89SAPS  H18X 8675   5.483   5.373   8.488 -0.1473 -0.7230 -1.7251
   89SAPS  H18Y 8676   5.564   5.416   8.339  0.5868  1.0712 -0.4323
   89SAPS  H18Z 8677   5.538   5.547   8.467  2.1500  0.9309  0.1065
   90SAPS     N 8678   1.159   0.330  10.613 -0.4210  0.1167  0.7374
   90SAPS   HN1 8679   1.152   0.249  10.548  0.6592 -1.8747  2.9344
   90SAPS   HN2 8680   1.071   0.384  10.629  0.6624  2.4202 -0.6443
   90SAPS   HN3 8681   1.230   0.398  10.579 -2.4187  1.5548 -0.7755
   90SAPS   C12 8682   1.205   0.282  10.742  0.0516 -0.7844 -0.3360
   90SAPS  H12A 8683   1.303   0.236  10.728  0.6873  0.8428 -1.4758
   90SAPS   C13 8684   1.220   0.381  10.857  0.6476  0.0515  0.6468
   90SAPS  O13A 8685   1.175   0.498  10.828 -0.4452 -0.6203  0.1217
   90SAPS  O13B 8686   1.216   0.330  10.973  0.0334  0.2693 -0.0441
   90SAPS   C11 8687   1.112   0.168  10.770  0.1994  0.4632  0.1976
   90SAPS  H11A 8688   1.006   0.200  10.762 -0.2027 -0.9541 -0.6006
   90SAPS  H11B 8689   1.126   0.139  10.876  0.9946 -0.0368 -0.0313
   90SAPS     P 8690   1.069  -0.083  10.711 -0.7607 -0.2018  0.2122
   90SAPS   O13 8691   1.117  -0.186  10.620 -0.0602 -0.1005  0.4211
   90SAPS   O14 8692   1.091  -0.110  10.857  0.1713 -0.5835 -0.0033
   90SAPS   O12 8693   1.139   0.052  10.687 -0.0313 -0.6870  0.1531
   90SAPS   O11 8694   0.914  -0.051  10.682 -0.2204 -0.3882  0.6230
   90SAPS    C1 8695   0.842  -0.044  10.560 -0.1181 -0.0564  0.1660
   90SAPS    HA 8696   0.807   0.061  10.544  0.8310  0.0930 -1.1851
   90SAPS    HB 8697   0.909  -0.072  10.475  1.2270  2.2306  0.3845
   90SAPS    C2 8698   0.720  -0.134  10.557  0.0126  1.3745 -0.4405
   90SAPS    HS 8699   0.688  -0.150  10.663  4.3436  2.4841  1.2234
   90SAPS   O21 8700   0.759  -0.259  10.488 -0.0656 -0.0625 -0.1860
   90SAPS   C21 8701   0.686  -0.375  10.524 -0.4591 -0.0241  0.0853
   90SAPS   O22 8702   0.600  -0.373  10.613 -0.6223 -1.2021  0.3060
   90SAPS   C22 8703   0.735  -0.498  10.445 -0.1751  0.3137  0.7714
   90SAPS   H2R 8704   0.823  -0.470  10.383 -0.0365 -0.6712  0.5000
   90SAPS   H2S 8705   0.764  -0.576  10.519  0.4345 -0.8366 -0.6252
   90SAPS    C3 8706   0.613  -0.068  10.477  0.1253 -0.3191 -0.8552
   90SAPS    HX 8707   0.579   0.022  10.534 -0.1714 -0.6360 -0.5284
   90SAPS    HY 8708   0.520  -0.126  10.456 -0.4740  0.1846  0.3056
   90SAPS   O31 8709   0.660  -0.024  10.347  0.3389  0.2048 -0.1531
   90SAPS   C31 8710   0.631  -0.103  10.245 -0.1502  0.9690 -0.4270
   90SAPS   O32 8711   0.556  -0.204  10.253 -0.1538  0.8996 -0.1364
   90SAPS   C32 8712   0.718  -0.066  10.129 -0.5313 -0.5229  0.4053
   90SAPS   H2X 8713   0.814  -0.122  10.126 -0.1302  0.1902 -0.6236
   90SAPS   H2Y 8714   0.752   0.039  10.137 -1.3231 -0.0361 -1.7994
   90SAPS   C23 8715   0.629  -0.550  10.357 -0.2016 -0.3268  0.2610
   90SAPS   H3R 8716   0.600  -0.465  10.291 -0.2753 -2.1341 -2.1961
   90SAPS   H3S 8717   0.537  -0.572  10.415 -0.9675 -0.7337 -1.0605
   90SAPS   C24 8718   0.669  -0.684  10.278  0.3024 -0.4894 -0.2430
   90SAPS   H4R 8719   0.673  -0.757  10.361 -2.0758 -0.5402 -0.0993
   90SAPS   H4S 8720   0.774  -0.676  10.242  0.7453  0.3026  1.1527
   90SAPS   C25 8721   0.564  -0.728  10.184  0.1027 -0.4723  0.4909
   90SAPS   H5R 8722   0.484  -0.794  10.221 -1.6061 -0.7200 -3.2278
   90SAPS   C26 8723   0.549  -0.695  10.053 -0.0819 -0.2466  0.1935
   90SAPS   H6R 8724   0.468  -0.744   9.998 -1.7851  3.5522 -1.0508
   90SAPS   C27 8725   0.633  -0.615   9.958 -0.2464 -0.4437  0.0206
   90SAPS   H7R 8726   0.649  -0.680   9.870  0.5220  1.0936 -1.0229
   90SAPS   H7S 8727   0.737  -0.596   9.992 -0.0970  1.3192 -1.2793
   90SAPS   C28 8728   0.586  -0.474   9.921  0.5057  0.2515 -0.2797
   90SAPS   H8R 8729   0.535  -0.415   9.999  1.2404  1.6701 -0.8373
   90SAPS   C29 8730   0.579  -0.423   9.797 -0.2704  0.8241  0.3078
   90SAPS   H9R 8731   0.544  -0.321   9.775  2.2084  1.9998  1.4461
   90SAPS  C210 8732   0.619  -0.508   9.675  0.1951  0.0742  0.1479
   90SAPS  H10R 8733   0.564  -0.604   9.687 -0.5196  0.4121 -0.3155
   90SAPS  H10S 8734   0.722  -0.545   9.691 -0.4279 -0.4538  3.9997
   90SAPS  C211 8735   0.588  -0.451   9.537  0.1214 -0.5188 -0.0278
   90SAPS  H11R 8736   0.519  -0.365   9.540  3.0056  1.9151  0.7022
   90SAPS  C212 8737   0.617  -0.487   9.414  0.4546 -0.1303  0.9415
   90SAPS  H12R 8738   0.594  -0.413   9.336  0.3470 -1.2312 -0.0991
   90SAPS  C213 8739   0.707  -0.604   9.375  0.0084  0.0305 -0.8343
   90SAPS  H13R 8740   0.701  -0.683   9.453 -1.1744 -0.0539 -0.9846
   90SAPS  H13S 8741   0.808  -0.560   9.382  0.5246 -1.2626  0.2320
   90SAPS  C214 8742   0.674  -0.661   9.241  0.6062  0.2493 -0.3435
   90SAPS  H14R 8743   0.606  -0.747   9.237  0.8090  0.0906 -0.3613
   90SAPS  C215 8744   0.699  -0.619   9.117 -0.6048 -0.1718  0.0293
   90SAPS  H15R 8745   0.659  -0.675   9.030  0.0183  0.9512 -1.0134
   90SAPS  C216 8746   0.778  -0.497   9.079 -0.0539 -0.7865  0.1984
   90SAPS  H16R 8747   0.883  -0.524   9.055 -0.1884  0.1427 -1.6690
   90SAPS  H16S 8748   0.789  -0.425   9.162  2.5372 -1.5991  0.6298
   90SAPS  C217 8749   0.715  -0.420   8.962 -0.1986 -0.3915  0.9303
   90SAPS  H17R 8750   0.767  -0.322   8.974  1.8387 -1.6203  3.1198
   90SAPS  H17S 8751   0.607  -0.402   8.983 -0.1290 -0.3092  1.2260
   90SAPS  C218 8752   0.737  -0.486   8.818  0.0312  0.5839 -0.7317
   90SAPS  H18R 8753   0.671  -0.575   8.821 -0.0971  0.6760  1.9450
   90SAPS  H18S 8754   0.844  -0.511   8.802  0.1341  0.3722  0.2243
   90SAPS  C219 8755   0.706  -0.394   8.698 -0.0527 -0.8629  0.0490
   90SAPS  H19R 8756   0.783  -0.315   8.693 -0.8397 -0.1546 -1.5853
   90SAPS  H19S 8757   0.612  -0.334   8.706  0.9667  0.7077  0.5914
   90SAPS  C220 8758   0.685  -0.469   8.566 -0.7788 -0.7249  0.0808
   90SAPS  H20R 8759   0.631  -0.406   8.491  1.8962  0.8943 -0.6157
   90SAPS  H20S 8760   0.618  -0.555   8.589 -1.0624 -0.0405  2.0306
   90SAPS  H20T 8761   0.784  -0.497   8.525  0.2240  1.9629  0.4737
   90SAPS   C33 8762   0.664  -0.086   9.982 -0.1332  0.1945  0.2526
   90SAPS   H3X 8763   0.566  -0.036   9.965 -0.4071 -0.6157 -0.6660
   90SAPS   H3Y 8764   0.644  -0.194   9.970 -0.2183  0.2919 -0.5458
   90SAPS   C34 8765   0.770  -0.029   9.877 -0.1985  0.0040  0.2334
   90SAPS   H4X 8766   0.865  -0.085   9.872  0.0999  0.2530  2.3086
   90SAPS   H4Y 8767   0.791   0.079   9.891  2.9979 -0.4688 -0.2014
   90SAPS   C35 8768   0.706  -0.042   9.729 -1.3071 -0.5186  0.2023
   90SAPS   H5X 8769   0.622   0.031   9.724  0.4878  1.5695 -2.0691
   90SAPS   H5Y 8770   0.690  -0.149   9.703  0.5797 -0.4799 -1.3178
   90SAPS   C36 8771   0.808   0.004   9.623 -0.7460 -0.3469  0.6759
   90SAPS   H6X 8772   0.888  -0.072   9.611 -1.3228 -1.1854  1.9898
   90SAPS   H6Y 8773   0.865   0.093   9.658  1.2550 -0.9742 -0.8186
   90SAPS   C37 8774   0.762   0.012   9.481  0.4339 -0.6498  0.3958
   90SAPS   H7X 8775   0.843   0.052   9.416 -0.5110  0.2376 -0.2729
   90SAPS   H7Y 8776   0.679   0.084   9.467  0.6083 -0.1195  1.9028
   90SAPS   C38 8777   0.718  -0.129   9.431  0.3645  1.0492  0.1612
   90SAPS   H8X 8778   0.624  -0.171   9.472  1.4285 -3.0945 -1.1477
   90SAPS   H8Y 8779   0.795  -0.203   9.462 -0.3896  1.1954  2.5864
   90SAPS   C39 8780   0.700  -0.133   9.277  0.5640  0.0581 -0.1471
   90SAPS   H9X 8781   0.700  -0.241   9.252 -0.5613 -0.0210  0.1016
   90SAPS   H9Y 8782   0.794  -0.098   9.230  2.9714 -1.9008  2.7920
   90SAPS  C310 8783   0.579  -0.065   9.217 -0.1423 -0.8899 -0.0858
   90SAPS  H10X 8784   0.573   0.040   9.251  0.7465 -0.7058 -0.4703
   90SAPS  H10Y 8785   0.484  -0.105   9.257 -0.7694 -1.6847 -2.2260
   90SAPS  C311 8786   0.572  -0.081   9.066  0.1489 -0.2175 -0.0767
   90SAPS  H11X 8787   0.471  -0.050   9.033 -0.4119 -3.3165 -1.6601
   90SAPS  H11Y 8788   0.575  -0.188   9.036  2.0919  0.0155 -0.9000
   90SAPS  C312 8789   0.677   0.007   8.983  0.2946 -0.1300 -0.4930
   90SAPS  H12X 8790   0.778  -0.034   9.003  0.3025 -0.1324 -0.5387
   90SAPS  H12Y 8791   0.659   0.106   9.031 -2.5808 -0.7602 -0.0740
   90SAPS  C313 8792   0.641   0.013   8.835  0.2525  0.8916  0.7145
   90SAPS  H13X 8793   0.535   0.042   8.819  0.1150  0.7803  1.3952
   90SAPS  H13Y 8794   0.662  -0.087   8.790 -1.4446 -0.3827  2.5897
   90SAPS  C314 8795   0.734   0.119   8.768 -0.6547  0.3022 -0.3975
   90SAPS  H14X 8796   0.832   0.104   8.819 -0.9913 -1.1825 -0.1194
   90SAPS  H14Y 8797   0.689   0.216   8.797  0.4854  0.6781  0.1849
   90SAPS  C315 8798   0.741   0.104   8.613  0.6309  0.3278 -0.1176
   90SAPS  H15X 8799   0.766  -0.000   8.584  1.3481  0.5519 -0.3260
   90SAPS  H15Y 8800   0.820   0.173   8.576  1.1780 -0.0964  0.2456
   90SAPS  C316 8801   0.600   0.127   8.541 -0.2190 -0.1910 -0.8902
   90SAPS  H16X 8802   0.578   0.236   8.537 -1.2409 -0.2354  1.6432
   90SAPS  H16Y 8803   0.510   0.084   8.591 -0.7813  0.2929 -1.4543
   90SAPS  C317 8804   0.594   0.084   8.394  0.2823 -0.2087  0.4794
   90SAPS  H17X 8805   0.630  -0.020   8.378  4.5891  1.1456 -0.1080
   90SAPS  H17Y 8806   0.667   0.139   8.331 -0.5759  0.7715  0.3244
   90SAPS  C318 8807   0.463   0.103   8.314  0.5509 -0.0535 -0.5357
   90SAPS  H18X 8808   0.436   0.211   8.313  1.4090  0.1985  0.5371
   90SAPS  H18Y 8809   0.381   0.044   8.360 -0.8487  0.1485 -2.6051
   90SAPS  H18Z 8810   0.469   0.060   8.212 -0.6962 -0.1481 -0.5875
   91SAPS     N 8811   4.999   5.003   5.828  0.1900  0.4211  0.0807
   91SAPS   HN1 8812   5.052   4.974   5.913  0.3249  1.1556  0.2533
   91SAPS   HN2 8813   5.057   5.011   5.742 -1.8769  0.1547 -1.3997
   91SAPS   HN3 8814   4.961   5.098   5.847 -0.5428  0.2574 -0.5190
   91SAPS   C12 8815   4.892   4.904   5.803  0.5383 -0.3038 -0.2425
   91SAPS  H12A 8816   4.826   4.914   5.888 -0.2162  0.1834 -0.8781
   91SAPS   C13 8817   4.802   4.944   5.677  0.0032 -0.3078 -0.3580
   91SAPS  O13A 8818   4.842   5.044   5.612 -0.1576 -0.3444  0.3692
   91SAPS  O13B 8819   4.698   4.882   5.658 -0.3405  0.5466  0.0362
   91SAPS   C11 8820   4.936   4.757   5.795 -0.6339 -0.7285 -0.0381
   91SAPS  H11A 8821   4.969   4.744   5.690  0.8006  1.7238  0.0390
   91SAPS  H11B 8822   4.847   4.692   5.810 -0.6178 -0.1296  3.9325
   91SAPS     P 8823   5.080   4.581   5.920  0.0885  0.2432  0.2799
   91SAPS   O13 8824   5.067   4.500   5.800 -0.8929  0.3010  0.0660
   91SAPS   O14 8825   5.212   4.578   5.981 -1.1431  0.2518  0.8161
   91SAPS   O12 8826   5.045   4.733   5.884  0.0214  0.4245  0.2265
   91SAPS   O11 8827   4.962   4.554   6.021  0.0551  0.1572 -0.2297
   91SAPS    C1 8828   4.917   4.654   6.112  0.2265 -0.4228 -0.2063
   91SAPS    HA 8829   4.936   4.761   6.089 -2.6520  0.2587  0.2090
   91SAPS    HB 8830   4.808   4.644   6.132  0.4540 -0.5394  1.0360
   91SAPS    C2 8831   5.002   4.648   6.249  0.4755  0.5984  0.0463
   91SAPS    HS 8832   5.106   4.665   6.213  0.2880 -0.9039 -1.2665
   91SAPS   O21 8833   4.985   4.516   6.303  0.0954 -0.3672  0.0475
   91SAPS   C21 8834   5.083   4.487   6.381 -0.0729  0.4332 -0.3526
   91SAPS   O22 8835   5.188   4.553   6.394 -0.2084  0.0137 -0.4445
   91SAPS   C22 8836   5.051   4.355   6.453  0.4903 -0.0432  0.5302
   91SAPS   H2R 8837   5.038   4.272   6.380  1.3553 -0.2653  0.6097
   91SAPS   H2S 8838   5.133   4.346   6.527 -0.6320  3.0225  2.3258
   91SAPS    C3 8839   4.940   4.758   6.341  0.0045  0.0399 -0.6156
   91SAPS    HX 8840   4.833   4.732   6.334 -0.2636  0.7503  0.4829
   91SAPS    HY 8841   4.943   4.862   6.301 -1.9552 -0.0180 -0.9755
   91SAPS   O31 8842   4.985   4.751   6.481 -0.0038 -0.3564 -0.5400
   91SAPS   C31 8843   4.947   4.842   6.571 -0.4295  0.6106  1.2052
   91SAPS   O32 8844   4.882   4.941   6.545  0.6619  0.1667  0.0655
   91SAPS   C32 8845   5.017   4.812   6.705  0.9993  0.0103  0.3828
   91SAPS   H2X 8846   5.125   4.794   6.688  1.4149  0.5062  2.2318
   91SAPS   H2Y 8847   4.978   4.722   6.757  0.6569  0.4670  0.9405
   91SAPS   C23 8848   4.921   4.376   6.531 -0.0648  0.5821 -0.1836
   91SAPS   H3R 8849   4.844   4.415   6.461  0.7077  0.1042 -1.3332
   91SAPS   H3S 8850   4.935   4.457   6.605 -0.6784  0.5642 -0.0436
   91SAPS   C24 8851   4.882   4.243   6.617  0.4053 -0.2183  0.1376
   91SAPS   H4R 8852   4.970   4.214   6.679  1.0190 -3.0725 -1.8785
   91SAPS   H4S 8853   4.870   4.165   6.538 -1.4463 -3.2663  3.1879
   91SAPS   C25 8854   4.742   4.237   6.672  0.0052  0.2551 -0.8415
   91SAPS   H5R 8855   4.657   4.246   6.604 -0.4795 -0.3178 -0.3341
   91SAPS   C26 8856   4.713   4.226   6.797 -0.8217  0.0216 -0.7311
   91SAPS   H6R 8857   4.606   4.224   6.823 -0.8861  0.9236 -0.9178
   91SAPS   C27 8858   4.819   4.224   6.911  1.3985 -0.6084 -0.0622
   91SAPS   H7R 8859   4.919   4.265   6.884  1.4333 -1.2825 -1.0257
   91SAPS   H7S 8860   4.840   4.120   6.942 -0.5477 -0.5834  1.4851
   91SAPS   C28 8861   4.776   4.317   7.026  0.8281 -0.4615 -0.9209
   91SAPS   H8R 8862   4.787   4.424   7.001 -0.0416 -0.4760 -1.3809
   91SAPS   C29 8863   4.720   4.280   7.150  0.2144 -0.1632 -0.1407
   91SAPS   H9R 8864   4.690   4.360   7.218 -1.8353 -0.2337 -0.8831
   91SAPS  C210 8865   4.695   4.135   7.200  0.1743 -0.1759 -0.7745
   91SAPS  H10R 8866   4.687   4.063   7.115  0.1147 -2.5061  1.0901
   91SAPS  H10S 8867   4.596   4.124   7.249  0.2449 -0.7342 -0.7542
   91SAPS  C211 8868   4.802   4.092   7.296  0.3343  0.2476 -0.6561
   91SAPS  H11R 8869   4.891   4.056   7.242  0.7750  0.2382  0.0592
   91SAPS  C212 8870   4.788   4.080   7.431 -0.1240  0.4259  0.6841
   91SAPS  H12R 8871   4.862   4.029   7.494  0.6912  0.1451 -0.4727
   91SAPS  C213 8872   4.660   4.109   7.504 -0.1620 -0.3369 -1.2928
   91SAPS  H13R 8873   4.657   4.030   7.582  2.8191  0.9512  0.3043
   91SAPS  H13S 8874   4.568   4.092   7.445  0.2919  1.0463 -2.4517
   91SAPS  C214 8875   4.679   4.246   7.558  0.1640  0.0518 -0.9676
   91SAPS  H14R 8876   4.704   4.330   7.493 -0.7580  1.6691  0.6684
   91SAPS  C215 8877   4.657   4.281   7.689  0.0577 -0.4410  0.1001
   91SAPS  H15R 8878   4.665   4.383   7.730 -1.8898 -0.6484  1.1263
   91SAPS  C216 8879   4.611   4.184   7.791 -0.2471 -0.3451 -0.7397
   91SAPS  H16R 8880   4.655   4.082   7.781 -1.7044 -1.1398  0.5551
   91SAPS  H16S 8881   4.501   4.171   7.786 -0.2275 -1.3368  0.6980
   91SAPS  C217 8882   4.630   4.210   7.941 -0.3384 -0.5356 -0.3411
   91SAPS  H17R 8883   4.586   4.123   7.994  0.2917 -1.0425 -0.6350
   91SAPS  H17S 8884   4.573   4.301   7.971  0.8433 -0.2117  1.0504
   91SAPS  C218 8885   4.779   4.235   7.972 -0.2074  0.3380  0.0520
   91SAPS  H18R 8886   4.805   4.332   7.924 -1.1632  0.3777 -0.4186
   91SAPS  H18S 8887   4.837   4.150   7.929 -1.6673  0.0754 -1.4915
   91SAPS  C219 8888   4.819   4.244   8.121 -0.0561  0.0768 -0.2791
   91SAPS  H19R 8889   4.766   4.328   8.171 -1.4086  0.6759 -2.5524
   91SAPS  H19S 8890   4.928   4.266   8.121  0.2170 -1.1051 -1.7701
   91SAPS  C220 8891   4.800   4.118   8.199 -0.3626 -0.0502 -0.3293
   91SAPS  H20R 8892   4.693   4.092   8.209 -0.3734  0.7396  2.1793
   91SAPS  H20S 8893   4.841   4.130   8.302  0.6505  1.2421 -0.8489
   91SAPS  H20T 8894   4.845   4.025   8.157  0.8687 -0.2085  1.2514
   91SAPS   C33 8895   5.009   4.922   6.813 -0.0382 -0.5675 -0.2731
   91SAPS   H3X 8896   4.903   4.942   6.840  0.4213 -0.1000  1.2556
   91SAPS   H3Y 8897   5.052   5.017   6.773  0.5426 -0.5100  0.4707
   91SAPS   C34 8898   5.086   4.875   6.933  0.3598  0.3671  0.2815
   91SAPS   H4X 8899   5.191   4.886   6.898 -0.0503  1.2509 -0.7371
   91SAPS   H4Y 8900   5.072   4.765   6.938 -1.1060  0.2435 -3.1940
   91SAPS   C35 8901   5.058   4.960   7.060 -0.3058 -0.1453  0.1069
   91SAPS   H5X 8902   4.967   5.023   7.061 -0.3814 -0.2061 -1.1870
   91SAPS   H5Y 8903   5.137   5.037   7.065  1.0526 -1.3476 -1.4845
   91SAPS   C36 8904   5.052   4.882   7.187  0.1534 -0.5150 -0.2517
   91SAPS   H6X 8905   5.147   4.826   7.198  0.0801 -0.9985 -1.8535
   91SAPS   H6Y 8906   4.979   4.799   7.178 -1.4589  0.6614  1.1643
   91SAPS   C37 8907   5.009   4.961   7.311 -0.0651  0.1392 -0.0189
   91SAPS   H7X 8908   4.918   5.024   7.299 -1.7014 -1.5541  2.6115
   91SAPS   H7Y 8909   5.086   5.037   7.335 -0.0282  0.2936 -0.6125
   91SAPS   C38 8910   4.994   4.862   7.433 -0.2931 -1.2849 -0.5583
   91SAPS   H8X 8911   5.092   4.809   7.436 -1.0429 -2.7102  0.1487
   91SAPS   H8Y 8912   4.922   4.782   7.405  1.0199 -3.3918  1.6812
   91SAPS   C39 8913   4.988   4.937   7.561 -1.0835 -0.4611  0.0012
   91SAPS   H9X 8914   4.928   4.891   7.642 -1.9327  0.1699 -0.2572
   91SAPS   H9Y 8915   4.951   5.041   7.548 -0.2100 -0.4119 -2.8158
   91SAPS  C310 8916   5.129   4.944   7.627  0.5406 -0.3997 -0.2422
   91SAPS  H10X 8917   5.204   4.983   7.555 -0.5695  1.8607 -0.2564
   91SAPS  H10Y 8918   5.151   4.837   7.650  0.1145 -0.6629 -1.0122
   91SAPS  C311 8919   5.129   5.023   7.749  0.0354 -0.5468 -1.1220
   91SAPS  H11X 8920   5.054   5.105   7.758  2.1249  1.3101  1.1084
   91SAPS  H11Y 8921   5.230   5.069   7.759 -0.0315 -0.8504  2.1618
   91SAPS  C312 8922   5.117   4.946   7.879  0.7105  0.5770 -0.3418
   91SAPS  H12X 8923   5.196   4.868   7.890  1.5722  1.5673  0.7500
   91SAPS  H12Y 8924   5.027   4.882   7.889  1.2479 -0.3927 -1.4393
   91SAPS  C313 8925   5.129   5.027   8.009  0.3367 -0.6077 -0.5063
   91SAPS  H13X 8926   5.117   4.947   8.086  0.9038 -1.3364 -1.1510
   91SAPS  H13Y 8927   5.041   5.094   8.000 -0.0294 -1.1537 -1.1018
   91SAPS  C314 8928   5.256   5.105   8.028  0.8001 -0.3946  0.5456
   91SAPS  H14X 8929   5.278   5.185   7.954 -1.1120 -0.4725 -0.1519
   91SAPS  H14Y 8930   5.344   5.038   8.037  0.2178 -1.3349 -0.4246
   91SAPS  C315 8931   5.257   5.169   8.166  0.7653  0.0906  0.3218
   91SAPS  H15X 8932   5.349   5.226   8.192  1.3710 -1.3790  1.5108
   91SAPS  H15Y 8933   5.260   5.083   8.235 -1.0251 -0.2431  0.0209
   91SAPS  C316 8934   5.130   5.256   8.203  0.2445 -0.1743 -0.2640
   91SAPS  H16X 8935   5.048   5.185   8.226  0.5501 -0.9650 -1.5238
   91SAPS  H16Y 8936   5.106   5.318   8.114 -2.0662 -1.7570 -0.8242
   91SAPS  C317 8937   5.143   5.350   8.316 -0.4034  0.2205 -1.1299
   91SAPS  H17X 8938   5.050   5.409   8.333 -0.1760  0.2996 -0.0779
   91SAPS  H17Y 8939   5.223   5.427   8.307  1.9509 -1.8736  0.4498
   91SAPS  C318 8940   5.174   5.280   8.450  0.9062 -0.4712  0.4433
   91SAPS  H18X 8941   5.096   5.204   8.469  1.6181 -1.0234  1.2029
   91SAPS  H18Y 8942   5.161   5.340   8.543  1.3276 -1.7511  1.3473
   91SAPS  H18Z 8943   5.276   5.237   8.453  2.3430  2.6498  0.1840
   92SAPS     N 8944   3.623   2.551   6.242 -0.5436  0.5189  0.4257
   92SAPS   HN1 8945   3.547   2.494   6.283 -0.2531 -0.2916 -0.1482
   92SAPS   HN2 8946   3.630   2.648   6.279  0.6072  1.2235 -1.4926
   92SAPS   HN3 8947   3.616   2.558   6.138  2.9072 -2.1388 -0.1883
   92SAPS   C12 8948   3.765   2.500   6.270  0.0186  0.4904 -0.4363
   92SAPS  H12A 8949   3.769   2.405   6.220  0.1725  0.7988 -1.0117
   92SAPS   C13 8950   3.879   2.581   6.212 -0.2857  0.3834 -0.1556
   92SAPS  O13A 8951   3.870   2.693   6.154  0.5758 -0.2929  0.2637
   92SAPS  O13B 8952   3.998   2.523   6.215 -0.0578 -0.3668 -0.4620
   92SAPS   C11 8953   3.782   2.490   6.430  0.9050 -0.2487  0.2267
   92SAPS  H11A 8954   3.752   2.584   6.481  0.4145 -0.0357 -0.4376
   92SAPS  H11B 8955   3.889   2.476   6.459  0.1058 -2.1765  2.5088
   92SAPS     P 8956   3.758   2.243   6.499 -0.8950 -0.1958 -0.3942
   92SAPS   O13 8957   3.639   2.151   6.486 -0.8269  0.1684 -0.7337
   92SAPS   O14 8958   3.868   2.218   6.401  0.2066  0.3244  0.0902
   92SAPS   O12 8959   3.702   2.386   6.487 -0.0712 -0.3762  0.3094
   92SAPS   O11 8960   3.816   2.222   6.649  0.1511  0.4915 -0.2734
   92SAPS    C1 8961   3.850   2.325   6.745 -0.3189 -0.4820  0.0736
   92SAPS    HA 8962   3.956   2.320   6.775  0.0136  1.1193 -0.7055
   92SAPS    HB 8963   3.835   2.429   6.707  1.4333  0.3268  1.4713
   92SAPS    C2 8964   3.760   2.321   6.872  0.5082  0.7397 -0.1174
   92SAPS    HS 8965   3.778   2.410   6.936  1.0777 -0.4352  1.4211
   92SAPS   O21 8966   3.799   2.192   6.932  0.8478 -0.2581 -0.5997
   92SAPS   C21 8967   3.900   2.206   7.030  0.4414 -0.1398 -0.4797
   92SAPS   O22 8968   3.967   2.305   7.049 -0.1357  0.4198  0.2443
   92SAPS   C22 8969   3.922   2.070   7.088 -0.7273 -0.2053  0.0395
   92SAPS   H2R 8970   3.825   2.017   7.103 -0.1029 -1.5117 -0.3463
   92SAPS   H2S 8971   3.988   2.017   7.016 -1.1122  0.2493 -0.6530
   92SAPS    C3 8972   3.608   2.333   6.828  0.1934  0.1145  0.0972
   92SAPS    HX 8973   3.597   2.237   6.773  0.3243 -0.6015  1.2683
   92SAPS    HY 8974   3.587   2.420   6.762 -1.7315  0.5571  1.2149
   92SAPS   O31 8975   3.529   2.339   6.950  0.2472  0.2465  0.2206
   92SAPS   C31 8976   3.401   2.321   6.925 -0.7455 -0.0887  0.1452
   92SAPS   O32 8977   3.352   2.317   6.815  0.2451 -0.0786 -0.2837
   92SAPS   C32 8978   3.328   2.301   7.058 -0.7504 -0.2009  0.6153
   92SAPS   H2X 8979   3.377   2.378   7.121 -1.3894 -0.2981  1.2404
   92SAPS   H2Y 8980   3.355   2.201   7.098  0.6068 -0.4241 -0.7442
   92SAPS   C23 8981   3.994   2.079   7.218 -0.1564  0.0761 -1.0356
   92SAPS   H3R 8982   4.066   2.160   7.241  0.1926 -0.8919  1.7020
   92SAPS   H3S 8983   4.046   1.981   7.212 -0.8082 -0.2587 -1.3905
   92SAPS   C24 8984   3.906   2.068   7.350 -0.4082  0.8881 -0.1575
   92SAPS   H4R 8985   3.957   2.010   7.430 -0.6238 -0.5972 -1.0528
   92SAPS   H4S 8986   3.816   2.010   7.318 -0.1469  0.0727  0.5701
   92SAPS   C25 8987   3.850   2.200   7.399  0.1627 -0.0051  0.2250
   92SAPS   H5R 8988   3.838   2.276   7.320 -3.5039  1.4851  1.9881
   92SAPS   C26 8989   3.824   2.234   7.523 -0.2471  0.2838  0.0347
   92SAPS   H6R 8990   3.780   2.334   7.538 -1.6966 -0.6551  2.5314
   92SAPS   C27 8991   3.821   2.156   7.655 -0.2194 -0.4525 -0.3471
   92SAPS   H7R 8992   3.861   2.053   7.639 -0.5623 -0.1162 -4.2918
   92SAPS   H7S 8993   3.718   2.136   7.693  0.2666 -1.7648  0.3562
   92SAPS   C28 8994   3.893   2.226   7.768 -0.7422 -1.1937  0.8649
   92SAPS   H8R 8995   3.832   2.306   7.813  1.2499  0.6882  0.4212
   92SAPS   C29 8996   4.015   2.191   7.797 -1.1339  0.1200 -0.0487
   92SAPS   H9R 8997   4.063   2.249   7.877 -0.3816  3.3848 -2.6919
   92SAPS  C210 8998   4.101   2.085   7.723 -0.0622  0.1986  0.2568
   92SAPS  H10R 8999   4.103   2.096   7.613  0.7971 -0.7867  0.1583
   92SAPS  H10S 9000   4.047   1.989   7.736  2.2233 -1.6183 -2.5585
   92SAPS  C211 9001   4.238   2.069   7.777  0.1548  0.3366 -0.1078
   92SAPS  H11R 9002   4.256   2.081   7.885 -0.9009 -0.0838  0.1190
   92SAPS  C212 9003   4.347   2.048   7.700 -0.2643 -0.6536 -0.0680
   92SAPS  H12R 9004   4.450   2.050   7.738  0.3517 -0.4441 -1.6724
   92SAPS  C213 9005   4.346   2.028   7.548  0.1879 -0.0551 -0.5794
   92SAPS  H13R 9006   4.266   2.085   7.497  0.5021  2.6049  1.6493
   92SAPS  H13S 9007   4.328   1.920   7.534 -1.8158  0.1127  0.3708
   92SAPS  C214 9008   4.470   2.068   7.472 -0.4403  0.6365 -0.0121
   92SAPS  H14R 9009   4.561   2.035   7.524  0.9849 -0.0486 -2.7536
   92SAPS  C215 9010   4.473   2.120   7.346 -0.3983  0.1936 -0.1404
   92SAPS  H15R 9011   4.573   2.139   7.304  0.2651  2.1324  2.0835
   92SAPS  C216 9012   4.359   2.158   7.250  0.2444 -0.3459  0.3937
   92SAPS  H16R 9013   4.267   2.108   7.286  0.9439 -0.3014  2.3625
   92SAPS  H16S 9014   4.376   2.114   7.149  0.8852  2.3694 -0.7772
   92SAPS  C217 9015   4.338   2.311   7.218 -0.0617 -0.8035 -0.5808
   92SAPS  H17R 9016   4.259   2.318   7.141  0.7876  0.8859 -1.3462
   92SAPS  H17S 9017   4.439   2.344   7.183  1.0229 -1.4072  1.7541
   92SAPS  C218 9018   4.298   2.410   7.332  0.1092  0.2880 -0.0532
   92SAPS  H18R 9019   4.283   2.511   7.289  1.4859 -0.2893 -2.0242
   92SAPS  H18S 9020   4.388   2.417   7.398 -0.8739 -1.3187  1.5503
   92SAPS  C219 9021   4.186   2.362   7.430  0.5323 -0.3295  0.0972
   92SAPS  H19R 9022   4.215   2.286   7.506  1.2400 -0.8514 -0.6892
   92SAPS  H19S 9023   4.109   2.309   7.370  3.2985 -2.4247 -1.8362
   92SAPS  C220 9024   4.122   2.476   7.508 -0.0416 -0.2235 -0.7771
   92SAPS  H20R 9025   4.180   2.502   7.599 -0.2013 -0.4624 -0.6059
   92SAPS  H20S 9026   4.016   2.458   7.533 -0.4565  2.4068 -0.3873
   92SAPS  H20T 9027   4.125   2.573   7.453 -0.7444  0.3992  0.2555
   92SAPS   C33 9028   3.175   2.321   7.069  0.0972  0.6471 -0.0164
   92SAPS   H3X 9029   3.118   2.242   7.016 -0.7709  0.6744  0.8569
   92SAPS   H3Y 9030   3.154   2.422   7.029 -0.5725  0.4487 -0.1719
   92SAPS   C34 9031   3.127   2.314   7.217 -1.0483  0.1530  0.2575
   92SAPS   H4X 9032   3.035   2.375   7.221  0.0206  1.8354  0.4511
   92SAPS   H4Y 9033   3.196   2.381   7.273 -3.3948  3.0831 -0.0980
   92SAPS   C35 9034   3.119   2.179   7.270 -0.1219 -0.4974  0.4292
   92SAPS   H5X 9035   3.223   2.140   7.278  0.6239  1.1026 -0.9640
   92SAPS   H5Y 9036   3.060   2.119   7.197 -1.7605  2.9586 -1.2774
   92SAPS   C36 9037   3.042   2.163   7.399 -0.2321 -0.2432  0.0289
   92SAPS   H6X 9038   3.030   2.053   7.408  1.2765 -0.4971 -0.7288
   92SAPS   H6Y 9039   2.940   2.206   7.394 -0.9488 -1.5081  2.2063
   92SAPS   C37 9040   3.118   2.214   7.528 -0.1852  0.5185  0.7545
   92SAPS   H7X 9041   3.181   2.304   7.510  1.0916 -0.3024  0.9881
   92SAPS   H7Y 9042   3.181   2.130   7.564 -0.3475 -1.7556 -3.5426
   92SAPS   C38 9043   3.011   2.249   7.633  0.3908 -0.3698 -0.0997
   92SAPS   H8X 9044   2.926   2.178   7.624  0.6099 -0.9048  1.6170
   92SAPS   H8Y 9045   2.960   2.346   7.618 -2.0725 -0.7203  4.1526
   92SAPS   C39 9046   3.066   2.241   7.773  0.2621 -0.9352  0.3082
   92SAPS   H9X 9047   3.155   2.307   7.774 -0.3106 -0.1599  1.9849
   92SAPS   H9Y 9048   3.110   2.139   7.780  0.7421 -0.6122  3.0223
   92SAPS  C310 9049   2.967   2.281   7.882 -0.0086 -0.5103  0.2668
   92SAPS  H10X 9050   2.882   2.210   7.876 -0.2293 -0.2949  0.7612
   92SAPS  H10Y 9051   2.927   2.381   7.856  0.5785 -0.1574  0.7083
   92SAPS  C311 9052   3.026   2.280   8.016 -0.2932  1.0028  0.7122
   92SAPS  H11X 9053   3.111   2.352   8.019 -2.0739  3.2509  0.3924
   92SAPS  H11Y 9054   3.057   2.177   8.044 -0.9453  0.4560 -0.4628
   92SAPS  C312 9055   2.926   2.335   8.120 -0.0847 -0.0146  0.4729
   92SAPS  H12X 9056   2.827   2.291   8.097 -0.3778 -0.3896  2.2911
   92SAPS  H12Y 9057   2.928   2.443   8.092 -1.3350  0.0400  0.5349
   92SAPS  C313 9058   2.979   2.312   8.262 -0.1170 -0.7553 -0.6375
   92SAPS  H13X 9059   3.086   2.340   8.267 -0.7096  1.9142 -1.1224
   92SAPS  H13Y 9060   2.964   2.207   8.294  2.1756 -0.6224  1.1511
   92SAPS  C314 9061   2.903   2.403   8.358 -0.0088 -0.5848  0.2878
   92SAPS  H14X 9062   2.794   2.386   8.345 -0.1097  0.9094 -1.0163
   92SAPS  H14Y 9063   2.907   2.505   8.315 -0.8176 -1.1448 -1.1655
   92SAPS  C315 9064   2.950   2.390   8.504 -0.1926  0.5801 -0.1765
   92SAPS  H15X 9065   2.965   2.480   8.567 -0.8938  0.8086 -0.3290
   92SAPS  H15Y 9066   3.051   2.345   8.497 -0.1395  0.8359 -1.2063
   92SAPS  C316 9067   2.855   2.289   8.575 -0.2149 -0.7257 -0.3289
   92SAPS  H16X 9068   2.910   2.248   8.663 -1.4791  0.4520  1.0723
   92SAPS  H16Y 9069   2.821   2.208   8.507 -0.5925  0.2352 -1.3183
   92SAPS  C317 9070   2.744   2.383   8.637  0.6261  0.2327  0.6288
   92SAPS  H17X 9071   2.679   2.413   8.552 -0.9209 -2.1640  0.8725
   92SAPS  H17Y 9072   2.790   2.473   8.682  1.1220  0.7021 -0.7665
   92SAPS  C318 9073   2.667   2.311   8.741 -0.1229 -0.4956 -0.8028
   92SAPS  H18X 9074   2.592   2.236   8.709 -0.8618 -0.5068  0.8337
   92SAPS  H18Y 9075   2.603   2.375   8.805 -1.6326 -2.5222 -0.1817
   92SAPS  H18Z 9076   2.723   2.260   8.823 -0.5115 -0.8509 -0.7560
   93SAPS     N 9077   5.239   2.178   6.422  0.2218 -0.2936 -0.5073
   93SAPS   HN1 9078   5.256   2.198   6.523 -1.6171 -1.7151  0.1522
   93SAPS   HN2 9079   5.156   2.115   6.424  0.0699 -0.1621  2.6250
   93SAPS   HN3 9080   5.316   2.128   6.374  2.1566  1.1544  0.8917
   93SAPS   C12 9081   5.218   2.311   6.356  0.4846  0.0217  0.4718
   93SAPS  H12A 9082   5.305   2.373   6.369  0.2456  0.1497  1.5134
   93SAPS   C13 9083   5.216   2.301   6.201  0.3371 -0.3440  0.1782
   93SAPS  O13A 9084   5.211   2.184   6.152 -0.0806  0.8204  0.4575
   93SAPS  O13B 9085   5.175   2.402   6.135  0.8112  0.4379 -0.0902
   93SAPS   C11 9086   5.094   2.377   6.416 -0.2596 -0.4261  0.3197
   93SAPS  H11A 9087   5.003   2.317   6.394 -1.3000  0.7422  1.3187
   93SAPS  H11B 9088   5.075   2.473   6.363  0.4510 -0.1825  0.5052
   93SAPS     P 9089   5.049   2.536   6.618  0.3352  0.5099 -0.1757
   93SAPS   O13 9090   5.082   2.639   6.524 -0.1627 -0.4655  0.2232
   93SAPS   O14 9091   4.905   2.518   6.640  0.2059  0.0244 -0.0088
   93SAPS   O12 9092   5.104   2.402   6.559 -0.0424 -0.4379  0.3982
   93SAPS   O11 9093   5.136   2.553   6.743  0.2444  0.0242 -0.5138
   93SAPS    C1 9094   5.281   2.544   6.733 -0.5943 -0.2925  0.9102
   93SAPS    HA 9095   5.321   2.441   6.718 -0.0961 -0.0682  0.6654
   93SAPS    HB 9096   5.316   2.618   6.658 -0.4398 -1.3114 -0.0513
   93SAPS    C2 9097   5.337   2.605   6.869 -0.7511  0.3406  0.0484
   93SAPS    HS 9098   5.447   2.598   6.864 -0.6071  2.7304 -2.0270
   93SAPS   O21 9099   5.276   2.539   6.982 -0.3653 -0.0761 -0.2813
   93SAPS   C21 9100   5.368   2.520   7.078  0.0400  0.1795 -0.3677
   93SAPS   O22 9101   5.489   2.530   7.066  0.5649 -0.1038 -0.1519
   93SAPS   C22 9102   5.296   2.460   7.197 -0.2018 -0.0949  0.3312
   93SAPS   H2R 9103   5.232   2.541   7.237  1.4530  0.5033  1.9078
   93SAPS   H2S 9104   5.229   2.375   7.171 -0.8466  0.8646 -1.2945
   93SAPS    C3 9105   5.299   2.759   6.874 -0.1635  0.0156 -0.2578
   93SAPS    HX 9106   5.189   2.759   6.890 -0.2625 -4.4157  0.2607
   93SAPS    HY 9107   5.321   2.825   6.787  1.3303  0.7689  0.6443
   93SAPS   O31 9108   5.360   2.822   6.991 -0.3533 -0.0669  0.5096
   93SAPS   C31 9109   5.476   2.873   6.980 -0.7538  0.4830  0.3170
   93SAPS   O32 9110   5.536   2.874   6.874  0.1304  0.0813  0.4745
   93SAPS   C32 9111   5.533   2.903   7.114 -0.1838  1.2263 -0.1077
   93SAPS   H2X 9112   5.492   2.828   7.185 -0.1066 -0.0644 -1.3810
   93SAPS   H2Y 9113   5.497   3.005   7.137 -0.7066  2.0489 -3.8922
   93SAPS   C23 9114   5.395   2.419   7.307 -0.1533  0.0128 -0.9595
   93SAPS   H3R 9115   5.464   2.503   7.332 -0.1743 -0.6648  1.6503
   93SAPS   H3S 9116   5.462   2.337   7.272 -0.1824 -1.1277  1.4522
   93SAPS   C24 9117   5.342   2.383   7.446 -0.1875  0.1665 -0.1717
   93SAPS   H4R 9118   5.431   2.341   7.499 -1.1205 -1.4567  0.1768
   93SAPS   H4S 9119   5.264   2.304   7.435 -0.5047  0.4473  0.0476
   93SAPS   C25 9120   5.274   2.501   7.514  0.2621 -0.4241  0.0996
   93SAPS   H5R 9121   5.195   2.543   7.450  1.7777  0.2943 -1.3876
   93SAPS   C26 9122   5.301   2.548   7.638  0.4242  0.3630 -0.1406
   93SAPS   H6R 9123   5.239   2.632   7.673 -1.2837 -0.2815 -1.4356
   93SAPS   C27 9124   5.394   2.492   7.737  0.3366  1.1173 -0.5847
   93SAPS   H7R 9125   5.487   2.551   7.728  0.9579  0.2697  0.2102
   93SAPS   H7S 9126   5.421   2.389   7.705  0.6102  0.5443  1.3513
   93SAPS   C28 9127   5.353   2.493   7.881 -1.0247 -0.1809  0.0937
   93SAPS   H8R 9128   5.384   2.581   7.940 -2.2412 -0.5871  1.3903
   93SAPS   C29 9129   5.314   2.394   7.958 -0.0203  0.2318  0.7263
   93SAPS   H9R 9130   5.298   2.421   8.064  0.5163  2.8907  0.2042
   93SAPS  C210 9131   5.285   2.253   7.905  0.5602 -0.6512 -0.5258
   93SAPS  H10R 9132   5.313   2.228   7.801  0.9695 -2.9082  0.0534
   93SAPS  H10S 9133   5.177   2.229   7.912  0.5222 -0.2858  0.1741
   93SAPS  C211 9134   5.349   2.145   7.980  0.5991  0.4500 -0.5756
   93SAPS  H11R 9135   5.438   2.105   7.929  0.0369 -0.8242 -0.5937
   93SAPS  C212 9136   5.302   2.090   8.100  0.2490  0.6591  0.2854
   93SAPS  H12R 9137   5.356   2.003   8.140 -0.3285 -0.0979 -0.5213
   93SAPS  C213 9138   5.180   2.134   8.175  0.1722 -0.9925 -0.2015
   93SAPS  H13R 9139   5.106   2.053   8.192 -0.4119 -0.1289  1.6577
   93SAPS  H13S 9140   5.127   2.222   8.133  3.2887  1.4157  0.5784
   93SAPS  C214 9141   5.234   2.190   8.307  0.2254  0.4699  0.0419
   93SAPS  H14R 9142   5.262   2.297   8.302 -1.2955  0.8563 -2.5440
   93SAPS  C215 9143   5.220   2.134   8.433 -0.4752  0.2120  0.6444
   93SAPS  H15R 9144   5.274   2.192   8.510  1.1147 -0.8628  0.3797
   93SAPS  C216 9145   5.160   2.008   8.469  0.3945  0.7829 -0.4072
   93SAPS  H16R 9146   5.187   1.934   8.390 -1.7283 -3.0646  2.1002
   93SAPS  H16S 9147   5.050   2.013   8.486  0.4830  2.0298 -0.1665
   93SAPS  C217 9148   5.223   1.936   8.586  0.0469 -0.2280 -0.1119
   93SAPS  H17R 9149   5.209   2.000   8.676  0.2213  0.2642 -0.4255
   93SAPS  H17S 9150   5.332   1.945   8.565 -0.3786  2.4864 -1.7264
   93SAPS  C218 9151   5.178   1.793   8.596 -0.7717 -0.6377  0.1949
   93SAPS  H18R 9152   5.183   1.750   8.494 -0.7826  1.2643 -0.6453
   93SAPS  H18S 9153   5.073   1.789   8.632 -0.6431 -1.1000  0.5275
   93SAPS  C219 9154   5.274   1.703   8.679 -0.1662 -0.5847  0.1447
   93SAPS  H19R 9155   5.276   1.739   8.784 -1.0044  2.3934 -0.7622
   93SAPS  H19S 9156   5.371   1.727   8.630 -0.9800 -1.7484 -2.1420
   93SAPS  C220 9157   5.248   1.556   8.671 -0.5436  0.2211  0.9073
   93SAPS  H20R 9158   5.154   1.519   8.717 -1.9870  2.3097 -0.2151
   93SAPS  H20S 9159   5.326   1.487   8.709 -1.7965 -0.6110  2.0822
   93SAPS  H20T 9160   5.230   1.539   8.563 -0.1826 -0.3608  0.9332
   93SAPS   C33 9161   5.686   2.895   7.113  0.4092 -0.5350  0.7638
   93SAPS   H3X 9162   5.711   2.958   7.024 -4.5183  0.2738 -0.3374
   93SAPS   H3Y 9163   5.723   2.791   7.106  0.2721 -0.7039  2.2589
   93SAPS   C34 9164   5.750   2.950   7.243 -0.6746 -0.4181  0.7241
   93SAPS   H4X 9165   5.740   3.061   7.240  1.9490 -0.1438 -0.9273
   93SAPS   H4Y 9166   5.860   2.939   7.232 -0.7922 -0.2804 -0.7429
   93SAPS   C35 9167   5.707   2.897   7.371 -0.4790 -0.2165 -0.5161
   93SAPS   H5X 9168   5.715   2.787   7.372  0.4004 -0.1877 -1.8545
   93SAPS   H5Y 9169   5.602   2.928   7.391  0.2134  1.3016  1.1085
   93SAPS   C36 9170   5.790   2.942   7.496  0.9972  0.1777 -0.4302
   93SAPS   H6X 9171   5.792   3.053   7.502  2.2925  0.1498  0.2023
   93SAPS   H6Y 9172   5.897   2.912   7.483  1.1946  0.6095  0.1625
   93SAPS   C37 9173   5.724   2.892   7.628 -0.8794 -0.3502  0.3835
   93SAPS   H7X 9174   5.791   2.907   7.716 -0.5819  1.2351 -0.0801
   93SAPS   H7Y 9175   5.699   2.787   7.602  0.1785 -0.4685 -0.2343
   93SAPS   C38 9176   5.595   2.964   7.676 -0.1571  0.0160  0.9018
   93SAPS   H8X 9177   5.511   2.947   7.605 -1.3612  0.7439  2.0971
   93SAPS   H8Y 9178   5.639   3.065   7.661  0.1212  0.0629  1.9817
   93SAPS   C39 9179   5.555   2.937   7.817 -0.4767  0.3502 -0.3660
   93SAPS   H9X 9180   5.633   2.970   7.889  1.3239 -0.7187 -1.7538
   93SAPS   H9Y 9181   5.516   2.835   7.836  0.9762  0.2630  2.8031
   93SAPS  C310 9182   5.432   3.024   7.849  0.0813  0.7859 -0.2115
   93SAPS  H10X 9183   5.351   2.993   7.778  0.7587 -0.0439 -0.6422
   93SAPS  H10Y 9184   5.449   3.131   7.824 -0.2020  1.8019  3.4109
   93SAPS  C311 9185   5.396   3.006   7.999 -0.2544  0.5028  0.6194
   93SAPS  H11X 9186   5.312   3.079   8.003 -0.8259 -0.0881 -0.3642
   93SAPS  H11Y 9187   5.475   3.041   8.070  1.5460  0.1559 -1.1113
   93SAPS  C312 9188   5.349   2.868   8.048 -0.9714  0.3294 -0.2564
   93SAPS  H12X 9189   5.432   2.794   8.038  0.7760  2.1829 -0.0824
   93SAPS  H12Y 9190   5.265   2.848   7.978 -1.1356 -2.5516  0.6292
   93SAPS  C313 9191   5.296   2.852   8.192  0.4460 -0.1634  0.2095
   93SAPS  H13X 9192   5.203   2.913   8.199 -0.0560 -0.8260 -0.5346
   93SAPS  H13Y 9193   5.370   2.904   8.256  0.4882  0.6759 -0.4980
   93SAPS  C314 9194   5.274   2.705   8.250  0.3568 -0.5768  0.2910
   93SAPS  H14X 9195   5.373   2.664   8.280  0.2785 -0.3145  0.9227
   93SAPS  H14Y 9196   5.226   2.648   8.167  1.7451  0.9847 -1.6649
   93SAPS  C315 9197   5.178   2.709   8.369 -0.1920  0.6424  0.2766
   93SAPS  H15X 9198   5.085   2.734   8.313 -1.2182 -0.4584  1.4222
   93SAPS  H15Y 9199   5.190   2.790   8.444 -0.3696  0.0449  0.9614
   93SAPS  C316 9200   5.170   2.575   8.439  0.0683  0.7309  0.0780
   93SAPS  H16X 9201   5.263   2.574   8.500  0.8723  2.3561 -1.0361
   93SAPS  H16Y 9202   5.173   2.487   8.372  0.8022  1.2702 -0.6213
   93SAPS  C317 9203   5.053   2.557   8.530  0.3290 -0.5256 -0.0006
   93SAPS  H17X 9204   4.968   2.555   8.458  0.1561 -2.2847  0.2126
   93SAPS  H17Y 9205   5.035   2.642   8.600 -1.3692 -1.9506  1.3948
   93SAPS  C318 9206   5.050   2.431   8.618  0.5311 -0.7005 -0.2693
   93SAPS  H18X 9207   4.953   2.421   8.672 -0.7760  1.0811 -2.1024
   93SAPS  H18Y 9208   5.126   2.439   8.698  1.3023 -1.7076 -0.8782
   93SAPS  H18Z 9209   5.076   2.344   8.554  2.3345 -0.3733 -0.0254
   94SAPS     N 9210   5.050   5.760   5.510 -0.5848 -0.4282  0.2156
   94SAPS   HN1 9211   5.145   5.769   5.553 -0.5980 -0.5322  0.2662
   94SAPS   HN2 9212   5.008   5.671   5.542  0.1620 -1.8509 -2.4775
   94SAPS   HN3 9213   5.065   5.765   5.408 -0.7680  2.2060  0.2368
   94SAPS   C12 9214   4.953   5.874   5.549  0.3261 -0.4465  0.0751
   94SAPS  H12A 9215   4.983   5.967   5.504  0.0687  0.4781  1.7457
   94SAPS   C13 9216   4.810   5.854   5.495 -0.0162 -0.1056  0.9290
   94SAPS  O13A 9217   4.790   5.757   5.415 -0.5434 -0.0373 -0.0436
   94SAPS  O13B 9218   4.713   5.937   5.511 -0.4101  0.3413  0.4869
   94SAPS   C11 9219   4.952   5.882   5.702  1.2651  0.0831 -0.6887
   94SAPS  H11A 9220   4.908   5.787   5.741  1.6491  0.5677  1.0178
   94SAPS  H11B 9221   4.883   5.966   5.726  1.0562  0.9865 -3.9343
   94SAPS     P 9222   5.108   5.893   5.906  0.2052 -0.0215 -0.0591
   94SAPS   O13 9223   5.238   5.822   5.923  0.2643  0.5995 -0.0020
   94SAPS   O14 9224   5.098   6.027   5.967 -0.2505  0.7783  0.0243
   94SAPS   O12 9225   5.082   5.899   5.752  0.0033  0.6811  0.0294
   94SAPS   O11 9226   4.994   5.807   5.978 -0.0758 -0.0239  0.5516
   94SAPS    C1 9227   4.867   5.855   6.025  0.2441 -0.1464  0.0599
   94SAPS    HA 9228   4.828   5.940   5.965 -0.6004  0.8996  1.9930
   94SAPS    HB 9229   4.798   5.769   6.010  0.7933 -0.5722 -0.0490
   94SAPS    C2 9230   4.867   5.886   6.178  0.6958 -0.1632  0.4774
   94SAPS    HS 9231   4.925   5.980   6.192 -0.6016  0.7001  0.2771
   94SAPS   O21 9232   4.925   5.773   6.245  0.5915  0.2547  0.4755
   94SAPS   C21 9233   5.026   5.794   6.326 -0.1641 -0.3457 -0.0057
   94SAPS   O22 9234   5.073   5.905   6.354 -0.2988  0.1059  0.0753
   94SAPS   C22 9235   5.069   5.660   6.393 -0.3347  0.1407 -0.0909
   94SAPS   H2R 9236   4.976   5.604   6.418  0.3449 -0.8409  0.2870
   94SAPS   H2S 9237   5.131   5.603   6.321  0.6103  1.2043 -0.1559
   94SAPS    C3 9238   4.725   5.911   6.235 -0.3599  0.7216 -0.9040
   94SAPS    HX 9239   4.659   5.828   6.201  0.8211 -1.0013  0.8039
   94SAPS    HY 9240   4.688   6.006   6.190  0.0374  0.1828 -2.4264
   94SAPS   O31 9241   4.730   5.918   6.381  1.0208 -0.1152 -0.1143
   94SAPS   C31 9242   4.772   6.036   6.421  0.5038 -0.5031 -0.4778
   94SAPS   O32 9243   4.789   6.131   6.348  0.4960  0.2672  0.1538
   94SAPS   C32 9244   4.769   6.050   6.574 -0.3711  0.1656 -0.0379
   94SAPS   H2X 9245   4.677   5.999   6.608  0.3331  0.1481  1.9298
   94SAPS   H2Y 9246   4.756   6.158   6.593  1.2972  1.2831 -4.1693
   94SAPS   C23 9247   5.150   5.682   6.520 -0.3892 -0.4200  0.1372
   94SAPS   H3R 9248   5.107   5.760   6.586  1.1190 -0.2048  0.9105
   94SAPS   H3S 9249   5.255   5.715   6.501 -1.5131  2.2231 -2.1008
   94SAPS   C24 9250   5.121   5.560   6.614 -0.1014  0.0083 -0.5152
   94SAPS   H4R 9251   5.014   5.537   6.632 -0.3330  1.8088  0.6047
   94SAPS   H4S 9252   5.150   5.589   6.717 -1.3121  2.4870 -0.8188
   94SAPS   C25 9253   5.194   5.439   6.579 -0.2458 -0.1607  0.5072
   94SAPS   H5R 9254   5.178   5.410   6.474  1.6327  0.5613 -0.0181
   94SAPS   C26 9255   5.282   5.369   6.656  0.0822  0.6599  0.2555
   94SAPS   H6R 9256   5.332   5.283   6.610  0.1609  1.6161 -1.5318
   94SAPS   C27 9257   5.321   5.409   6.799 -0.6753  0.1931  0.3330
   94SAPS   H7R 9258   5.352   5.515   6.795  0.0034 -0.0299 -1.3023
   94SAPS   H7S 9259   5.412   5.354   6.831 -0.6937  0.9484  1.7433
   94SAPS   C28 9260   5.212   5.395   6.903 -0.0598 -0.2591  0.4443
   94SAPS   H8R 9261   5.110   5.424   6.874  0.4030  0.5280 -0.4191
   94SAPS   C29 9262   5.226   5.355   7.024 -0.2819  0.5675 -0.5630
   94SAPS   H9R 9263   5.141   5.369   7.092  0.5454 -1.0020  0.8640
   94SAPS  C210 9264   5.357   5.306   7.084 -0.0974 -0.5947 -1.0399
   94SAPS  H10R 9265   5.403   5.402   7.117 -0.1956 -0.9524  0.1498
   94SAPS  H10S 9266   5.409   5.248   7.005 -0.2822 -1.1466 -0.7575
   94SAPS  C211 9267   5.328   5.201   7.189  0.2343  0.2573  0.3121
   94SAPS  H11R 9268   5.312   5.103   7.143 -2.8902  0.2609  1.2017
   94SAPS  C212 9269   5.321   5.216   7.320  0.6558  0.3806 -0.3941
   94SAPS  H12R 9270   5.299   5.122   7.373 -2.1701  0.7265 -0.8210
   94SAPS  C213 9271   5.330   5.344   7.400 -0.1710  0.1318  0.3457
   94SAPS  H13R 9272   5.223   5.368   7.418 -0.3652  0.1937 -0.8082
   94SAPS  H13S 9273   5.372   5.427   7.339 -1.1895  0.9931  0.7748
   94SAPS  C214 9274   5.402   5.333   7.527 -0.6374 -0.4095 -0.1777
   94SAPS  H14R 9275   5.501   5.285   7.522  0.8388  1.9321  3.0674
   94SAPS  C215 9276   5.359   5.363   7.653 -0.1321 -0.3758 -0.3415
   94SAPS  H15R 9277   5.427   5.343   7.738  3.3121  1.4916 -2.4244
   94SAPS  C216 9278   5.226   5.428   7.688  0.2548  0.1730 -0.2677
   94SAPS  H16R 9279   5.149   5.349   7.675 -0.8315  1.2547 -0.6329
   94SAPS  H16S 9280   5.211   5.505   7.609  1.9220 -0.8000 -1.6131
   94SAPS  C217 9281   5.227   5.487   7.832  0.2847  0.7936  0.0527
   94SAPS  H17R 9282   5.270   5.413   7.902 -0.3490 -0.2688 -0.6447
   94SAPS  H17S 9283   5.124   5.500   7.872  0.0803  1.0775 -0.5534
   94SAPS  C218 9284   5.289   5.620   7.831 -0.0446 -0.4040  0.2798
   94SAPS  H18R 9285   5.231   5.686   7.763  0.8821  0.0846 -0.0552
   94SAPS  H18S 9286   5.388   5.614   7.781 -0.5177  0.3482 -0.7905
   94SAPS  C219 9287   5.307   5.693   7.960 -0.0588  0.1801 -0.0112
   94SAPS  H19R 9288   5.342   5.624   8.040 -0.9095  1.2345  1.3219
   94SAPS  H19S 9289   5.205   5.724   7.991 -0.3655  0.2128 -1.0126
   94SAPS  C220 9290   5.387   5.822   7.953 -0.6030 -0.9449 -0.1427
   94SAPS  H20R 9291   5.327   5.889   7.889  2.2424  1.1287 -0.8547
   94SAPS  H20S 9292   5.492   5.815   7.917 -0.1713  2.3282  0.1839
   94SAPS  H20T 9293   5.390   5.859   8.058  0.3580  0.3318 -0.5912
   94SAPS   C33 9294   4.889   6.002   6.662 -0.3905  0.1708  0.1075
   94SAPS   H3X 9295   4.994   6.025   6.633 -0.2224 -1.9472 -1.1771
   94SAPS   H3Y 9296   4.883   5.891   6.658 -1.6456  0.1176 -6.2536
   94SAPS   C34 9297   4.885   6.046   6.806 -0.3253 -0.6318 -0.4357
   94SAPS   H4X 9298   4.787   6.019   6.849 -0.2707 -0.7424 -0.3774
   94SAPS   H4Y 9299   4.894   6.156   6.813 -2.0436 -0.5559  1.8647
   94SAPS   C35 9300   4.985   5.973   6.889 -0.5617  0.2561  0.0839
   94SAPS   H5X 9301   5.088   5.980   6.847 -0.7273 -0.7040 -0.5282
   94SAPS   H5Y 9302   4.963   5.864   6.899  0.1478  0.0758 -0.2458
   94SAPS   C36 9303   4.977   6.017   7.033 -0.1305  0.0264  0.1061
   94SAPS   H6X 9304   4.869   6.012   7.059  0.0508  1.5726  1.3681
   94SAPS   H6Y 9305   5.010   6.123   7.038 -0.6803  0.1386  2.1798
   94SAPS   C37 9306   5.054   5.938   7.134 -0.1771  0.6143  0.0283
   94SAPS   H7X 9307   5.162   5.922   7.118  0.0657  2.4977 -0.4843
   94SAPS   H7Y 9308   5.004   5.839   7.129 -0.0570  0.5425  0.2496
   94SAPS   C38 9309   5.045   5.977   7.281 -0.0663 -0.7914 -0.0103
   94SAPS   H8X 9310   4.936   5.974   7.303 -0.1019 -0.9945 -0.2178
   94SAPS   H8Y 9311   5.092   6.078   7.285  2.3334 -1.7164 -1.9546
   94SAPS   C39 9312   5.119   5.876   7.368 -0.1041 -0.2406 -0.2020
   94SAPS   H9X 9313   5.207   5.853   7.305  1.3336  2.9945  0.4036
   94SAPS   H9Y 9314   5.057   5.787   7.393 -0.6321  0.3003  0.4473
   94SAPS  C310 9315   5.187   5.932   7.497 -0.0983 -0.0187  0.5552
   94SAPS  H10X 9316   5.235   6.029   7.475 -2.3063  0.8668 -0.7525
   94SAPS  H10Y 9317   5.264   5.866   7.541  1.8961  1.2311 -0.8750
   94SAPS  C311 9318   5.090   5.983   7.608  0.5186 -0.7688  0.5013
   94SAPS  H11X 9319   5.020   6.061   7.570  1.1221  0.7001  2.2400
   94SAPS  H11Y 9320   5.154   6.030   7.686  1.3615 -0.8602 -0.1197
   94SAPS  C312 9321   5.005   5.869   7.666 -0.1842  0.1658 -0.1530
   94SAPS  H12X 9322   5.075   5.805   7.724  1.5363 -0.1227 -2.4262
   94SAPS  H12Y 9323   4.969   5.820   7.573  0.6984  1.2587 -1.1050
   94SAPS  C313 9324   4.892   5.913   7.752  0.5577 -0.3822 -0.3007
   94SAPS  H13X 9325   4.828   5.825   7.774  2.1369 -1.4549  0.1701
   94SAPS  H13Y 9326   4.830   5.990   7.702 -1.9281 -1.8436  0.3939
   94SAPS  C314 9327   4.937   5.954   7.893 -0.3267  0.3924 -0.9955
   94SAPS  H14X 9328   5.008   6.040   7.884  0.7990 -0.5605 -1.4351
   94SAPS  H14Y 9329   4.989   5.866   7.936  1.7484  1.3244 -1.4407
   94SAPS  C315 9330   4.818   6.009   7.973 -0.8950 -0.2504  0.3218
   94SAPS  H15X 9331   4.735   5.935   7.978 -2.6736  1.6001 -0.3148
   94SAPS  H15Y 9332   4.767   6.096   7.927 -1.0247 -0.3515  0.2738
   94SAPS  C316 9333   4.864   6.054   8.107  0.5917  0.0578 -0.2438
   94SAPS  H16X 9334   4.926   6.145   8.092 -1.6418  1.5748 -0.8175
   94SAPS  H16Y 9335   4.922   5.974   8.157 -1.9748 -1.3016  0.7586
   94SAPS  C317 9336   4.754   6.076   8.204  0.1233  0.8766 -0.5243
   94SAPS  H17X 9337   4.692   5.987   8.232 -1.3313  2.6539  2.3638
   94SAPS  H17Y 9338   4.702   6.170   8.175  2.2646  1.5755 -2.3917
   94SAPS  C318 9339   4.803   6.112   8.338 -0.5272 -0.4824 -0.3954
   94SAPS  H18X 9340   4.889   6.052   8.377 -0.9061 -0.0928  1.1112
   94SAPS  H18Y 9341   4.717   6.090   8.405  0.0362 -2.1319 -0.1766
   94SAPS  H18Z 9342   4.834   6.219   8.345  1.5695 -1.0556  0.0831
   95SAPS     N 9343   1.993   2.160   6.270  0.1565 -0.7915  0.8913
   95SAPS   HN1 9344   2.005   2.143   6.372  1.3854  4.6085  1.9622
   95SAPS   HN2 9345   1.918   2.102   6.228  0.0469  0.7056 -1.1213
   95SAPS   HN3 9346   2.083   2.146   6.220 -0.7834 -1.0810 -0.7824
   95SAPS   C12 9347   1.958   2.307   6.273  0.2343  0.0418  0.1839
   95SAPS  H12A 9348   1.880   2.327   6.345 -2.6658 -1.6427 -2.2685
   95SAPS   C13 9349   2.074   2.397   6.321  0.1275  0.5039  0.0717
   95SAPS  O13A 9350   2.185   2.335   6.337 -0.1065 -0.7821 -0.2683
   95SAPS  O13B 9351   2.057   2.515   6.348  0.1344 -0.5197 -0.2136
   95SAPS   C11 9352   1.912   2.360   6.135  0.4299  0.1273 -0.3263
   95SAPS  H11A 9353   1.998   2.355   6.066 -0.5820 -2.1792 -1.5391
   95SAPS  H11B 9354   1.875   2.465   6.138  3.1570  1.2221 -1.9265
   95SAPS     P 9355   1.661   2.307   6.080 -0.1665  0.3986  0.1113
   95SAPS   O13 9356   1.627   2.393   5.962 -0.0188 -0.3359 -0.1347
   95SAPS   O14 9357   1.592   2.174   6.078 -0.1495 -0.3863 -0.6316
   95SAPS   O12 9358   1.815   2.271   6.077  0.1593  0.0209 -0.2291
   95SAPS   O11 9359   1.645   2.386   6.217  0.0762 -0.3380  0.6317
   95SAPS    C1 9360   1.574   2.324   6.325 -0.3312  0.5280  0.1747
   95SAPS    HA 9361   1.469   2.319   6.290 -0.3271  0.2833  0.1959
   95SAPS    HB 9362   1.612   2.223   6.352 -2.3992 -0.4899 -0.5509
   95SAPS    C2 9363   1.568   2.407   6.461 -0.0382  0.4233 -0.2619
   95SAPS    HS 9364   1.479   2.472   6.445 -1.3089 -1.2288 -0.2020
   95SAPS   O21 9365   1.691   2.470   6.493  0.5273  0.3553  0.1068
   95SAPS   C21 9366   1.670   2.571   6.578  0.3019  0.1986  0.0473
   95SAPS   O22 9367   1.568   2.634   6.595 -0.3627  0.3097 -0.8862
   95SAPS   C22 9368   1.807   2.608   6.639 -0.0440 -0.1982 -0.4635
   95SAPS   H2R 9369   1.889   2.571   6.575 -0.5409 -1.1593 -0.5564
   95SAPS   H2S 9370   1.814   2.719   6.648 -0.1142 -0.2348  0.0840
   95SAPS    C3 9371   1.529   2.310   6.575 -0.1052  0.4427 -0.2359
   95SAPS    HX 9372   1.610   2.235   6.587 -0.3106  0.3215  0.4179
   95SAPS    HY 9373   1.441   2.253   6.539 -1.1743  3.2050 -2.4123
   95SAPS   O31 9374   1.517   2.368   6.707 -0.4560 -0.7161  0.2377
   95SAPS   C31 9375   1.391   2.391   6.744  0.1289 -0.0213 -0.0792
   95SAPS   O32 9376   1.294   2.370   6.674  0.5090 -0.3010 -0.1879
   95SAPS   C32 9377   1.388   2.437   6.888 -0.1460  0.0290 -0.2183
   95SAPS   H2X 9378   1.284   2.463   6.919  0.0371 -0.8004  1.1865
   95SAPS   H2Y 9379   1.450   2.528   6.902 -1.7979  1.1049  0.4026
   95SAPS   C23 9380   1.802   2.548   6.780 -0.2099  0.6301 -0.4954
   95SAPS   H3R 9381   1.792   2.438   6.786 -3.7568  0.7792 -1.4290
   95SAPS   H3S 9382   1.718   2.586   6.843  0.2503  1.7169 -0.5092
   95SAPS   C24 9383   1.939   2.586   6.851  0.0508  0.0512  0.2522
   95SAPS   H4R 9384   1.950   2.574   6.961  1.6466  1.9331  0.3448
   95SAPS   H4S 9385   1.957   2.695   6.836 -1.1880  0.2103 -0.2523
   95SAPS   C25 9386   2.050   2.496   6.784 -0.3278 -0.0497 -0.1512
   95SAPS   H5R 9387   2.088   2.525   6.685  2.8246 -3.0868  0.0061
   95SAPS   C26 9388   2.099   2.385   6.845 -0.8021 -0.5550 -0.4368
   95SAPS   H6R 9389   2.176   2.335   6.783  0.8986 -0.1727  1.2684
   95SAPS   C27 9390   2.078   2.320   6.977 -0.2769 -1.3137  0.4276
   95SAPS   H7R 9391   2.105   2.214   6.957 -0.2355 -1.4269  1.0695
   95SAPS   H7S 9392   1.973   2.308   7.009 -0.5836 -0.4312 -0.1949
   95SAPS   C28 9393   2.166   2.379   7.083 -0.0277  0.0496  0.1313
   95SAPS   H8R 9394   2.255   2.437   7.054 -0.7373  1.2956  0.3871
   95SAPS   C29 9395   2.135   2.387   7.210  0.1794  0.1338 -0.2154
   95SAPS   H9R 9396   2.210   2.433   7.276 -0.9307 -0.2047  1.3141
   95SAPS  C210 9397   2.006   2.345   7.272  0.0365  0.0591  0.2367
   95SAPS  H10R 9398   2.018   2.252   7.333 -0.1616 -0.9028 -1.1399
   95SAPS  H10S 9399   1.923   2.315   7.205 -2.5875 -0.6127  3.5071
   95SAPS  C211 9400   1.941   2.453   7.351  0.0208  0.2817 -0.1459
   95SAPS  H11R 9401   1.918   2.537   7.284  2.0337  2.1136  1.2876
   95SAPS  C212 9402   1.893   2.445   7.477  0.3189  0.0367 -0.9130
   95SAPS  H12R 9403   1.840   2.533   7.518 -0.5654 -1.3548  1.0901
   95SAPS  C213 9404   1.897   2.327   7.567 -0.1431 -0.0127 -0.8852
   95SAPS  H13R 9405   1.962   2.353   7.654 -0.5602 -1.6217 -0.0474
   95SAPS  H13S 9406   1.947   2.242   7.518 -0.5348 -2.2051  2.1956
   95SAPS  C214 9407   1.754   2.293   7.607  0.1551  0.4821  0.0404
   95SAPS  H14R 9408   1.683   2.303   7.524 -1.5509  1.8570  1.5648
   95SAPS  C215 9409   1.712   2.262   7.729  0.1187 -0.4865 -0.6309
   95SAPS  H15R 9410   1.606   2.236   7.741 -0.1472  0.1016 -1.6094
   95SAPS  C216 9411   1.797   2.244   7.851 -0.0943  0.1707 -0.0294
   95SAPS  H16R 9412   1.902   2.247   7.817 -0.1962 -0.6343 -0.4478
   95SAPS  H16S 9413   1.778   2.152   7.910  1.4406 -0.4934 -0.5357
   95SAPS  C217 9414   1.764   2.356   7.953  0.1077 -0.1147  0.8086
   95SAPS  H17R 9415   1.661   2.328   7.985 -0.6733  2.2412  0.5824
   95SAPS  H17S 9416   1.753   2.452   7.897  0.4709  0.4846  1.7441
   95SAPS  C218 9417   1.863   2.374   8.064  0.8114  0.5598 -0.1896
   95SAPS  H18R 9418   1.963   2.373   8.015  0.4555  1.1116 -0.9383
   95SAPS  H18S 9419   1.837   2.288   8.130 -1.9140  1.8671  0.5975
   95SAPS  C219 9420   1.825   2.508   8.126 -0.9007  0.4050 -0.2442
   95SAPS  H19R 9421   1.719   2.505   8.158  0.1864 -2.2982  3.8602
   95SAPS  H19S 9422   1.826   2.592   8.053  0.6381  0.6378  0.0189
   95SAPS  C220 9423   1.916   2.536   8.248  0.3435 -0.1120 -0.4549
   95SAPS  H20R 9424   1.905   2.642   8.277 -1.7991  0.4151 -2.8397
   95SAPS  H20S 9425   2.020   2.514   8.215 -0.5964 -2.3662 -2.2228
   95SAPS  H20T 9426   1.884   2.459   8.322  0.0001  0.0976 -0.3887
   95SAPS   C33 9427   1.436   2.323   6.985 -0.9946  0.3617  0.1265
   95SAPS   H3X 9428   1.538   2.286   6.960 -1.3770 -0.6247 -0.0270
   95SAPS   H3Y 9429   1.376   2.231   6.969  0.3715 -0.4014 -0.8613
   95SAPS   C34 9430   1.441   2.362   7.130 -0.0225 -0.5949 -0.7420
   95SAPS   H4X 9431   1.474   2.275   7.191  0.5471 -0.1304 -0.3740
   95SAPS   H4Y 9432   1.343   2.400   7.167  0.6200 -1.6297  2.3612
   95SAPS   C35 9433   1.544   2.480   7.152  0.2593 -1.0547 -1.0125
   95SAPS   H5X 9434   1.526   2.572   7.093  0.3768 -0.2470  0.1690
   95SAPS   H5Y 9435   1.647   2.446   7.126  0.9015  1.5511 -2.2093
   95SAPS   C36 9436   1.557   2.509   7.300  0.5428  0.5513 -0.0458
   95SAPS   H6X 9437   1.654   2.557   7.325  0.3510  0.6162  0.5791
   95SAPS   H6Y 9438   1.552   2.420   7.366 -1.4987  0.9394  0.3749
   95SAPS   C37 9439   1.441   2.590   7.354  0.2343  0.0251  0.6647
   95SAPS   H7X 9440   1.357   2.526   7.388  0.9980  0.4669  3.6067
   95SAPS   H7Y 9441   1.413   2.663   7.275  0.8867 -0.5754 -0.1398
   95SAPS   C38 9442   1.477   2.660   7.487 -0.0213 -0.5651  0.7301
   95SAPS   H8X 9443   1.405   2.741   7.513  0.2817 -0.4310  1.1725
   95SAPS   H8Y 9444   1.562   2.728   7.470 -1.0434  0.2942 -1.1740
   95SAPS   C39 9445   1.489   2.573   7.614  0.8545 -0.3965 -0.6097
   95SAPS   H9X 9446   1.584   2.519   7.633  0.5704 -0.1751  1.6718
   95SAPS   H9Y 9447   1.416   2.489   7.606  0.1998  0.1221 -0.1774
   95SAPS  C310 9448   1.469   2.646   7.744  0.1543  0.3837 -0.0790
   95SAPS  H10X 9449   1.537   2.734   7.744 -0.0798  0.7837  4.2502
   95SAPS  H10Y 9450   1.508   2.571   7.816  1.6723  0.7887 -0.4443
   95SAPS  C311 9451   1.319   2.676   7.773  0.5425 -0.6677 -0.3897
   95SAPS  H11X 9452   1.261   2.583   7.756  0.2373 -1.0508  2.2845
   95SAPS  H11Y 9453   1.275   2.754   7.707  2.7211  1.4996  0.5596
   95SAPS  C312 9454   1.292   2.739   7.917  0.5784 -0.4107 -0.1052
   95SAPS  H12X 9455   1.194   2.790   7.909  1.6861  1.6750 -1.1459
   95SAPS  H12Y 9456   1.373   2.809   7.948 -1.1009  0.8496  1.6927
   95SAPS  C313 9457   1.279   2.625   8.015  0.1163 -0.2124  0.0361
   95SAPS  H13X 9458   1.362   2.552   8.008  2.2563  2.0521  0.5161
   95SAPS  H13Y 9459   1.189   2.568   7.984 -0.3373  1.7229 -2.4607
   95SAPS  C314 9460   1.278   2.686   8.155 -0.0482  0.1834 -0.0607
   95SAPS  H14X 9461   1.187   2.750   8.152  1.0451  1.8157  0.0624
   95SAPS  H14Y 9462   1.371   2.745   8.169  0.1929 -0.1694 -0.1633
   95SAPS  C315 9463   1.244   2.599   8.280 -0.2346 -0.2681 -0.4575
   95SAPS  H15X 9464   1.299   2.503   8.268 -1.0516 -0.6959 -0.8171
   95SAPS  H15Y 9465   1.136   2.575   8.288 -0.7440  2.3922  3.6174
   95SAPS  C316 9466   1.281   2.660   8.421 -0.2646 -0.3905 -0.3498
   95SAPS  H16X 9467   1.261   2.768   8.439  1.3030 -0.0810 -0.3539
   95SAPS  H16Y 9468   1.391   2.664   8.431 -0.3838 -1.3844  1.8074
   95SAPS  C317 9469   1.242   2.577   8.544 -0.1153 -0.1790 -0.5171
   95SAPS  H17X 9470   1.133   2.585   8.566  0.1035  1.8735  0.0277
   95SAPS  H17Y 9471   1.289   2.631   8.629 -0.4504  1.0285 -1.0721
   95SAPS  C318 9472   1.280   2.427   8.530  0.2435  0.0781 -0.6111
   95SAPS  H18X 9473   1.389   2.409   8.547 -0.0098 -1.3957 -0.4239
   95SAPS  H18Y 9474   1.247   2.382   8.435  0.1451 -1.0199 -0.0729
   95SAPS  H18Z 9475   1.232   2.378   8.617  0.3013  0.2795 -0.4621
   96SAPS     N 9476   2.532   4.139   6.041  0.6718  0.1916 -0.6696
   96SAPS   HN1 9477   2.519   4.100   5.945 -1.4934 -0.4179 -0.1697
   96SAPS   HN2 9478   2.447   4.127   6.099  0.2832 -0.1596 -1.2966
   96SAPS   HN3 9479   2.528   4.242   6.027 -1.0789  0.6362  2.3449
   96SAPS   C12 9480   2.660   4.095   6.107 -0.2236 -0.4320 -0.4127
   96SAPS  H12A 9481   2.657   3.990   6.130  1.3927 -0.6218 -0.9932
   96SAPS   C13 9482   2.781   4.107   6.017  0.2791 -0.1508  0.5223
   96SAPS  O13A 9483   2.771   4.167   5.901 -0.1909  0.3390 -0.5373
   96SAPS  O13B 9484   2.894   4.093   6.069  0.5978  0.0436 -0.1373
   96SAPS   C11 9485   2.674   4.177   6.240 -0.0238 -0.3051 -0.0498
   96SAPS  H11A 9486   2.669   4.286   6.219  1.5808 -0.5707 -2.0734
   96SAPS  H11B 9487   2.769   4.156   6.293 -0.5640  0.5919  1.3331
   96SAPS     P 9488   2.545   4.028   6.433 -0.1262  0.1251  0.1082
   96SAPS   O13 9489   2.402   4.009   6.467  0.0512 -0.1436  0.1143
   96SAPS   O14 9490   2.614   3.904   6.388 -0.1460 -0.9680  0.0584
   96SAPS   O12 9491   2.560   4.141   6.321 -0.2589  0.2786 -0.5552
   96SAPS   O11 9492   2.611   4.077   6.566  0.3057  0.0918 -0.2390
   96SAPS    C1 9493   2.665   4.206   6.580 -0.6627 -0.2157  0.2154
   96SAPS    HA 9494   2.769   4.212   6.541 -0.5126 -0.1858  0.6087
   96SAPS    HB 9495   2.601   4.282   6.532 -0.2529  0.7077  1.0808
   96SAPS    C2 9496   2.663   4.249   6.731  0.7929  0.1464 -0.2872
   96SAPS    HS 9497   2.705   4.164   6.789  2.2348  0.4823 -0.8126
   96SAPS   O21 9498   2.520   4.265   6.762 -0.1736 -0.1849  0.0060
   96SAPS   C21 9499   2.451   4.163   6.815  0.2444  0.3847  0.1205
   96SAPS   O22 9500   2.494   4.051   6.831 -0.0038  0.1253 -0.3944
   96SAPS   C22 9501   2.313   4.212   6.856  0.7633  0.5709 -0.3114
   96SAPS   H2R 9502   2.320   4.249   6.961  0.3561  0.0894 -0.1131
   96SAPS   H2S 9503   2.278   4.300   6.798 -1.6300 -0.3692 -0.4005
   96SAPS    C3 9504   2.729   4.381   6.767 -0.0348  0.4263 -0.3853
   96SAPS    HX 9505   2.704   4.412   6.871 -1.1375  1.1264 -0.8338
   96SAPS    HY 9506   2.678   4.464   6.713 -1.2813  0.8447  1.3669
   96SAPS   O31 9507   2.873   4.373   6.751 -0.2522 -0.6905 -0.0241
   96SAPS   C31 9508   2.937   4.461   6.826 -0.2959 -0.8044 -0.5726
   96SAPS   O32 9509   2.886   4.548   6.900 -0.0125  0.2597 -0.0460
   96SAPS   C32 9510   3.088   4.421   6.830 -0.7527  1.0216 -0.3861
   96SAPS   H2X 9511   3.146   4.494   6.769  2.2651 -0.7492  0.1472
   96SAPS   H2Y 9512   3.099   4.319   6.787 -0.3566  0.7293  0.3927
   96SAPS   C23 9513   2.215   4.094   6.872 -0.1217  0.2866  0.0673
   96SAPS   H3R 9514   2.266   3.999   6.899 -0.4459 -0.0136 -0.3625
   96SAPS   H3S 9515   2.170   4.074   6.772  2.1805 -2.1066 -0.6247
   96SAPS   C24 9516   2.099   4.093   6.975 -0.7069 -0.6289 -0.1370
   96SAPS   H4R 9517   2.117   4.052   7.077  0.0128 -0.3393 -0.1408
   96SAPS   H4S 9518   2.023   4.026   6.930 -0.8111 -0.0189 -0.8873
   96SAPS   C25 9519   2.051   4.236   6.989 -0.4933 -0.8830 -0.2830
   96SAPS   H5R 9520   2.023   4.272   6.889  0.5054  0.8786  0.0310
   96SAPS   C26 9521   2.042   4.323   7.094  0.6269  0.4970  0.3170
   96SAPS   H6R 9522   2.002   4.419   7.060  3.9437  1.5745 -0.9108
   96SAPS   C27 9523   2.089   4.295   7.236  0.0676 -0.0758 -0.4362
   96SAPS   H7R 9524   2.144   4.386   7.270 -1.1629  1.3620 -2.1087
   96SAPS   H7S 9525   2.173   4.222   7.227  0.5132  0.3278  0.3396
   96SAPS   C28 9526   1.987   4.238   7.331  0.0406 -0.1930  0.2421
   96SAPS   H8R 9527   1.890   4.217   7.283  0.7576 -1.1867 -0.8221
   96SAPS   C29 9528   1.995   4.216   7.460  0.8208 -1.0371 -0.3748
   96SAPS   H9R 9529   1.907   4.196   7.523  1.0331 -0.7190  0.0301
   96SAPS  C210 9530   2.122   4.242   7.543  0.1716  0.4948 -0.2388
   96SAPS  H10R 9531   2.110   4.340   7.593  1.6147 -0.2992  1.8026
   96SAPS  H10S 9532   2.210   4.248   7.476  0.8370 -1.4268  0.4129
   96SAPS  C211 9533   2.145   4.130   7.640  0.0656  0.1572 -0.0603
   96SAPS  H11R 9534   2.091   4.041   7.605  1.1707 -0.7796  0.5381
   96SAPS  C212 9535   2.198   4.131   7.760 -0.2415 -0.8833  0.6736
   96SAPS  H12R 9536   2.185   4.041   7.822 -1.2228 -2.8774 -2.2185
   96SAPS  C213 9537   2.277   4.236   7.834  0.3431 -1.3124  0.4859
   96SAPS  H13R 9538   2.216   4.280   7.916 -0.1192  1.1445 -1.0528
   96SAPS  H13S 9539   2.296   4.326   7.772  1.7364 -1.2844  0.9241
   96SAPS  C214 9540   2.413   4.183   7.878 -0.5919 -0.0136  0.0768
   96SAPS  H14R 9541   2.495   4.214   7.811 -1.9575  2.0896 -0.7076
   96SAPS  C215 9542   2.438   4.103   7.986  0.9388 -0.2423 -1.0720
   96SAPS  H15R 9543   2.539   4.071   8.014  0.4333 -0.5982  0.4414
   96SAPS  C216 9544   2.328   4.055   8.083  0.3587  0.0461  0.7335
   96SAPS  H16R 9545   2.325   3.944   8.079  0.4196  0.0936 -1.6100
   96SAPS  H16S 9546   2.227   4.083   8.047  0.8605  1.5451  0.4262
   96SAPS  C217 9547   2.325   4.119   8.224 -0.2303  0.2554  0.1609
   96SAPS  H17R 9548   2.284   4.221   8.205 -0.1494 -0.0629 -1.9136
   96SAPS  H17S 9549   2.431   4.128   8.255 -0.0017 -0.3348 -0.4304
   96SAPS  C218 9550   2.250   4.050   8.335 -0.4010 -0.0589  0.5782
   96SAPS  H18R 9551   2.265   3.940   8.331 -2.3099 -0.3347 -1.2908
   96SAPS  H18S 9552   2.144   4.064   8.304 -0.1418  0.5152 -0.0948
   96SAPS  C219 9553   2.267   4.092   8.483  0.0867 -0.5425  0.1342
   96SAPS  H19R 9554   2.189   4.035   8.539 -2.3323  0.3883 -2.0598
   96SAPS  H19S 9555   2.251   4.201   8.487 -0.1265 -0.5051 -1.0764
   96SAPS  C220 9556   2.393   4.066   8.563 -0.4092 -0.7877 -0.6996
   96SAPS  H20R 9557   2.382   4.097   8.669 -0.1316 -0.0416 -0.8800
   96SAPS  H20S 9558   2.475   4.124   8.516  0.7218 -3.0290 -1.6111
   96SAPS  H20T 9559   2.423   3.961   8.547  0.5508 -0.7093  0.5011
   96SAPS   C33 9560   3.144   4.436   6.974 -0.0822  0.2188 -0.1241
   96SAPS   H3X 9561   3.080   4.378   7.043  0.3191  0.4826  0.4791
   96SAPS   H3Y 9562   3.121   4.542   7.000 -1.3688  0.2782 -1.3968
   96SAPS   C34 9563   3.292   4.418   6.984 -0.2244 -0.5687  0.2477
   96SAPS   H4X 9564   3.348   4.462   6.899 -0.1373 -1.5461 -0.2112
   96SAPS   H4Y 9565   3.318   4.310   6.983 -2.5201 -1.1869 -1.1204
   96SAPS   C35 9566   3.341   4.467   7.125 -0.3390 -0.0947 -0.0531
   96SAPS   H5X 9567   3.340   4.577   7.135 -1.2179  0.0964 -1.9847
   96SAPS   H5Y 9568   3.449   4.445   7.141 -0.8647 -3.5927 -0.4353
   96SAPS   C36 9569   3.272   4.400   7.248 -0.1892 -0.3893  0.6961
   96SAPS   H6X 9570   3.255   4.293   7.227  1.6735 -0.5915  0.0128
   96SAPS   H6Y 9571   3.167   4.436   7.256  0.5598  2.4507 -1.0056
   96SAPS   C37 9572   3.337   4.429   7.383 -0.5226  0.2042  0.0550
   96SAPS   H7X 9573   3.362   4.537   7.391 -0.1870  0.3641 -2.3857
   96SAPS   H7Y 9574   3.430   4.371   7.401  0.8831  2.7264  1.6387
   96SAPS   C38 9575   3.248   4.404   7.506  0.8057 -1.1174  0.2336
   96SAPS   H8X 9576   3.199   4.306   7.487  3.0286 -1.8653 -2.2795
   96SAPS   H8Y 9577   3.167   4.480   7.500  1.8499  0.1305  1.3192
   96SAPS   C39 9578   3.316   4.415   7.648 -0.3415 -0.4604  0.3327
   96SAPS   H9X 9579   3.417   4.369   7.642  0.0488 -0.4060  3.9064
   96SAPS   H9Y 9580   3.262   4.365   7.731 -1.8937  1.8695  0.8150
   96SAPS  C310 9581   3.337   4.557   7.704  0.9704  0.2361 -0.5094
   96SAPS  H10X 9582   3.243   4.616   7.694 -0.5755 -2.1614 -1.0851
   96SAPS  H10Y 9583   3.417   4.615   7.654  0.8348  1.0389  0.1867
   96SAPS  C311 9584   3.380   4.553   7.851  0.2095 -0.4703 -0.7608
   96SAPS  H11X 9585   3.422   4.654   7.869 -1.7319  0.1274  0.8598
   96SAPS  H11Y 9586   3.455   4.471   7.861  0.0049 -0.6698 -0.8417
   96SAPS  C312 9587   3.260   4.529   7.947 -0.4244  0.4147  0.7131
   96SAPS  H12X 9588   3.232   4.421   7.940  1.6285 -0.2113  1.3612
   96SAPS  H12Y 9589   3.174   4.582   7.903 -2.0929 -1.5548  1.4569
   96SAPS  C313 9590   3.284   4.580   8.092  0.5867  0.0573 -0.3202
   96SAPS  H13X 9591   3.283   4.691   8.087 -0.0768  0.2082  2.1077
   96SAPS  H13Y 9592   3.389   4.548   8.113  0.5059 -0.6665 -0.9977
   96SAPS  C314 9593   3.198   4.502   8.194  0.1200  0.0721 -0.6581
   96SAPS  H14X 9594   3.222   4.393   8.192  1.1549  0.2833 -2.8903
   96SAPS  H14Y 9595   3.090   4.513   8.167 -0.5677  0.7849  2.0976
   96SAPS  C315 9596   3.209   4.546   8.343 -0.2079  0.1415 -0.2544
   96SAPS  H15X 9597   3.116   4.511   8.394 -1.3081  2.6352 -0.3939
   96SAPS  H15Y 9598   3.217   4.656   8.332  0.5099  0.1482  0.2726
   96SAPS  C316 9599   3.332   4.477   8.417  0.3670  0.2598 -0.3948
   96SAPS  H16X 9600   3.426   4.523   8.381 -0.5528  0.6605 -2.3827
   96SAPS  H16Y 9601   3.332   4.372   8.383  0.7615 -0.1020  0.6765
   96SAPS  C317 9602   3.318   4.472   8.573 -0.2058  0.0530 -0.1253
   96SAPS  H17X 9603   3.379   4.385   8.601  0.2970 -0.2507 -2.0383
   96SAPS  H17Y 9604   3.216   4.435   8.595 -0.2249  0.3814  0.3544
   96SAPS  C318 9605   3.344   4.612   8.634 -1.0041  0.0962  0.2187
   96SAPS  H18X 9606   3.332   4.608   8.744  2.5215 -2.8217  0.7042
   96SAPS  H18Y 9607   3.269   4.680   8.589  0.7916  2.2829  0.3914
   96SAPS  H18Z 9608   3.447   4.649   8.614 -0.0850 -0.7813  2.8684
   97SAPS     N 9609   3.368   2.142   6.483 -0.1470 -0.4617 -0.2325
   97SAPS   HN1 9610   3.471   2.128   6.483  0.0855  1.0195 -0.1944
   97SAPS   HN2 9611   3.330   2.100   6.569  0.6815 -1.4689 -0.3388
   97SAPS   HN3 9612   3.330   2.107   6.393  0.2053  0.1425 -0.6273
   97SAPS   C12 9613   3.343   2.288   6.488  0.2922 -0.6605  1.4503
   97SAPS  H12A 9614   3.395   2.328   6.574  0.4379 -0.6711  1.3683
   97SAPS   C13 9615   3.384   2.370   6.362 -0.3520 -0.2050  0.6059
   97SAPS  O13A 9616   3.448   2.319   6.267  0.8414 -0.3791  0.1466
   97SAPS  O13B 9617   3.375   2.495   6.364 -0.0162  0.0654  0.4382
   97SAPS   C11 9618   3.187   2.320   6.511 -0.6295  0.1798  0.9031
   97SAPS  H11A 9619   3.177   2.429   6.531  0.0957 -0.1640  3.4173
   97SAPS  H11B 9620   3.146   2.278   6.605 -0.2087 -2.1143  0.1206
   97SAPS     P 9621   3.025   2.157   6.373  0.2993  0.1726  0.4694
   97SAPS   O13 9622   2.950   2.169   6.245 -0.1903 -0.5287 -0.4705
   97SAPS   O14 9623   3.123   2.044   6.381  0.3438  0.5238  0.4559
   97SAPS   O12 9624   3.111   2.287   6.396  0.0332  0.0273 -0.4709
   97SAPS   O11 9625   2.918   2.141   6.489 -0.7592  0.5061  0.8287
   97SAPS    C1 9626   2.820   2.243   6.520 -0.5457 -0.2963 -0.0640
   97SAPS    HA 9627   2.826   2.324   6.444 -0.6302 -0.9562 -0.7834
   97SAPS    HB 9628   2.718   2.202   6.503 -0.1737 -0.9648 -0.7702
   97SAPS    C2 9629   2.834   2.296   6.663 -0.5215  0.0484  0.3169
   97SAPS    HS 9630   2.939   2.331   6.670 -0.7650  0.6311  1.1507
   97SAPS   O21 9631   2.797   2.190   6.746  0.0536  0.0526 -0.3542
   97SAPS   C21 9632   2.891   2.126   6.803 -0.0756  0.1191 -0.3802
   97SAPS   O22 9633   3.009   2.153   6.802 -0.0357 -0.2200 -0.0980
   97SAPS   C22 9634   2.826   2.012   6.890  0.3211 -0.0281 -0.0853
   97SAPS   H2R 9635   2.716   2.031   6.891  0.3256  0.2769 -1.8680
   97SAPS   H2S 9636   2.852   1.922   6.831  1.1265 -0.9070  1.5590
   97SAPS    C3 9637   2.749   2.424   6.688  0.0329 -0.1830  0.5047
   97SAPS    HX 9638   2.646   2.383   6.684 -0.8429  2.0090 -1.2254
   97SAPS    HY 9639   2.757   2.485   6.596  2.9957  3.6041  2.9670
   97SAPS   O31 9640   2.780   2.491   6.807 -0.6198 -0.1220  0.2703
   97SAPS   C31 9641   2.685   2.554   6.866  0.2108  1.2934 -0.3301
   97SAPS   O32 9642   2.563   2.551   6.833 -0.7779 -0.3850  0.5168
   97SAPS   C32 9643   2.735   2.620   6.996 -0.4640 -0.2265  0.1060
   97SAPS   H2X 9644   2.797   2.700   6.950  1.2397 -2.7868 -2.4777
   97SAPS   H2Y 9645   2.798   2.549   7.055 -0.8858 -0.9471 -0.3019
   97SAPS   C23 9646   2.876   2.017   7.034  1.0050 -0.4708  0.5211
   97SAPS   H3R 9647   2.844   2.106   7.092  0.1847 -0.7537  0.5298
   97SAPS   H3S 9648   2.986   2.020   7.021  1.1255 -0.3566  1.5127
   97SAPS   C24 9649   2.838   1.894   7.108  0.8299  0.3636  0.3556
   97SAPS   H4R 9650   2.905   1.903   7.197  1.1054 -1.3642  0.3577
   97SAPS   H4S 9651   2.871   1.803   7.054 -3.8206 -1.7155  0.5266
   97SAPS   C25 9652   2.690   1.872   7.153  0.2633  0.3058  0.2629
   97SAPS   H5R 9653   2.617   1.837   7.079  0.9660 -1.6880  0.4492
   97SAPS   C26 9654   2.641   1.874   7.286 -0.4047  0.0663  0.4851
   97SAPS   H6R 9655   2.532   1.866   7.303 -0.2418 -1.2650  1.0084
   97SAPS   C27 9656   2.730   1.905   7.406 -0.3122 -0.1951  0.0228
   97SAPS   H7R 9657   2.735   2.012   7.435  2.2730 -0.5272  1.0545
   97SAPS   H7S 9658   2.834   1.871   7.394  0.2151  1.5552 -0.6609
   97SAPS   C28 9659   2.691   1.818   7.522  0.9010  0.4414  0.7895
   97SAPS   H8R 9660   2.657   1.716   7.498  1.5216  0.5223 -0.5068
   97SAPS   C29 9661   2.706   1.839   7.651 -0.2908  0.3989 -0.1845
   97SAPS   H9R 9662   2.665   1.757   7.712 -1.1585  0.1424 -1.0697
   97SAPS  C210 9663   2.750   1.969   7.700 -0.5300 -0.1985  0.5868
   97SAPS  H10R 9664   2.734   2.047   7.623 -0.5271 -2.1500 -1.4918
   97SAPS  H10S 9665   2.859   1.979   7.722 -0.3402  1.7163 -1.0371
   97SAPS  C211 9666   2.653   2.004   7.810  0.0542 -0.3653 -0.1032
   97SAPS  H11R 9667   2.568   2.060   7.770  0.8858  1.8410  1.0601
   97SAPS  C212 9668   2.657   1.988   7.948 -0.0465 -0.3581  0.7305
   97SAPS  H12R 9669   2.586   2.034   8.018  0.1457  1.6902 -0.3290
   97SAPS  C213 9670   2.788   1.939   8.012  0.0461 -0.1721 -0.3998
   97SAPS  H13R 9671   2.831   2.034   8.051  3.8123 -1.0025 -1.9793
   97SAPS  H13S 9672   2.854   1.914   7.925 -0.1094  1.9514 -1.1900
   97SAPS  C214 9673   2.773   1.820   8.106 -0.2291 -0.2870  0.5458
   97SAPS  H14R 9674   2.731   1.729   8.061 -0.9746  0.6701 -0.7613
   97SAPS  C215 9675   2.791   1.811   8.243 -0.2541  0.6177  0.3785
   97SAPS  H15R 9676   2.767   1.712   8.283 -1.7092  0.4167 -0.8818
   97SAPS  C216 9677   2.823   1.926   8.334  0.2118 -0.4811  0.1694
   97SAPS  H16R 9678   2.832   2.018   8.273 -1.7126 -0.0536  0.4609
   97SAPS  H16S 9679   2.921   1.904   8.380 -0.7801 -1.6755  1.8448
   97SAPS  C217 9680   2.711   1.937   8.440 -0.5254  0.4375  0.2676
   97SAPS  H17R 9681   2.745   1.975   8.538  1.5683 -1.7125  0.4692
   97SAPS  H17S 9682   2.672   1.835   8.462  0.1533 -0.0225 -0.5693
   97SAPS  C218 9683   2.606   2.034   8.396  0.8006  0.1549  0.8301
   97SAPS  H18R 9684   2.629   2.090   8.303  1.6228  0.0092  0.9428
   97SAPS  H18S 9685   2.590   2.102   8.482 -3.2167 -1.3398  1.4706
   97SAPS  C219 9686   2.470   1.962   8.391  0.2271  0.5177 -0.2093
   97SAPS  H19R 9687   2.478   1.866   8.336 -1.1536  1.2925 -1.8529
   97SAPS  H19S 9688   2.386   2.019   8.344 -0.3863  1.1068  1.5001
   97SAPS  C220 9689   2.418   1.938   8.529 -0.1732 -0.0844 -0.2048
   97SAPS  H20R 9690   2.307   1.925   8.524 -0.1205 -1.1914  1.0907
   97SAPS  H20S 9691   2.431   2.033   8.584  1.3840 -0.2971 -0.1715
   97SAPS  H20T 9692   2.468   1.853   8.579  0.4902 -1.8789 -3.5641
   97SAPS   C33 9693   2.632   2.696   7.085 -0.2161  0.6955 -0.2478
   97SAPS   H3X 9694   2.545   2.630   7.105  0.2298 -0.0871 -0.8524
   97SAPS   H3Y 9695   2.589   2.787   7.039 -1.4617  1.3017  1.9481
   97SAPS   C34 9696   2.690   2.713   7.225 -0.4228  0.6736  0.6903
   97SAPS   H4X 9697   2.722   2.616   7.269  2.7342 -0.0369 -2.7371
   97SAPS   H4Y 9698   2.611   2.756   7.291 -1.4532  0.4015 -0.3382
   97SAPS   C35 9699   2.809   2.813   7.223  0.3749  0.2176  0.1637
   97SAPS   H5X 9700   2.776   2.911   7.184 -0.2692  0.7724  1.9818
   97SAPS   H5Y 9701   2.893   2.764   7.168  2.0353  1.2248  1.6858
   97SAPS   C36 9702   2.874   2.829   7.363  0.0919  0.1289 -0.1183
   97SAPS   H6X 9703   2.786   2.840   7.430  0.0449 -1.5085  0.1435
   97SAPS   H6Y 9704   2.942   2.916   7.370  1.2914 -0.6150 -1.9046
   97SAPS   C37 9705   2.952   2.699   7.404  0.4447  0.0238  0.0783
   97SAPS   H7X 9706   3.027   2.678   7.325 -0.5317 -1.5650 -0.4698
   97SAPS   H7Y 9707   2.889   2.609   7.417  0.6855 -0.3865 -1.3847
   97SAPS   C38 9708   3.018   2.716   7.539  0.1447  0.0682 -0.1353
   97SAPS   H8X 9709   3.058   2.819   7.554  2.7481 -1.2128  3.1283
   97SAPS   H8Y 9710   3.111   2.656   7.551 -0.7805 -1.4843 -0.4446
   97SAPS   C39 9711   2.925   2.661   7.644  0.2098  0.4607 -0.2508
   97SAPS   H9X 9712   2.892   2.558   7.619 -4.0921  1.6723 -0.2327
   97SAPS   H9Y 9713   2.835   2.724   7.661 -0.2277  0.0023 -0.8573
   97SAPS  C310 9714   3.005   2.659   7.774  0.4307  0.3208  0.1454
   97SAPS  H10X 9715   3.096   2.596   7.760  1.8109  2.2293  0.0322
   97SAPS  H10Y 9716   2.938   2.611   7.849 -2.1812  0.0502 -2.2114
   97SAPS  C311 9717   3.033   2.810   7.828 -0.8170  0.7735  0.8429
   97SAPS  H11X 9718   2.938   2.867   7.816 -1.5050 -0.8379 -2.0497
   97SAPS  H11Y 9719   3.123   2.845   7.773  1.3637 -3.1630  1.5235
   97SAPS  C312 9720   3.077   2.813   7.972 -0.2152 -0.1807 -0.3555
   97SAPS  H12X 9721   3.133   2.908   7.986 -2.0422  0.8908  0.0385
   97SAPS  H12Y 9722   3.159   2.738   7.971  0.5209  0.5986 -2.2922
   97SAPS  C313 9723   2.969   2.807   8.076 -0.2847  0.2931  0.2464
   97SAPS  H13X 9724   2.912   2.712   8.067  1.8611 -0.9460 -1.0322
   97SAPS  H13Y 9725   2.894   2.888   8.066 -0.1746  0.5728  1.4949
   97SAPS  C314 9726   3.028   2.808   8.213  0.2137 -0.3164  0.8514
   97SAPS  H14X 9727   3.072   2.708   8.235  3.6648  0.7154 -0.7054
   97SAPS  H14Y 9728   2.944   2.831   8.282 -1.3020  3.3118 -1.8750
   97SAPS  C315 9729   3.151   2.908   8.235  0.5465 -0.0643 -0.2111
   97SAPS  H15X 9730   3.124   3.012   8.205 -0.1458 -0.7681 -2.1883
   97SAPS  H15Y 9731   3.242   2.877   8.180 -0.0574 -4.2922  0.8618
   97SAPS  C316 9732   3.200   2.897   8.382 -0.4064 -0.1631 -0.2986
   97SAPS  H16X 9733   3.236   2.794   8.403 -1.8725 -0.6807 -0.2353
   97SAPS  H16Y 9734   3.119   2.928   8.452  1.0153  1.2346  0.7960
   97SAPS  C317 9735   3.325   2.985   8.390 -0.7487  0.2437  0.0806
   97SAPS  H17X 9736   3.391   2.980   8.301 -0.0731  1.0492  0.5289
   97SAPS  H17Y 9737   3.394   2.950   8.469 -1.0194 -0.3712  0.0506
   97SAPS  C318 9738   3.288   3.132   8.423  0.2429 -0.3281  0.0096
   97SAPS  H18X 9739   3.381   3.193   8.430 -0.4335  0.7568 -0.2791
   97SAPS  H18Y 9740   3.243   3.136   8.524 -0.9002 -1.4634 -0.4278
   97SAPS  H18Z 9741   3.220   3.167   8.343  1.8204 -0.2989 -1.3701
   98SAPS     N 9742   0.488   1.937   5.888  0.2374 -0.8661  0.3800
   98SAPS   HN1 9743   0.497   1.846   5.838 -1.3166  0.3121 -2.2486
   98SAPS   HN2 9744   0.405   1.987   5.851  0.6166 -0.3216  0.2493
   98SAPS   HN3 9745   0.573   1.997   5.878  0.5493 -1.5392 -1.3663
   98SAPS   C12 9746   0.462   1.913   6.038  0.5709  0.3653 -0.1542
   98SAPS  H12A 9747   0.418   2.005   6.075 -3.0677 -0.6598 -1.5372
   98SAPS   C13 9748   0.353   1.802   6.070 -0.2783 -0.2559  0.6502
   98SAPS  O13A 9749   0.295   1.740   5.973 -0.0055  0.1168  0.1093
   98SAPS  O13B 9750   0.324   1.783   6.188 -0.3691 -0.1763  0.0019
   98SAPS   C11 9751   0.596   1.879   6.112  0.1958  0.7443  0.3564
   98SAPS  H11A 9752   0.566   1.867   6.218 -0.4973  0.0789  0.0952
   98SAPS  H11B 9753   0.664   1.965   6.098 -1.1245  1.5741 -1.3667
   98SAPS     P 9754   0.797   1.722   6.117  0.0433 -0.2091  0.2895
   98SAPS   O13 9755   0.843   1.611   6.035  0.0875  0.0091 -0.3484
   98SAPS   O14 9756   0.891   1.838   6.115 -0.1116 -0.1168 -0.4525
   98SAPS   O12 9757   0.657   1.759   6.051  0.0254 -0.0966  0.6519
   98SAPS   O11 9758   0.766   1.688   6.271 -0.6157  0.1747 -0.1124
   98SAPS    C1 9759   0.646   1.625   6.318  0.3068  0.7516 -0.4014
   98SAPS    HA 9760   0.555   1.641   6.255 -0.4014 -1.9017 -0.1508
   98SAPS    HB 9761   0.666   1.517   6.333 -0.4438  0.4589 -1.4212
   98SAPS    C2 9762   0.610   1.681   6.461 -0.1601 -0.2420 -0.1341
   98SAPS    HS 9763   0.605   1.792   6.456  0.9384 -0.2473 -2.9393
   98SAPS   O21 9764   0.715   1.636   6.553  0.6112 -0.2404 -0.5380
   98SAPS   C21 9765   0.718   1.716   6.663 -0.5348 -0.7082 -0.8174
   98SAPS   O22 9766   0.647   1.812   6.682  0.0640 -0.1894  0.0919
   98SAPS   C22 9767   0.827   1.669   6.763  1.5753  0.2912  0.0518
   98SAPS   H2R 9768   0.824   1.559   6.775  0.4364  0.5692  3.2403
   98SAPS   H2S 9769   0.929   1.699   6.731  2.3635  0.5082  2.5151
   98SAPS    C3 9770   0.471   1.629   6.502 -0.3639  0.5154  0.1565
   98SAPS    HX 9771   0.470   1.521   6.528  1.3574  0.4747  0.1999
   98SAPS    HY 9772   0.409   1.655   6.414 -2.1464  4.1074  2.2072
   98SAPS   O31 9773   0.415   1.701   6.609 -0.2279  0.7452 -0.2723
   98SAPS   C31 9774   0.392   1.652   6.729  0.6264  0.2312 -0.0962
   98SAPS   O32 9775   0.429   1.548   6.777 -0.1944 -0.4624 -0.2704
   98SAPS   C32 9776   0.320   1.762   6.810 -0.1603 -0.0849 -0.7207
   98SAPS   H2X 9777   0.212   1.742   6.820 -0.2182  1.3868  3.6601
   98SAPS   H2Y 9778   0.338   1.860   6.762  1.0778  0.2047  0.2755
   98SAPS   C23 9779   0.820   1.729   6.904 -0.6084  0.3880 -0.2561
   98SAPS   H3R 9780   0.763   1.824   6.901 -0.8199  0.2353 -1.8267
   98SAPS   H3S 9781   0.920   1.768   6.934 -0.8572  0.4135  0.5702
   98SAPS   C24 9782   0.772   1.637   7.014  0.2138 -0.2310 -0.5370
   98SAPS   H4R 9783   0.847   1.556   7.024 -0.6447 -0.8920  0.8171
   98SAPS   H4S 9784   0.675   1.585   6.996 -0.3436  0.2330  0.9390
   98SAPS   C25 9785   0.742   1.702   7.149 -0.6735  0.1446 -0.8163
   98SAPS   H5R 9786   0.748   1.812   7.151  0.8336  0.1179 -2.1395
   98SAPS   C26 9787   0.710   1.639   7.265 -0.5670  0.2495  0.0371
   98SAPS   H6R 9788   0.707   1.695   7.359 -0.0217  0.3864 -0.0239
   98SAPS   C27 9789   0.703   1.488   7.277 -0.5206  0.2493 -0.7994
   98SAPS   H7R 9790   0.740   1.425   7.193 -0.9177  0.4378 -1.1189
   98SAPS   H7S 9791   0.598   1.455   7.286  0.0862 -1.4838  0.4236
   98SAPS   C28 9792   0.782   1.448   7.401  0.4646  0.0916  0.2337
   98SAPS   H8R 9793   0.892   1.461   7.400  0.6324 -1.1835  0.2524
   98SAPS   C29 9794   0.736   1.399   7.516  0.3049  0.5986 -0.6469
   98SAPS   H9R 9795   0.806   1.369   7.595 -1.3537  0.6235  0.8824
   98SAPS  C210 9796   0.592   1.357   7.553  0.2332  0.8334 -0.0784
   98SAPS  H10R 9797   0.524   1.352   7.465 -1.5793  0.9146  1.2640
   98SAPS  H10S 9798   0.559   1.431   7.628 -1.0189 -0.5291  0.7911
   98SAPS  C211 9799   0.594   1.227   7.629 -0.2848 -1.1366  0.2851
   98SAPS  H11R 9800   0.596   1.144   7.557  1.6911 -1.2991  0.4901
   98SAPS  C212 9801   0.613   1.203   7.758  0.0471  0.1874 -0.1518
   98SAPS  H12R 9802   0.601   1.096   7.782  0.9576  0.1792  0.2955
   98SAPS  C213 9803   0.637   1.297   7.870 -0.3704  0.3255 -0.2411
   98SAPS  H13R 9804   0.572   1.257   7.951  0.5341 -3.2793 -1.1506
   98SAPS  H13S 9805   0.594   1.398   7.848 -0.8887  0.1920  0.1368
   98SAPS  C214 9806   0.780   1.309   7.921  0.1152  0.2933  0.0415
   98SAPS  H14R 9807   0.859   1.327   7.846  1.1792  0.3244  1.1465
   98SAPS  C215 9808   0.817   1.300   8.047 -0.2812  1.0185  0.6352
   98SAPS  H15R 9809   0.925   1.299   8.071 -0.2663  0.2520  0.5364
   98SAPS  C216 9810   0.739   1.273   8.168  0.5063 -0.1597  0.3172
   98SAPS  H16R 9811   0.631   1.278   8.143  0.2818 -0.0468  1.2455
   98SAPS  H16S 9812   0.763   1.352   8.243  2.1548  0.1554 -0.4956
   98SAPS  C217 9813   0.777   1.144   8.237  0.5865 -0.1543  0.0713
   98SAPS  H17R 9814   0.883   1.158   8.269  0.5198  0.7766 -0.0857
   98SAPS  H17S 9815   0.770   1.056   8.170  0.7153  1.3102 -1.9570
   98SAPS  C218 9816   0.695   1.125   8.361 -0.4521  0.1259  0.2210
   98SAPS  H18R 9817   0.723   1.021   8.390  0.1481 -0.4660 -2.2387
   98SAPS  H18S 9818   0.591   1.118   8.324 -0.1618  1.8715 -1.0206
   98SAPS  C219 9819   0.711   1.230   8.481  0.3662  0.0990 -0.3167
   98SAPS  H19R 9820   0.630   1.196   8.550  0.4946  1.9087  0.8044
   98SAPS  H19S 9821   0.683   1.335   8.459  1.8296  0.6910  0.4514
   98SAPS  C220 9822   0.837   1.230   8.564 -0.0829  0.0000 -0.2065
   98SAPS  H20R 9823   0.841   1.131   8.615 -2.4477 -0.8772 -1.5637
   98SAPS  H20S 9824   0.833   1.305   8.646 -0.3736 -0.4399  0.1862
   98SAPS  H20T 9825   0.929   1.249   8.505  1.6461  0.7978  2.5916
   98SAPS   C33 9826   0.387   1.786   6.947 -0.0793  0.3263 -1.3922
   98SAPS   H3X 9827   0.339   1.878   6.985  1.4812  0.7215 -0.2488
   98SAPS   H3Y 9828   0.495   1.810   6.933 -0.2797  0.9844 -1.8137
   98SAPS   C34 9829   0.363   1.680   7.061 -0.0919  0.2005 -0.0723
   98SAPS   H4X 9830   0.444   1.605   7.045  0.2991  0.1998  1.6908
   98SAPS   H4Y 9831   0.266   1.627   7.052  1.2771 -2.3662 -1.0718
   98SAPS   C35 9832   0.375   1.735   7.201 -0.3471  0.1563 -0.7380
   98SAPS   H5X 9833   0.423   1.835   7.203  0.1322 -0.0784 -0.1685
   98SAPS   H5Y 9834   0.445   1.672   7.259 -2.2303 -0.5900  0.8265
   98SAPS   C36 9835   0.239   1.749   7.282  0.7381 -0.2117  0.1275
   98SAPS   H6X 9836   0.186   1.654   7.302  0.3116 -0.1405 -0.6357
   98SAPS   H6Y 9837   0.171   1.806   7.216 -0.7358  0.3729  2.0619
   98SAPS   C37 9838   0.271   1.820   7.414  0.9536 -0.8534  0.0028
   98SAPS   H7X 9839   0.186   1.877   7.457  0.8030 -1.1395  0.0843
   98SAPS   H7Y 9840   0.331   1.909   7.384 -0.0830 -0.4007 -0.7991
   98SAPS   C38 9841   0.332   1.734   7.520  0.4381 -0.9012  0.0181
   98SAPS   H8X 9842   0.440   1.731   7.494  0.2241 -2.2002 -0.8474
   98SAPS   H8Y 9843   0.294   1.630   7.505  0.4196 -1.0638  1.0961
   98SAPS   C39 9844   0.317   1.784   7.668  0.5022  0.5944  0.4942
   98SAPS   H9X 9845   0.213   1.807   7.697  0.4955 -0.5728  1.4958
   98SAPS   H9Y 9846   0.375   1.878   7.667  1.7343 -0.1227 -1.0873
   98SAPS  C310 9847   0.355   1.679   7.771  0.1200  0.0480 -0.2320
   98SAPS  H10X 9848   0.445   1.625   7.734  1.4484  1.4019  0.8453
   98SAPS  H10Y 9849   0.263   1.618   7.782 -0.0021  0.5178  1.8196
   98SAPS  C311 9850   0.400   1.753   7.901 -0.3247 -0.1937  0.2424
   98SAPS  H11X 9851   0.342   1.847   7.906 -0.6969 -0.4544  0.9601
   98SAPS  H11Y 9852   0.508   1.777   7.890 -0.2030 -1.3178 -1.3900
   98SAPS  C312 9853   0.367   1.678   8.035 -0.7704 -0.2130 -0.1224
   98SAPS  H12X 9854   0.265   1.637   8.042 -0.7351 -0.0152  3.2429
   98SAPS  H12Y 9855   0.380   1.755   8.114  1.2767 -0.2971 -0.3088
   98SAPS  C313 9856   0.472   1.571   8.066 -0.5521 -0.1128 -0.6272
   98SAPS  H13X 9857   0.570   1.619   8.047 -0.0528 -1.1002 -0.5640
   98SAPS  H13Y 9858   0.454   1.474   8.016  1.1704 -1.7734  1.7458
   98SAPS  C314 9859   0.462   1.531   8.216 -0.2594  0.0269 -0.0007
   98SAPS  H14X 9860   0.476   1.609   8.294  0.2837 -0.3499  0.2791
   98SAPS  H14Y 9861   0.547   1.464   8.237  1.5601  2.1662 -0.1648
   98SAPS  C315 9862   0.328   1.440   8.234 -0.2975 -0.6620 -0.2019
   98SAPS  H15X 9863   0.324   1.368   8.149  0.0508 -2.5222  1.2664
   98SAPS  H15Y 9864   0.243   1.509   8.251  0.4070 -0.2331  1.8316
   98SAPS  C316 9865   0.332   1.355   8.359 -0.6586  0.1112 -0.3378
   98SAPS  H16X 9866   0.400   1.267   8.348  0.4846  0.6903  1.6015
   98SAPS  H16Y 9867   0.234   1.304   8.370 -0.1891 -0.8701 -0.5526
   98SAPS  C317 9868   0.350   1.430   8.494 -0.9379 -0.2260  0.6811
   98SAPS  H17X 9869   0.270   1.506   8.507 -0.1357  0.7366  0.1447
   98SAPS  H17Y 9870   0.441   1.493   8.489 -1.8562  1.1536  0.4488
   98SAPS  C318 9871   0.348   1.331   8.609  0.2163 -0.9171  0.7233
   98SAPS  H18X 9872   0.376   1.381   8.704 -2.4428 -1.5124  1.9165
   98SAPS  H18Y 9873   0.413   1.243   8.587 -1.8030 -2.1716 -0.6225
   98SAPS  H18Z 9874   0.249   1.286   8.636 -0.1547  0.1602  1.2122
   99SAPS     N 9875   1.744   0.461   5.837  0.5321 -0.0509 -0.5707
   99SAPS   HN1 9876   1.667   0.528   5.853  1.6204  0.7121  1.8154
   99SAPS   HN2 9877   1.767   0.442   5.737  1.6404 -0.3839 -0.2681
   99SAPS   HN3 9878   1.694   0.379   5.876 -2.1073  1.5989 -0.2155
   99SAPS   C12 9879   1.863   0.505   5.915  0.2089  0.3071  0.3181
   99SAPS  H12A 9880   1.946   0.436   5.910 -0.2909 -0.1995 -2.0994
   99SAPS   C13 9881   1.912   0.643   5.868  0.3857 -0.3483 -0.0495
   99SAPS  O13A 9882   1.845   0.708   5.786  0.3457  0.0064  0.0024
   99SAPS  O13B 9883   2.031   0.687   5.893  0.5668  0.7229  0.9865
   99SAPS   C11 9884   1.824   0.531   6.062 -0.4622  0.2519  0.8034
   99SAPS  H11A 9885   1.746   0.609   6.055 -3.2041 -2.2293  1.5562
   99SAPS  H11B 9886   1.919   0.568   6.106 -0.6957  1.3691  0.3935
   99SAPS     P 9887   1.874   0.308   6.186  0.0048  0.0507  0.1581
   99SAPS   O13 9888   1.809   0.201   6.269 -0.2690 -0.5530 -0.3219
   99SAPS   O14 9889   1.952   0.256   6.074  1.0480 -0.2119 -0.4802
   99SAPS   O12 9890   1.770   0.416   6.128 -0.2934 -0.1353  0.1141
   99SAPS   O11 9891   1.968   0.393   6.274 -0.4553 -0.2157  0.5576
   99SAPS    C1 9892   1.937   0.491   6.369  0.6279  1.1344 -0.4049
   99SAPS    HA 9893   1.991   0.585   6.346  0.4284  1.3592  0.0367
   99SAPS    HB 9894   1.830   0.518   6.365  0.2044 -0.3028  0.2164
   99SAPS    C2 9895   1.961   0.442   6.517  0.3154  0.2577  0.4707
   99SAPS    HS 9896   2.067   0.408   6.526  0.2937  0.1157  0.2141
   99SAPS   O21 9897   1.874   0.338   6.542 -0.1464 -0.7393 -0.3325
   99SAPS   C21 9898   1.911   0.228   6.596 -0.0145  0.3374  0.4085
   99SAPS   O22 9899   2.026   0.184   6.609 -0.0840 -0.0855  0.0361
   99SAPS   C22 9900   1.788   0.149   6.636 -0.6573  0.5264 -0.0721
   99SAPS   H2R 9901   1.695   0.192   6.593 -0.3541  0.6309 -0.6324
   99SAPS   H2S 9902   1.811   0.047   6.599 -0.1882  0.5267  0.2181
   99SAPS    C3 9903   1.939   0.547   6.624 -0.1277 -0.3188 -1.1315
   99SAPS    HX 9904   1.838   0.588   6.602 -1.3814 -2.4150  0.4268
   99SAPS    HY 9905   2.019   0.624   6.621  0.6741 -0.6831  3.7288
   99SAPS   O31 9906   1.937   0.494   6.755  0.3381  0.0813  0.1149
   99SAPS   C31 9907   1.935   0.576   6.858  0.5119  0.4385 -0.3061
   99SAPS   O32 9908   1.949   0.698   6.860 -0.1921  0.0577  0.9494
   99SAPS   C32 9909   1.906   0.499   6.987 -0.3886 -0.3079 -0.4984
   99SAPS   H2X 9910   1.958   0.553   7.069 -0.6657  0.1788 -0.6421
   99SAPS   H2Y 9911   1.950   0.397   6.989  0.4145  0.0284 -0.7907
   99SAPS   C23 9912   1.774   0.130   6.792  0.4603 -0.0435 -0.1801
   99SAPS   H3R 9913   1.747   0.224   6.845  1.7380  0.0034  0.4230
   99SAPS   H3S 9914   1.874   0.096   6.826  0.2619 -0.2530  0.2006
   99SAPS   C24 9915   1.654   0.031   6.813 -0.3832 -0.0474 -0.2606
   99SAPS   H4R 9916   1.678  -0.077   6.798  0.1000 -0.2424  1.6253
   99SAPS   H4S 9917   1.580   0.057   6.734 -0.3739 -1.4062 -0.7457
   99SAPS   C25 9918   1.580   0.045   6.943 -1.1820 -0.1406  0.0092
   99SAPS   H5R 9919   1.486   0.102   6.941 -1.2245 -0.2153 -0.1500
   99SAPS   C26 9920   1.638  -0.004   7.057  0.6539 -0.6062  0.3995
   99SAPS   H6R 9921   1.585   0.003   7.153 -0.6838 -3.1624 -0.0685
   99SAPS   C27 9922   1.776  -0.064   7.062  0.3426 -1.1530 -0.3590
   99SAPS   H7R 9923   1.854   0.011   7.087 -0.8133 -0.6486  2.0523
   99SAPS   H7S 9924   1.806  -0.118   6.971 -0.1574 -0.8867 -0.6866
   99SAPS   C28 9925   1.782  -0.161   7.183  0.4784 -0.3388  0.6621
   99SAPS   H8R 9926   1.694  -0.227   7.176 -0.1128  0.3707  1.2372
   99SAPS   C29 9927   1.867  -0.171   7.289 -0.0197 -0.1526 -0.2248
   99SAPS   H9R 9928   1.832  -0.233   7.373 -1.7125  1.2130  0.1563
   99SAPS  C210 9929   1.973  -0.068   7.298 -0.5071 -0.4553  0.1341
   99SAPS  H10R 9930   1.930   0.028   7.335 -2.5716 -1.1782 -0.2181
   99SAPS  H10S 9931   2.015  -0.042   7.199 -3.0582  1.8348 -0.4799
   99SAPS  C211 9932   2.087  -0.123   7.383  0.5108 -0.3436 -0.5084
   99SAPS  H11R 9933   2.146  -0.191   7.319  2.0496  1.4018 -1.0213
   99SAPS  C212 9934   2.110  -0.113   7.515 -0.0140  0.0583 -0.2990
   99SAPS  H12R 9935   2.177  -0.186   7.562  1.2011  0.3909 -1.4436
   99SAPS  C213 9936   2.027  -0.032   7.607 -0.0191  0.3137 -0.1003
   99SAPS  H13R 9937   1.954  -0.095   7.663  2.3311 -0.9044  1.7687
   99SAPS  H13S 9938   1.956   0.035   7.555 -2.4357 -1.8767  0.1548
   99SAPS  C214 9939   2.110   0.053   7.699 -0.9469  0.2811 -0.3010
   99SAPS  H14R 9940   2.107   0.162   7.684 -3.0148  0.1102 -1.5229
   99SAPS  C215 9941   2.176  -0.001   7.804  0.4095  0.1283 -0.9817
   99SAPS  H15R 9942   2.247   0.070   7.849 -0.2423 -0.0100  0.3028
   99SAPS  C216 9943   2.181  -0.136   7.868  0.1498  0.1205  0.3426
   99SAPS  H16R 9944   2.288  -0.159   7.885 -0.4987 -2.9915  0.8619
   99SAPS  H16S 9945   2.135  -0.215   7.806 -0.9191 -0.2075  1.5129
   99SAPS  C217 9946   2.097  -0.139   7.993  1.0668 -0.9961  0.2767
   99SAPS  H17R 9947   2.082  -0.242   8.032  0.7499 -2.0566 -2.4414
   99SAPS  H17S 9948   1.994  -0.107   7.969  2.0672  0.8635 -1.9220
   99SAPS  C218 9949   2.144  -0.067   8.121 -0.3050 -0.2270 -0.3529
   99SAPS  H18R 9950   2.085  -0.086   8.213 -0.3360  0.0932 -0.3075
   99SAPS  H18S 9951   2.117   0.038   8.097 -0.5771 -0.2167 -0.0102
   99SAPS  C219 9952   2.296  -0.068   8.138 -0.3662 -0.0866  0.1614
   99SAPS  H19R 9953   2.342  -0.029   8.045  1.9492 -0.7080  0.9845
   99SAPS  H19S 9954   2.340  -0.169   8.151 -2.0984 -0.8492  0.3599
   99SAPS  C220 9955   2.355   0.021   8.249 -0.3105  0.0153  0.3015
   99SAPS  H20R 9956   2.460  -0.009   8.268 -0.5002 -1.4240 -0.7665
   99SAPS  H20S 9957   2.286   0.006   8.335 -1.6196 -1.5291 -0.9376
   99SAPS  H20T 9958   2.356   0.129   8.223 -0.2321  0.2981  1.4377
   99SAPS   C33 9959   1.756   0.511   7.013  0.4434 -0.2125 -0.6042
   99SAPS   H3X 9960   1.700   0.494   6.919 -3.4516 -1.1055  1.6440
   99SAPS   H3Y 9961   1.718   0.612   7.042 -0.4762 -1.1714  1.7700
   99SAPS   C34 9962   1.703   0.409   7.108  0.3048 -0.6348 -0.7151
   99SAPS   H4X 9963   1.736   0.311   7.069  0.2665 -0.8287 -0.2725
   99SAPS   H4Y 9964   1.592   0.413   7.103  0.3352  0.9304 -0.7573
   99SAPS   C35 9965   1.747   0.428   7.251 -0.7538 -0.0257  0.3958
   99SAPS   H5X 9966   1.726   0.534   7.279  2.2018  0.4856  1.0758
   99SAPS   H5Y 9967   1.858   0.416   7.244 -0.8726 -2.6699  1.7604
   99SAPS   C36 9968   1.691   0.331   7.357 -0.3639  0.1374 -0.6270
   99SAPS   H6X 9969   1.734   0.230   7.337  1.9925  0.1438  3.4209
   99SAPS   H6Y 9970   1.581   0.321   7.355 -0.3356 -0.7561  0.8362
   99SAPS   C37 9971   1.738   0.363   7.502 -0.3621  0.2687  0.3508
   99SAPS   H7X 9972   1.714   0.468   7.531 -0.4718  0.6706 -1.1175
   99SAPS   H7Y 9973   1.847   0.349   7.514 -0.7766 -0.5588  4.8039
   99SAPS   C38 9974   1.685   0.266   7.605 -0.0847  0.5668  0.2428
   99SAPS   H8X 9975   1.724   0.164   7.583 -0.6887  0.1061  1.2490
   99SAPS   H8Y 9976   1.575   0.276   7.597 -0.2353  2.7004  3.3591
   99SAPS   C39 9977   1.727   0.301   7.751 -0.1692 -0.5270 -0.1137
   99SAPS   H9X 9978   1.670   0.391   7.782  3.7401  2.1642 -0.1055
   99SAPS   H9Y 9979   1.836   0.322   7.750 -0.6298  2.1451 -0.1522
   99SAPS  C310 9980   1.695   0.201   7.864 -0.6091 -0.1852  0.2455
   99SAPS  H10X 9981   1.731   0.102   7.828  1.2101  0.0125  1.3620
   99SAPS  H10Y 9982   1.585   0.187   7.870 -0.4232 -1.1298  2.9023
   99SAPS  C311 9983   1.767   0.221   7.997  0.1172  0.1444 -0.3573
   99SAPS  H11X 9984   1.745   0.320   8.042  0.7473 -0.0975  0.4971
   99SAPS  H11Y 9985   1.875   0.223   7.971  0.3205 -0.3714  0.4511
   99SAPS  C312 9986   1.737   0.109   8.096 -0.7277 -0.6529 -0.4329
   99SAPS  H12X 9987   1.786   0.014   8.066 -0.0089 -1.3160  2.4741
   99SAPS  H12Y 9988   1.627   0.092   8.102 -0.7642 -0.4247 -0.4313
   99SAPS  C313 9989   1.801   0.155   8.230 -0.8321 -0.4646  0.4014
   99SAPS  H13X 9990   1.759   0.255   8.256 -0.1558 -0.3403  1.0593
   99SAPS  H13Y 9991   1.908   0.166   8.204 -0.8774  1.9216  0.9944
   99SAPS  C314 9992   1.792   0.067   8.352  0.3053 -0.0915 -0.3056
   99SAPS  H14X 9993   1.874   0.086   8.424  0.1859 -0.3993 -0.0845
   99SAPS  H14Y 9994   1.801  -0.039   8.318 -0.4167 -0.2250 -0.1038
   99SAPS  C315 9995   1.660   0.076   8.429 -0.0085 -0.5613 -0.1640
   99SAPS  H15X 9996   1.576   0.043   8.364  0.5671  0.5685 -1.5115
   99SAPS  H15Y 9997   1.649   0.183   8.457 -0.3083 -0.2723 -1.3338
   99SAPS  C316 9998   1.644  -0.019   8.546 -0.9476  0.4707 -0.3020
   99SAPS  H16X 9999   1.685  -0.121   8.527 -2.2286  0.0675 -1.0080
   99SAPS  H16Y10000   1.535  -0.031   8.567 -1.5061  2.0616 -2.0374
   99SAPS  C31710001   1.714   0.032   8.675  0.6346 -0.4585 -0.1038
   99SAPS  H17X10002   1.700   0.142   8.686 -0.1694 -0.6727  1.3552
   99SAPS  H17Y10003   1.822   0.014   8.656  0.8914  1.0683 -0.2575
   99SAPS  C31810004   1.672  -0.045   8.805 -0.3503  0.8934  0.5047
   99SAPS  H18X10005   1.717  -0.009   8.900  1.8403 -2.2559  0.7976
   99SAPS  H18Y10006   1.705  -0.150   8.798  1.7860  1.3840  2.2390
   99SAPS  H18Z10007   1.562  -0.042   8.821 -0.2406  2.0674  1.1916
  100SAPS     N10008   4.925   2.213   6.036 -0.5264 -0.0959  0.2498
  100SAPS   HN110009   5.011   2.198   6.092 -0.6108  0.2199  0.4609
  100SAPS   HN210010   4.953   2.184   5.940 -0.8265 -0.4953  0.2790
  100SAPS   HN310011   4.907   2.315   6.030 -0.9304 -0.2289 -2.7428
  100SAPS   C1210012   4.810   2.132   6.074  0.3125 -0.9448  0.2921
  100SAPS  H12A10013   4.769   2.172   6.165  0.1085 -0.9919  0.2220
  100SAPS   C1310014   4.696   2.133   5.964  0.8403 -0.4000 -0.3357
  100SAPS  O13A10015   4.703   2.216   5.870  0.1404 -0.0035  0.4000
  100SAPS  O13B10016   4.591   2.063   5.983 -0.6815  0.0392  0.1526
  100SAPS   C1110017   4.848   1.984   6.090 -0.0268 -0.1122  0.4574
  100SAPS  H11A10018   4.891   1.938   5.998  1.8196  1.3839  0.5087
  100SAPS  H11B10019   4.761   1.919   6.111 -1.6435  1.4901 -0.9045
  100SAPS     P10020   4.924   1.942   6.347 -0.1944  0.1758 -0.4281
  100SAPS   O1310021   4.877   1.798   6.355  0.5083 -1.0882 -0.1505
  100SAPS   O1410022   5.046   1.988   6.421 -0.3216 -0.2612 -0.1320
  100SAPS   O1210023   4.945   1.977   6.196  0.2634 -0.3589  0.4004
  100SAPS   O1110024   4.799   2.040   6.379  0.0890  0.2815 -0.1923
  100SAPS    C110025   4.717   2.007   6.489 -0.5301 -1.1170 -0.2270
  100SAPS    HA10026   4.638   2.084   6.496  1.1755  0.6756  0.1418
  100SAPS    HB10027   4.666   1.909   6.476 -2.1153 -0.5693  1.4879
  100SAPS    C210028   4.789   2.033   6.632  0.5139 -0.8319 -0.6687
  100SAPS    HS10029   4.871   1.958   6.640  0.0238 -1.3188 -0.1067
  100SAPS   O2110030   4.685   2.021   6.730 -0.0710  0.5510 -0.5785
  100SAPS   C2110031   4.645   1.899   6.760  0.2939  0.3593 -0.5131
  100SAPS   O2210032   4.696   1.796   6.720 -0.7492 -0.0130 -0.2427
  100SAPS   C2210033   4.518   1.926   6.845  0.2994  0.1916 -0.9291
  100SAPS   H2R10034   4.555   1.983   6.934 -1.4174  0.3316 -0.2590
  100SAPS   H2S10035   4.451   1.993   6.788 -0.8840 -1.0727 -1.0635
  100SAPS    C310036   4.847   2.174   6.643 -0.2060 -0.2591  0.8385
  100SAPS    HX10037   4.759   2.227   6.600  1.0207  1.2220  0.0719
  100SAPS    HY10038   4.934   2.192   6.576 -0.7021 -1.4025 -0.1447
  100SAPS   O3110039   4.862   2.216   6.779 -0.0145 -0.0543 -0.2777
  100SAPS   C3110040   4.978   2.202   6.826  0.4832  0.1710 -0.7278
  100SAPS   O3210041   5.073   2.144   6.778 -0.9281 -0.1352  0.3208
  100SAPS   C3210042   4.975   2.262   6.974  0.4283 -0.2727  0.2446
  100SAPS   H2X10043   4.908   2.350   6.971  0.4339 -0.2055  1.6201
  100SAPS   H2Y10044   5.080   2.289   7.000  0.0228  0.8476  0.7581
  100SAPS   C2310045   4.445   1.792   6.878 -0.5346  0.2311  1.1358
  100SAPS   H3R10046   4.508   1.712   6.922  0.1320 -1.1585 -2.1112
  100SAPS   H3S10047   4.410   1.751   6.781  0.5071  1.1242  0.3583
  100SAPS   C2410048   4.319   1.825   6.956  0.0228  0.3746  0.4751
  100SAPS   H4R10049   4.246   1.869   6.884  0.0450  0.1567  0.3190
  100SAPS   H4S10050   4.339   1.907   7.029 -0.4045 -0.0583  1.0843
  100SAPS   C2510051   4.266   1.693   7.009  0.0471  0.2897 -0.4123
  100SAPS   H5R10052   4.212   1.632   6.935  1.6551 -2.8347  0.7725
  100SAPS   C2610053   4.269   1.643   7.134 -0.5993  0.1382 -0.2954
  100SAPS   H6R10054   4.210   1.552   7.153 -0.5584  0.1730 -0.0036
  100SAPS   C2710055   4.325   1.708   7.257 -0.0426 -0.4479  0.8174
  100SAPS   H7R10056   4.243   1.707   7.331 -0.7879  0.6885  0.0408
  100SAPS   H7S10057   4.346   1.816   7.244  0.6273 -0.8214 -1.9642
  100SAPS   C2810058   4.437   1.620   7.304  0.0479 -0.2784 -0.3846
  100SAPS   H8R10059   4.516   1.600   7.230  1.0277 -0.3093  0.6341
  100SAPS   C2910060   4.460   1.583   7.432  0.3280  0.1204 -0.4206
  100SAPS   H9R10061   4.545   1.518   7.458 -0.9223 -0.3174  3.1494
  100SAPS  C21010062   4.379   1.619   7.562  0.0961 -0.0041  0.0723
  100SAPS  H10R10063   4.327   1.529   7.600 -0.0393  0.1670  0.2890
  100SAPS  H10S10064   4.305   1.698   7.539  1.7971  1.7113  0.1683
  100SAPS  C21110065   4.482   1.657   7.671  0.2974  0.0939  0.6311
  100SAPS  H11R10066   4.547   1.738   7.635  0.7386 -0.5727 -0.0818
  100SAPS  C21210067   4.505   1.606   7.795  0.0577 -0.4591 -0.3823
  100SAPS  H12R10068   4.583   1.657   7.853 -1.3194  1.3739 -0.0701
  100SAPS  C21310069   4.436   1.493   7.862  1.0008  0.9839  0.4875
  100SAPS  H13R10070   4.486   1.456   7.953 -1.3989 -1.7174  0.8483
  100SAPS  H13S10071   4.412   1.405   7.798 -0.1407  2.0546 -0.6164
  100SAPS  C21410072   4.299   1.538   7.915  0.4373 -0.5724  0.5511
  100SAPS  H14R10073   4.271   1.637   7.876  0.5005 -1.9397 -3.5047
  100SAPS  C21510074   4.209   1.463   7.983  0.1648  0.5682  0.3517
  100SAPS  H15R10075   4.106   1.499   7.990  0.8182  2.5087  0.5604
  100SAPS  C21610076   4.229   1.313   8.000  0.0563 -0.0086 -0.5155
  100SAPS  H16R10077   4.331   1.294   8.041 -0.4238 -0.8216  0.3613
  100SAPS  H16S10078   4.222   1.269   7.898  0.6792  1.8052 -1.3708
  100SAPS  C21710079   4.135   1.240   8.100  0.4201 -0.0457  0.0496
  100SAPS  H17R10080   4.146   1.129   8.097  2.0280  0.1046 -1.7477
  100SAPS  H17S10081   4.030   1.256   8.067 -0.8178 -4.1811  1.3419
  100SAPS  C21810082   4.160   1.278   8.250  0.6430  0.6713  0.4178
  100SAPS  H18R10083   4.119   1.382   8.256  0.8759  0.9491 -1.8941
  100SAPS  H18S10084   4.270   1.286   8.258  1.3059  0.6634 -4.9366
  100SAPS  C21910085   4.093   1.182   8.348  0.1641 -0.4892 -0.3052
  100SAPS  H19R10086   4.085   1.234   8.445 -1.2960  0.8990 -1.1135
  100SAPS  H19S10087   4.161   1.098   8.371  0.3507  0.3855  2.7870
  100SAPS  C22010088   3.958   1.126   8.307  0.3687 -0.5016 -0.5090
  100SAPS  H20R10089   3.969   1.054   8.223 -0.9070  0.6219 -1.6878
  100SAPS  H20S10090   3.885   1.197   8.263 -1.1156 -1.8270 -0.2919
  100SAPS  H20T10091   3.919   1.083   8.402  0.6593 -1.2775 -0.7353
  100SAPS   C3310092   4.901   2.161   7.077 -0.1316 -0.3187 -0.2762
  100SAPS   H3X10093   4.934   2.063   7.035 -0.5186  0.6647 -3.0876
  100SAPS   H3Y10094   4.793   2.182   7.065  0.3287  2.4976 -0.0868
  100SAPS   C3410095   4.947   2.169   7.222 -0.3817 -0.4007  0.4668
  100SAPS   H4X10096   5.058   2.165   7.230 -0.4539 -0.3310  1.7336
  100SAPS   H4Y10097   4.913   2.074   7.269  2.7914 -0.5302  2.8458
  100SAPS   C3510098   4.889   2.293   7.293  0.2683 -0.1724 -0.5272
  100SAPS   H5X10099   4.778   2.290   7.294  0.2783 -0.7999  0.5309
  100SAPS   H5Y10100   4.930   2.378   7.235  2.1551  0.2064  1.2358
  100SAPS   C3610101   4.914   2.310   7.444  0.1574 -0.2981  0.2718
  100SAPS   H6X10102   4.874   2.410   7.470 -1.3178 -0.7064 -0.3130
  100SAPS   H6Y10103   5.023   2.319   7.462  0.3876  3.2038 -1.8953
  100SAPS   C3710104   4.838   2.211   7.537  1.0471 -0.4304 -0.7220
  100SAPS   H7X10105   4.877   2.112   7.505  0.1879 -0.7204 -0.8707
  100SAPS   H7Y10106   4.730   2.208   7.516  0.7266 -0.5958  0.8003
  100SAPS   C3810107   4.873   2.227   7.683 -0.1551  0.3492  0.1235
  100SAPS   H8X10108   4.849   2.327   7.723  0.2731 -0.6388  3.0571
  100SAPS   H8Y10109   4.981   2.222   7.708  0.1770  1.1449 -1.0866
  100SAPS   C3910110   4.805   2.118   7.760 -0.1827  0.6695  0.0948
  100SAPS   H9X10111   4.834   2.015   7.729 -1.9186  0.1502  0.1102
  100SAPS   H9Y10112   4.694   2.121   7.758 -0.1751  1.3936 -2.6953
  100SAPS  C31010113   4.852   2.113   7.909  0.0655  0.1944  0.0560
  100SAPS  H10X10114   4.819   2.205   7.962  0.4727 -0.1684  0.9686
  100SAPS  H10Y10115   4.963   2.119   7.902 -0.0443  1.5971 -1.1606
  100SAPS  C31110116   4.804   1.999   7.991  0.0097  0.3394 -0.3766
  100SAPS  H11X10117   4.826   2.013   8.099 -2.4552  0.1171  0.2289
  100SAPS  H11Y10118   4.861   1.911   7.953  1.2871  0.5698  0.9448
  100SAPS  C31210119   4.655   1.967   7.986 -0.0584  0.2450 -0.8993
  100SAPS  H12X10120   4.634   1.939   7.881 -1.6756  1.3850 -0.9071
  100SAPS  H12Y10121   4.602   2.061   8.011  0.1801  0.0928  0.2384
  100SAPS  C31310122   4.593   1.863   8.092  0.0756  0.1714  0.1417
  100SAPS  H13X10123   4.617   1.896   8.196  2.0331  1.4002 -0.6251
  100SAPS  H13Y10124   4.650   1.768   8.083 -1.6879 -0.8269 -1.0892
  100SAPS  C31410125   4.437   1.846   8.084 -0.1887  0.3427  0.3467
  100SAPS  H14X10126   4.416   1.745   8.125 -1.4780  0.1840 -0.6260
  100SAPS  H14Y10127   4.409   1.845   7.976 -0.4425 -1.1126  0.4034
  100SAPS  C31510128   4.356   1.940   8.167 -0.1191 -0.3072 -0.0517
  100SAPS  H15X10129   4.386   2.044   8.142 -0.8403 -0.6098 -2.5219
  100SAPS  H15Y10130   4.385   1.920   8.272 -1.8627  0.2694  0.5761
  100SAPS  C31610131   4.208   1.911   8.149  0.1041  0.0041 -0.6184
  100SAPS  H16X10132   4.187   1.814   8.198  0.7582  1.1858  2.2093
  100SAPS  H16Y10133   4.180   1.918   8.042  0.4002  0.0968 -0.6901
  100SAPS  C31710134   4.133   2.028   8.221  0.1042  0.1814  0.3694
  100SAPS  H17X10135   4.152   2.122   8.167 -2.4858 -1.5581 -4.0748
  100SAPS  H17Y10136   4.179   2.029   8.323  1.3109  0.4979 -0.1586
  100SAPS  C31810137   3.985   2.009   8.214 -0.1221 -0.2959 -0.1996
  100SAPS  H18X10138   3.949   1.918   8.267 -1.6855  1.0664  1.1737
  100SAPS  H18Y10139   3.945   2.010   8.111 -0.6395 -0.5088 -0.0009
  100SAPS  H18Z10140   3.928   2.083   8.273  0.3207 -0.3651  0.3301
  101OSM      N10141   3.552   0.744  11.014  0.8092 -0.0968  0.1883
  101OSM    C1510142   3.434   0.670  11.063 -0.2357  0.1054 -0.2518
  101OSM   H15A10143   3.404   0.603  10.983 -1.2201 -3.0257  2.5383
  101OSM   H15B10144   3.354   0.731  11.100  1.6668  1.5309  1.7522
  101OSM   H15C10145   3.475   0.607  11.140 -2.6456 -0.8353  0.3267
  101OSM    C1410146   3.519   0.825  10.898 -0.3896 -0.2101 -0.0328
  101OSM   H14A10147   3.517   0.774  10.803 -0.1353  3.3444 -2.1448
  101OSM   H14B10148   3.608   0.885  10.880 -1.0774  0.7930 -0.1724
  101OSM   H14C10149   3.438   0.895  10.909  0.0045  0.1409  0.6896
  101OSM    C1310150   3.583   0.838  11.125 -0.5562 -0.1066 -1.0424
  101OSM   H13A10151   3.607   0.785  11.216  0.9299  0.5474 -1.0351
  101OSM   H13B10152   3.504   0.904  11.157  1.0842  0.9482  1.1099
  101OSM   H13C10153   3.671   0.898  11.110  0.7275 -1.0577  1.8740
  101OSM    C1210154   3.670   0.651  10.987  0.0765 -0.4449 -0.1496
  101OSM   H12A10155   3.702   0.597  11.075  1.7569 -0.9225 -0.9993
  101OSM   H12B10156   3.749   0.717  10.954  0.3542  0.4394  2.1556
  101OSM    C1110157   3.651   0.536  10.895 -0.3608  0.7753 -0.6880
  101OSM   H11A10158   3.596   0.568  10.804  0.3019 -0.0250 -1.3920
  101OSM   H11B10159   3.583   0.464  10.945  0.2995  0.9416  0.4815
  101OSM      P10160   3.768   0.340  10.771  0.0081  0.2279 -0.3637
  101OSM    O1310161   3.774   0.228  10.872  0.2822  0.3629 -0.4080
  101OSM    O1410162   3.652   0.331  10.676  0.5657 -0.0942  0.4016
  101OSM    O1110163   3.905   0.348  10.688  0.2519 -0.4754  0.3783
  101OSM    O1210164   3.773   0.477  10.857 -0.0263 -0.0285 -0.7206
  101OSM    C1S10165   3.910   0.434  10.574 -0.5532  0.2551  0.0602
  101OSM    H1S10166   3.911   0.537  10.616 -1.5843  0.5477 -0.5928
  101OSM    H1T10167   3.818   0.428  10.512 -1.2605  3.1564  0.6686
  101OSM     NF10168   4.036   0.508  10.379  0.0730 -0.3305  0.0187
  101OSM    HNF10169   4.040   0.468  10.287  3.3607  0.6764 -0.4028
  101OSM    C2S10170   4.034   0.409  10.483 -0.4975  0.9370 -0.4023
  101OSM    H2S10171   4.111   0.441  10.556 -0.5445  1.0805 -0.4153
  101OSM    C3S10172   4.037   0.256  10.438 -0.0040  0.5580 -0.6283
  101OSM    H3S10173   3.945   0.237  10.380 -1.2632  1.1567  1.0911
  101OSM     O310174   4.039   0.160  10.547 -0.0672 -0.2137  0.2876
  101OSM    HO310175   4.034   0.220  10.622  1.2064 -0.2095  0.3796
  101OSM    C4S10176   4.155   0.224  10.354 -0.2755 -0.0051 -0.2344
  101OSM    H4S10177   4.139   0.242  10.246  3.0521 -1.9756 -1.2144
  101OSM    C5S10178   4.280   0.203  10.390 -0.1019  0.4383 -0.8385
  101OSM    H5S10179   4.307   0.219  10.496  0.4671 -2.2049 -0.4940
  101OSM    C6S10180   4.399   0.190  10.298  0.3373  0.1530  0.4106
  101OSM    H6S10181   4.438   0.088  10.320 -2.9509 -1.8564 -2.0458
  101OSM    H6T10182   4.483   0.259  10.321  1.1391 -1.1253  1.5124
  101OSM    C7S10183   4.368   0.202  10.149  0.1063 -0.3966  0.7022
  101OSM    H7S10184   4.313   0.296  10.127 -0.7014 -0.7946  0.9514
  101OSM    H7T10185   4.301   0.120  10.113 -2.1279  2.1165 -1.2814
  101OSM    C8S10186   4.494   0.210  10.070 -0.2090  0.0440  0.1202
  101OSM    H8S10187   4.554   0.117  10.076 -0.3266 -0.1443 -1.2845
  101OSM    H8T10188   4.553   0.285  10.126  0.9863 -1.8739  1.5491
  101OSM    C9S10189   4.478   0.254   9.923 -0.4232  0.0450 -1.0605
  101OSM    H9S10190   4.580   0.265   9.881 -1.1962 -0.1875 -3.1364
  101OSM    H9T10191   4.426   0.352   9.928  1.2286  0.8661  1.2612
  101OSM   C10S10192   4.420   0.146   9.828  0.6946 -0.0604  0.1059
  101OSM   H10S10193   4.313   0.137   9.859  0.1697  0.5778 -1.4351
  101OSM   H10T10194   4.473   0.050   9.847 -0.4789 -0.6349  0.6123
  101OSM   C11S10195   4.417   0.190   9.686 -0.5005 -0.5455  0.0099
  101OSM   H11S10196   4.522   0.197   9.651 -0.5264  0.1866  0.0633
  101OSM   H11T10197   4.376   0.293   9.678  0.9605  0.0055 -0.8534
  101OSM   C12S10198   4.347   0.095   9.595 -0.4034 -0.0791  0.2122
  101OSM   H12S10199   4.250   0.138   9.563  0.4370  1.0186 -0.9798
  101OSM   H12T10200   4.328   0.003   9.655 -2.3288 -2.2557 -3.3935
  101OSM   C13S10201   4.408   0.066   9.449  0.7163  0.2295 -0.2564
  101OSM   H13S10202   4.328   0.021   9.387 -0.9412 -0.2327  2.1004
  101OSM   H13T10203   4.506   0.013   9.452  0.3841 -0.5430 -1.9693
  101OSM   C14S10204   4.416   0.204   9.377 -0.1152  0.0954  0.0467
  101OSM   H14S10205   4.489   0.272   9.427 -0.9077  0.0645  1.2840
  101OSM   H14T10206   4.316   0.251   9.381 -1.0784 -1.8773  0.4780
  101OSM   C15S10207   4.451   0.177   9.232 -0.2919 -0.0699 -0.1157
  101OSM   H15S10208   4.383   0.102   9.187  0.9286 -0.0821 -2.0188
  101OSM   H15T10209   4.554   0.138   9.218 -0.4850 -0.2416 -1.0802
  101OSM   C16S10210   4.423   0.296   9.141 -0.5336 -0.3726  0.4885
  101OSM   H16S10211   4.475   0.389   9.171 -0.8882  0.1301 -0.4021
  101OSM   H16T10212   4.314   0.309   9.162 -0.3810 -0.6565  1.4758
  101OSM   C17S10213   4.447   0.283   8.990 -0.6762 -0.4014  0.3723
  101OSM   H17S10214   4.387   0.201   8.944 -1.3796  0.7171 -0.7605
  101OSM   H17T10215   4.551   0.243   8.993 -0.4184  0.3141  1.1129
  101OSM   C18S10216   4.418   0.415   8.910  0.4128  0.6057  0.1912
  101OSM   H18S10217   4.454   0.507   8.960 -1.2118  1.1652  0.3913
  101OSM   H18T10218   4.307   0.422   8.904  0.4801  1.6408  0.0043
  101OSM   H18U10219   4.454   0.413   8.805 -1.4820 -1.3188 -0.5051
  101OSM    C1F10220   4.057   0.636  10.397  0.4848 -0.4355 -0.3063
  101OSM     OF10221   4.095   0.675  10.510 -0.1095  0.2430 -0.3498
  101OSM    C2F10222   4.027   0.723  10.280 -0.1697  0.2391  0.5988
  101OSM    H2F10223   3.978   0.672  10.195  2.1789 -1.0990 -0.0230
  101OSM    H2G10224   4.127   0.754  10.241  0.5366 -1.2907  1.1383
  101OSM    C3F10225   3.945   0.842  10.323  0.3522  0.0498 -0.7145
  101OSM    H3F10226   3.991   0.902  10.404 -4.2844 -0.0980  2.3611
  101OSM    H3G10227   3.841   0.819  10.354  0.0830  0.1658 -1.5152
  101OSM    C4F10228   3.916   0.930  10.208 -0.5705 -0.2053 -0.0499
  101OSM    H4F10229   4.015   0.960  10.168  0.1367 -0.8825  1.1388
  101OSM    H4G10230   3.853   1.016  10.239 -0.6093 -0.6079  1.0208
  101OSM    C5F10231   3.833   0.862  10.092 -0.1511  0.6006 -0.2878
  101OSM    H5F10232   3.742   0.817  10.137  0.8422 -0.4547  0.7514
  101OSM    H5G10233   3.882   0.782  10.032 -0.5274 -0.9835  1.4025
  101OSM    C6F10234   3.788   0.971   9.996  0.8164  0.6901 -0.7661
  101OSM    H6F10235   3.754   1.063  10.048  0.1877 -0.7586  1.5177
  101OSM    H6G10236   3.703   0.926   9.941  0.8238  0.3050 -0.4652
  101OSM    C7F10237   3.899   1.008   9.895  0.1519 -0.0834 -0.3912
  101OSM    H7F10238   3.939   0.913   9.854  0.2536 -0.5557  0.7560
  101OSM    H7G10239   3.987   1.041   9.954 -0.8874 -1.7331  2.2968
  101OSM    C8F10240   3.858   1.109   9.791 -0.3237 -0.0011  0.8415
  101OSM    H8F10241   3.943   1.158   9.739 -2.2235  0.2210 -2.3186
  101OSM    H8G10242   3.812   1.194   9.845 -0.3496  0.6389 -0.1713
  101OSM    C9F10243   3.764   1.064   9.690  0.1175  0.0874  0.4018
  101OSM    H9F10244   3.677   1.016   9.737 -0.1488 -0.9204 -1.0611
  101OSM   C10F10245   3.778   1.049   9.558  0.3123 -0.8106  0.0930
  101OSM   H10F10246   3.693   1.009   9.501 -1.3896  1.5941  0.7881
  101OSM   C11F10247   3.898   1.082   9.479 -0.2837  0.1126  0.2895
  101OSM   H11F10248   3.949   0.987   9.453 -0.1519 -0.3786  2.1815
  101OSM   H11G10249   3.967   1.142   9.542  0.0154  0.4978 -0.3918
  101OSM   C12F10250   3.879   1.165   9.349  0.5054 -0.6847 -0.7007
  101OSM   H12F10251   3.981   1.203   9.325 -0.0344  1.3517 -0.0485
  101OSM   H12G10252   3.812   1.253   9.365  0.8408 -0.6729  0.8144
  101OSM   C13F10253   3.818   1.086   9.230  0.0364  0.2664 -0.0237
  101OSM   H13F10254   3.726   1.028   9.256 -1.4110  1.2125 -2.6586
  101OSM   H13G10255   3.901   1.025   9.190 -2.1560 -2.5837 -0.5965
  101OSM   C14F10256   3.767   1.175   9.107 -0.3089 -0.4565  0.3226
  101OSM   H14F10257   3.856   1.235   9.080 -1.4871  1.0354 -0.3270
  101OSM   H14G10258   3.684   1.240   9.143 -0.2630  0.6920 -1.5776
  101OSM   C15F10259   3.731   1.080   8.989 -0.7778 -0.0635 -0.2172
  101OSM   H15F10260   3.635   1.032   9.018  0.3207 -2.4875 -0.3568
  101OSM   H15G10261   3.810   1.004   9.003  0.0752  1.2515  2.8680
  101OSM   C16F10262   3.718   1.141   8.848  0.0894 -0.4734 -0.0114
  101OSM   H16F10263   3.668   1.239   8.866  1.6629 -0.2705  4.4152
  101OSM   H16G10264   3.654   1.072   8.789  1.7086 -1.9478 -0.1047
  101OSM   C17F10265   3.843   1.148   8.769  0.0043 -0.1992  1.1153
  101OSM   H17F10266   3.876   1.046   8.741 -1.6131 -0.5949  0.5041
  101OSM   H17G10267   3.916   1.204   8.830  0.9560  2.2400 -1.9768
  101OSM   C18F10268   3.829   1.223   8.640  0.4717 -0.8251 -0.4264
  101OSM   H18F10269   3.924   1.258   8.594  0.0914 -0.6973 -1.1163
  101OSM   H18G10270   3.774   1.319   8.652  2.6180  0.3581  0.6893
  101OSM   H18H10271   3.769   1.161   8.571  0.9833 -2.9980  0.9663
  102OSM      N10272   2.775   6.159  10.894  0.8181 -0.2287  0.2559
  102OSM    C1510273   2.784   6.287  10.968 -0.3926 -0.1007 -0.2934
  102OSM   H15A10274   2.881   6.333  10.979 -0.8213  1.2701 -1.7976
  102OSM   H15B10275   2.763   6.279  11.073 -0.5509  2.0195 -0.1279
  102OSM   H15C10276   2.721   6.361  10.921  0.7168  0.7988 -0.4161
  102OSM    C1410277   2.630   6.115  10.906  0.0974 -0.4794  0.0832
  102OSM   H14A10278   2.601   6.106  11.010  4.4209  1.3082  1.6712
  102OSM   H14B10279   2.618   6.025  10.848  2.4880 -0.2840 -0.8171
  102OSM   H14C10280   2.559   6.189  10.872  1.9079  1.5410  0.4404
  102OSM    C1310281   2.803   6.183  10.748  1.0692  0.4690  0.1459
  102OSM   H13A10282   2.731   6.250  10.704  1.0316 -0.1871 -0.8340
  102OSM   H13B10283   2.786   6.088  10.701  1.9105  0.3966 -0.0315
  102OSM   H13C10284   2.903   6.222  10.733  1.9715 -0.6119  2.7461
  102OSM    C1210285   2.853   6.053  10.954  0.1630 -0.5019 -0.2418
  102OSM   H12A10286   2.800   6.026  11.044 -0.7914  2.8613  0.3477
  102OSM   H12B10287   2.948   6.094  10.986  0.4487 -1.2212 -0.1492
  102OSM    C1110288   2.898   5.930  10.864 -0.1557 -0.1442 -0.3012
  102OSM   H11A10289   2.959   5.861  10.926  0.7366  0.6995 -0.2138
  102OSM   H11B10290   2.958   5.975  10.782  1.6063 -1.1811  0.3853
  102OSM      P10291   2.714   5.750  10.874  0.1957 -0.2555  0.2188
  102OSM    O1310292   2.802   5.633  10.851 -0.2918  0.0761 -0.1161
  102OSM    O1410293   2.675   5.785  11.013  0.4064 -0.0161  0.4935
  102OSM    O1110294   2.580   5.715  10.805  0.5332 -0.2520 -0.2833
  102OSM    O1210295   2.781   5.874  10.807  0.7146 -0.0975 -0.0385
  102OSM    C1S10296   2.504   5.796  10.711  0.0664  0.0679  0.4367
  102OSM    H1S10297   2.534   5.903  10.722  2.0628 -0.5142  1.2036
  102OSM    H1T10298   2.397   5.788  10.739 -0.5299  2.5721 -0.7744
  102OSM     NF10299   2.398   5.796  10.497  0.0633 -0.1913  0.2468
  102OSM    HNF10300   2.329   5.726  10.481 -2.3422  1.6223  1.8794
  102OSM    C2S10301   2.523   5.753  10.565  0.2277 -0.0168 -0.6093
  102OSM    H2S10302   2.606   5.807  10.514 -0.8930  0.7180 -1.6970
  102OSM    C3S10303   2.549   5.599  10.558 -0.2670  0.4479 -0.0345
  102OSM    H3S10304   2.469   5.553  10.620 -0.0755  1.7763  1.2483
  102OSM     O310305   2.681   5.557  10.596 -0.1974  0.1781 -0.6134
  102OSM    HO310306   2.720   5.609  10.666 -0.6536  0.2761 -0.4261
  102OSM    C4S10307   2.529   5.559  10.416 -0.0018 -0.4225  0.1726
  102OSM    H4S10308   2.427   5.525  10.391  0.0030 -1.6479  1.7131
  102OSM    C5S10309   2.618   5.546  10.316 -0.3395  0.4442 -0.6175
  102OSM    H5S10310   2.723   5.568  10.339  0.0180 -1.0192 -0.7727
  102OSM    C6S10311   2.587   5.499  10.175 -0.2671 -0.1128  0.0494
  102OSM    H6S10312   2.686   5.470  10.134 -0.3779  0.7496 -0.8608
  102OSM    H6T10313   2.547   5.581  10.112  0.2552 -1.1653 -1.7082
  102OSM    C7S10314   2.496   5.374  10.152 -0.0418 -0.2356 -1.0992
  102OSM    H7S10315   2.393   5.394  10.189 -0.1305 -0.0956 -1.4131
  102OSM    H7T10316   2.534   5.293  10.217 -0.2783 -0.1215 -0.8152
  102OSM    C8S10317   2.478   5.332  10.001  0.2198 -0.1414 -0.5071
  102OSM    H8S10318   2.437   5.229   9.992  0.3048 -0.4178  1.6434
  102OSM    H8T10319   2.585   5.321   9.971  0.6275 -0.9136  1.0610
  102OSM    C9S10320   2.388   5.428   9.918 -0.4249  0.5950  0.6030
  102OSM    H9S10321   2.405   5.537   9.931 -1.6790  0.8474  0.2519
  102OSM    H9T10322   2.279   5.404   9.926 -0.2254 -1.3214 -1.4478
  102OSM   C10S10323   2.419   5.424   9.762 -0.3079 -0.9358  0.1368
  102OSM   H10S10324   2.348   5.492   9.711  1.5000 -0.1055 -1.3877
  102OSM   H10T10325   2.402   5.319   9.730  3.0252 -1.7681  0.7391
  102OSM   C11S10326   2.556   5.450   9.728 -0.4656  0.0919 -0.0323
  102OSM   H11S10327   2.618   5.366   9.767  2.9511  2.5899  0.3429
  102OSM   H11T10328   2.586   5.539   9.786  1.3824  0.3195 -1.2096
  102OSM   C12S10329   2.587   5.465   9.581  0.9392  0.1474  0.1834
  102OSM   H12S10330   2.556   5.364   9.546 -1.7211  0.3960  1.5364
  102OSM   H12T10331   2.697   5.476   9.570  0.5889  2.4014 -2.0800
  102OSM   C13S10332   2.510   5.579   9.501 -0.4667 -0.1073  0.8583
  102OSM   H13S10333   2.538   5.678   9.542  0.3229  0.0900 -0.1346
  102OSM   H13T10334   2.401   5.559   9.495 -0.3918 -0.2081 -0.2423
  102OSM   C14S10335   2.556   5.579   9.357 -0.0216 -0.0519 -0.3007
  102OSM   H14S10336   2.551   5.480   9.307  1.1840 -1.8816  2.9089
  102OSM   H14T10337   2.655   5.628   9.347 -1.2366  2.1491 -3.1211
  102OSM   C15S10338   2.469   5.677   9.271  0.1318 -0.5825  0.2051
  102OSM   H15S10339   2.529   5.706   9.183 -1.4135  0.5573 -0.5054
  102OSM   H15T10340   2.448   5.767   9.332  3.3190 -0.2642  1.0069
  102OSM   C16S10341   2.338   5.613   9.213 -0.0500 -0.3954  0.3583
  102OSM   H16S10342   2.281   5.558   9.291 -0.0544  0.1518  0.7481
  102OSM   H16T10343   2.368   5.535   9.140 -2.5781  0.0328 -1.2763
  102OSM   C17S10344   2.255   5.724   9.131 -0.2410 -0.7159 -0.2123
  102OSM   H17S10345   2.207   5.657   9.056 -1.5713  1.9897 -1.9523
  102OSM   H17T10346   2.322   5.789   9.071 -1.3460  0.7342  0.0637
  102OSM   C18S10347   2.148   5.796   9.206  0.2470 -0.5015 -0.3645
  102OSM   H18S10348   2.081   5.716   9.243  0.8887 -0.2917  1.3418
  102OSM   H18T10349   2.090   5.869   9.146  3.1193  1.2334 -1.2660
  102OSM   H18U10350   2.166   5.851   9.301 -1.0912 -1.0954  0.2573
  102OSM    C1F10351   2.359   5.922  10.481 -0.9547  0.4332  0.6204
  102OSM     OF10352   2.440   6.014  10.499  0.6409 -0.1316 -0.8156
  102OSM    C2F10353   2.213   5.958  10.441 -0.4933 -0.0892 -0.2863
  102OSM    H2F10354   2.173   6.025  10.520 -1.5587 -2.2802  1.1267
  102OSM    H2G10355   2.155   5.864  10.454 -0.7044  0.1911  0.8749
  102OSM    C3F10356   2.207   6.012  10.301  0.1295 -0.0956  0.3118
  102OSM    H3F10357   2.260   6.109  10.293 -0.4591  0.2255  0.2662
  102OSM    H3G10358   2.101   6.033  10.277 -0.0406 -0.2930  0.8584
  102OSM    C4F10359   2.257   5.918  10.184 -0.4304 -0.6531  0.5302
  102OSM    H4F10360   2.360   5.878  10.197 -1.1416 -2.6460  0.3010
  102OSM    H4G10361   2.256   5.984  10.094 -0.0778 -1.6155 -0.1889
  102OSM    C5F10362   2.162   5.799  10.161 -0.4142 -0.3687 -0.5106
  102OSM    H5F10363   2.054   5.822  10.165 -0.0384  1.8205 -1.2968
  102OSM    H5G10364   2.175   5.727  10.244  0.6090 -2.2626 -2.2177
  102OSM    C6F10365   2.209   5.724  10.035 -0.4175 -0.5473 -0.1613
  102OSM    H6F10366   2.162   5.624  10.027 -0.6096 -0.3588 -1.9668
  102OSM    H6G10367   2.320   5.718  10.030 -0.3267  0.7897 -0.0604
  102OSM    C7F10368   2.155   5.799   9.904  0.0217 -0.0894  0.5224
  102OSM    H7F10369   2.223   5.880   9.872  0.0138 -0.4976 -0.5896
  102OSM    H7G10370   2.059   5.848   9.932 -0.3459 -0.7858  0.5119
  102OSM    C8F10371   2.135   5.700   9.787 -0.0165  0.4754  0.0534
  102OSM    H8F10372   2.072   5.613   9.813  0.2425  0.0662 -0.6572
  102OSM    H8G10373   2.235   5.664   9.756 -0.5798 -2.3788  1.3249
  102OSM    C9F10374   2.079   5.766   9.667  0.2862  0.2123 -0.8628
  102OSM    H9F10375   2.105   5.873   9.667 -1.6594  0.7942  2.2143
  102OSM   C10F10376   1.991   5.722   9.575  0.4986 -0.3330 -0.0134
  102OSM   H10F10377   1.962   5.779   9.486  2.4270  1.6017  0.5113
  102OSM   C11F10378   1.929   5.590   9.565  0.7152 -1.3030  0.7897
  102OSM   H11F10379   1.824   5.592   9.602  0.0196 -1.1379 -1.0604
  102OSM   H11G10380   1.978   5.509   9.623 -1.4936 -1.8091  2.0762
  102OSM   C12F10381   1.928   5.540   9.420 -0.1239 -0.3786  0.5785
  102OSM   H12F10382   1.891   5.435   9.417 -0.4968 -0.2864  1.5973
  102OSM   H12G10383   2.034   5.545   9.387 -0.5175  3.4460 -0.5797
  102OSM   C13F10384   1.836   5.613   9.324  0.5517  0.4989 -0.0281
  102OSM   H13F10385   1.874   5.716   9.306  1.8411 -0.2137 -1.7239
  102OSM   H13G10386   1.730   5.625   9.354 -0.4957  0.4342 -3.2876
  102OSM   C14F10387   1.846   5.543   9.181  1.4515 -0.2035  0.4954
  102OSM   H14F10388   1.764   5.468   9.179  1.1119  0.1745 -0.0255
  102OSM   H14G10389   1.947   5.497   9.172  0.6895 -1.9298  0.3804
  102OSM   C15F10390   1.812   5.643   9.060 -0.5900 -0.1172 -0.6449
  102OSM   H15F10391   1.826   5.586   8.966  3.3327 -0.6031  0.0968
  102OSM   H15G10392   1.884   5.726   9.047 -1.8464  0.9792 -0.8676
  102OSM   C16F10393   1.660   5.688   9.072 -0.1498 -0.3276  0.5858
  102OSM   H16F10394   1.651   5.725   9.176 -0.8259 -1.6471  1.0175
  102OSM   H16G10395   1.594   5.599   9.068 -0.2292 -0.2852  0.9275
  102OSM   C17F10396   1.628   5.799   8.969  0.0011  1.0403 -1.0165
  102OSM   H17F10397   1.705   5.880   8.967 -2.1866  3.2370 -2.0968
  102OSM   H17G10398   1.533   5.849   8.999  0.1040  2.7312 -3.2156
  102OSM   C18F10399   1.602   5.739   8.828 -0.1276  0.3882 -0.2195
  102OSM   H18F10400   1.687   5.675   8.796 -1.6023 -0.8854 -1.7799
  102OSM   H18G10401   1.584   5.832   8.770 -3.5733  0.5158  0.8228
  102OSM   H18H10402   1.510   5.678   8.841 -0.1429  0.4548 -0.0076
  103OSM      N10403   4.347   3.014  10.979  0.5702  0.6730 -0.0411
  103OSM    C1510404   4.350   2.937  11.105  0.8323  0.2947 -0.3612
  103OSM   H15A10405   4.258   2.960  11.156 -0.0083 -0.8937 -1.2969
  103OSM   H15B10406   4.435   2.963  11.167  0.6611 -1.0895  0.4948
  103OSM   H15C10407   4.362   2.832  11.083  0.6136  0.0629  0.5654
  103OSM    C1410408   4.355   3.159  11.013 -0.9978 -0.2492  0.8373
  103OSM   H14A10409   4.342   3.215  10.922 -0.0294 -1.6360 -0.1841
  103OSM   H14B10410   4.453   3.185  11.051 -0.4529  0.1806 -0.7989
  103OSM   H14C10411   4.283   3.182  11.091 -2.6962 -3.5721  0.4164
  103OSM    C1310412   4.473   2.975  10.902 -0.0500  0.8032  0.0737
  103OSM   H13A10413   4.563   3.007  10.952 -0.0890 -0.0130  0.6810
  103OSM   H13B10414   4.471   3.023  10.805  1.5366  1.0932  0.1557
  103OSM   H13C10415   4.463   2.869  10.887  2.5889  0.8182 -2.5047
  103OSM    C1210416   4.222   2.994  10.895 -0.0944  0.2082  0.6239
  103OSM   H12A10417   4.232   3.067  10.817 -1.1939 -1.7197 -1.4522
  103OSM   H12B10418   4.135   3.019  10.955 -0.0493  2.6226 -0.2484
  103OSM    C1110419   4.190   2.853  10.846  0.5476 -0.1768 -0.1613
  103OSM   H11A10420   4.264   2.820  10.770  2.0781  1.0398  0.7570
  103OSM   H11B10421   4.084   2.856  10.813  1.1096  2.4107 -2.0228
  103OSM      P10422   4.068   2.686  11.027 -0.4308 -0.0566 -0.2879
  103OSM    O1310423   4.099   2.578  11.123 -0.2894 -0.2104  0.6179
  103OSM    O1410424   3.978   2.792  11.084 -0.8796 -0.7437 -0.3683
  103OSM    O1110425   3.997   2.626  10.897  0.4364  0.3159 -0.2653
  103OSM    O1210426   4.197   2.745  10.953 -0.3405  0.7393 -0.1861
  103OSM    C1S10427   3.873   2.677  10.849  0.6467  0.2465  0.4614
  103OSM    H1S10428   3.850   2.780  10.884  0.3933 -0.0571  1.2108
  103OSM    H1T10429   3.785   2.613  10.874  0.1171  1.4037  1.6709
  103OSM     NF10430   3.751   2.759  10.639 -0.0735  0.0540 -0.3586
  103OSM    HNF10431   3.680   2.703  10.598  2.4844 -1.9002 -2.4704
  103OSM    C2S10432   3.865   2.679  10.688  0.8577 -0.1358  0.2186
  103OSM    H2S10433   3.958   2.729  10.654 -0.6642  2.2028 -0.7537
  103OSM    C3S10434   3.861   2.536  10.632 -0.1000  0.4502 -0.7710
  103OSM    H3S10435   3.766   2.491  10.666  0.9241  0.1657  1.9708
  103OSM     O310436   3.969   2.457  10.682 -0.2996  0.3543  0.0891
  103OSM    HO310437   4.012   2.514  10.746  1.8545 -0.0975 -0.8831
  103OSM    C4S10438   3.867   2.542  10.482  0.4191  0.1355 -0.2715
  103OSM    H4S10439   3.775   2.499  10.441 -1.1944 -0.2130  3.3113
  103OSM    C5S10440   3.958   2.595  10.402  0.6039 -0.1356  0.5743
  103OSM    H5S10441   4.029   2.654  10.461  0.6931 -2.3152  2.7841
  103OSM    C6S10442   3.946   2.614  10.251  0.1374 -0.0102 -0.0907
  103OSM    H6S10443   4.045   2.583  10.212  0.2595 -0.2458  0.4132
  103OSM    H6T10444   3.925   2.720  10.224  2.0145  0.1495 -1.0834
  103OSM    C7S10445   3.832   2.526  10.184 -0.3820  0.1108  0.4235
  103OSM    H7S10446   3.742   2.585  10.210 -0.0804  0.1955  1.3128
  103OSM    H7T10447   3.832   2.422  10.223 -0.1894 -0.3124 -0.6822
  103OSM    C8S10448   3.862   2.534  10.029 -0.4535 -0.3692 -0.2035
  103OSM    H8S10449   3.960   2.485  10.011 -1.2778 -1.6023 -1.4456
  103OSM    H8T10450   3.863   2.640   9.994 -1.0808 -1.1323 -2.6865
  103OSM    C9S10451   3.759   2.465   9.947 -0.6056  0.5407 -0.1742
  103OSM    H9S10452   3.665   2.506   9.990  0.0843 -0.4488  2.4993
  103OSM    H9T10453   3.772   2.355   9.946  1.9721  0.7926 -0.7681
  103OSM   C10S10454   3.758   2.486   9.795 -0.2797 -0.4695 -0.2618
  103OSM   H10S10455   3.857   2.477   9.746 -0.9262 -3.5446 -1.2630
  103OSM   H10T10456   3.744   2.595   9.781  2.4621  0.1754  1.2032
  103OSM   C11S10457   3.641   2.421   9.723  0.3564  1.1381  0.2184
  103OSM   H11S10458   3.547   2.456   9.772  0.2133  2.2011 -0.7850
  103OSM   H11T10459   3.647   2.310   9.724  0.0389  1.0375 -2.6967
  103OSM   C12S10460   3.633   2.466   9.577  0.6069  0.2054  0.0812
  103OSM   H12S10461   3.635   2.577   9.582 -1.4720  0.2853 -0.1346
  103OSM   H12T10462   3.543   2.430   9.523 -0.4627  0.7079  1.4645
  103OSM   C13S10463   3.747   2.410   9.487 -0.0815  0.2601 -0.2073
  103OSM   H13S10464   3.752   2.301   9.508 -0.5714  0.1539 -0.6054
  103OSM   H13T10465   3.842   2.465   9.505 -0.1709  0.8094 -1.3129
  103OSM   C14S10466   3.725   2.428   9.339  0.8188  0.3441  0.4939
  103OSM   H14S10467   3.700   2.535   9.325 -3.0015 -0.6523 -1.6947
  103OSM   H14T10468   3.633   2.380   9.301  0.5433  0.1949  1.3227
  103OSM   C15S10469   3.847   2.373   9.257 -0.2146  0.0589  0.3372
  103OSM   H15S10470   3.841   2.263   9.276  1.8977 -0.0256  0.7375
  103OSM   H15T10471   3.943   2.407   9.300  0.5904 -0.6120 -0.8885
  103OSM   C16S10472   3.852   2.392   9.107  0.2722  0.7214  0.6138
  103OSM   H16S10473   3.752   2.354   9.076  0.1951 -0.8955  2.6624
  103OSM   H16T10474   3.925   2.319   9.069 -0.6005  0.5172 -0.7371
  103OSM   C17S10475   3.861   2.538   9.059 -0.0347  0.1290  0.0333
  103OSM   H17S10476   3.779   2.593   9.109 -0.1075 -0.6095  0.7559
  103OSM   H17T10477   3.829   2.533   8.953 -1.6481  0.1079  0.5038
  103OSM   C18S10478   3.995   2.608   9.072  0.2990  0.1306  0.0347
  103OSM   H18S10479   4.074   2.559   9.011 -1.3933  0.3350 -2.5066
  103OSM   H18T10480   4.030   2.603   9.177  0.0383  0.6113  0.1481
  103OSM   H18U10481   3.991   2.713   9.036  3.5917 -0.2627 -1.8065
  103OSM    C1F10482   3.730   2.890  10.653  0.2776  0.4610 -0.0227
  103OSM     OF10483   3.811   2.957  10.721  0.2163 -0.0021  0.5537
  103OSM    C2F10484   3.598   2.949  10.591 -0.7606 -0.2565  0.1624
  103OSM    H2F10485   3.514   2.884  10.622 -0.4471 -1.4951 -1.4350
  103OSM    H2G10486   3.607   2.922  10.484 -0.1708 -0.1669  0.1862
  103OSM    C3F10487   3.581   3.107  10.599 -0.5680 -0.4449 -0.0383
  103OSM    H3F10488   3.674   3.165  10.583 -1.2884  0.5057 -0.8375
  103OSM    H3G10489   3.547   3.143  10.698 -0.7292 -0.0394 -0.2428
  103OSM    C4F10490   3.478   3.177  10.514 -0.0458 -0.1001  0.1847
  103OSM    H4F10491   3.454   3.281  10.545 -0.8216 -0.0043 -0.6859
  103OSM    H4G10492   3.380   3.127  10.525 -0.4665  0.1440 -1.9355
  103OSM    C5F10493   3.532   3.178  10.369  0.6577  0.4416 -0.2464
  103OSM    H5F10494   3.562   3.078  10.333 -0.6941  0.5574 -1.7787
  103OSM    H5G10495   3.625   3.239  10.372  0.6819  0.6292 -2.7748
  103OSM    C6F10496   3.422   3.209  10.268 -0.7631 -0.2678  0.7466
  103OSM    H6F10497   3.378   3.308  10.296 -0.5307 -0.7443  3.0236
  103OSM    H6G10498   3.338   3.137  10.280 -1.1194 -0.0605 -0.4171
  103OSM    C7F10499   3.469   3.218  10.124  1.2349 -0.2615 -0.1555
  103OSM    H7F10500   3.479   3.114  10.085 -0.5939 -0.2868 -0.6278
  103OSM    H7G10501   3.572   3.260  10.128  0.3072  2.5500 -2.0286
  103OSM    C8F10502   3.390   3.309  10.024 -0.5004  0.3131  0.0810
  103OSM    H8F10503   3.442   3.315   9.926  0.3644  2.1488  0.6062
  103OSM    H8G10504   3.396   3.411  10.069 -1.5617  0.2322  0.4301
  103OSM    C9F10505   3.248   3.274  10.005  0.4641  0.4069 -0.4290
  103OSM    H9F10506   3.198   3.251  10.100 -0.1467  1.4117 -0.4911
  103OSM   C10F10507   3.178   3.291   9.893  0.0698  0.1704 -0.4869
  103OSM   H10F10508   3.073   3.260   9.888  0.2707 -0.4415 -1.2427
  103OSM   C11F10509   3.229   3.338   9.758  0.0250 -0.4765 -0.5408
  103OSM   H11F10510   3.337   3.362   9.759 -0.3413  1.3525 -0.4558
  103OSM   H11G10511   3.178   3.433   9.730 -2.2149 -2.4771 -4.1596
  103OSM   C12F10512   3.188   3.240   9.644 -0.2631  0.0148 -0.8668
  103OSM   H12F10513   3.079   3.238   9.624 -0.6749  1.0220  1.0016
  103OSM   H12G10514   3.233   3.142   9.671 -0.6726  0.1743  0.4753
  103OSM   C13F10515   3.259   3.290   9.519  0.0277 -0.1031  0.0795
  103OSM   H13F10516   3.213   3.381   9.474 -1.1363 -0.9319 -0.4502
  103OSM   H13G10517   3.360   3.324   9.550 -0.3151  0.0807  1.0191
  103OSM   C14F10518   3.265   3.185   9.399 -0.2855  0.0866  0.1919
  103OSM   H14F10519   3.160   3.159   9.374 -0.6230  0.8293  0.8185
  103OSM   H14G10520   3.321   3.095   9.433 -0.9699 -0.6982 -0.7120
  103OSM   C15F10521   3.334   3.245   9.274  0.3637  0.2080 -0.2674
  103OSM   H15F10522   3.443   3.232   9.288  0.2857 -0.9856 -0.6438
  103OSM   H15G10523   3.317   3.354   9.276  0.0341  0.1964 -1.4361
  103OSM   C16F10524   3.307   3.171   9.140  0.0427 -0.4073  0.1432
  103OSM   H16F10525   3.212   3.213   9.100  1.4658  0.6457 -2.3722
  103OSM   H16G10526   3.279   3.064   9.153 -1.1264 -0.4639 -2.2608
  103OSM   C17F10527   3.418   3.187   9.034  0.9841 -0.2409  1.0781
  103OSM   H17F10528   3.516   3.143   9.063  0.6801 -2.0407 -0.4322
  103OSM   H17G10529   3.445   3.293   9.016  0.8434 -0.5064 -0.9159
  103OSM   C18F10530   3.380   3.142   8.889 -0.5079 -0.6270 -0.4299
  103OSM   H18F10531   3.463   3.186   8.829 -1.3143  1.1428 -0.3133
  103OSM   H18G10532   3.283   3.186   8.857 -0.7629 -2.2600 -2.0521
  103OSM   H18H10533   3.382   3.033   8.870  1.3308 -0.6442 -0.3193
  104OSM      N10534   0.913   2.688  10.845 -0.3481 -0.0170 -0.8276
  104OSM    C1510535   0.775   2.675  10.897 -0.6636  0.0148  0.3843
  104OSM   H15A10536   0.765   2.703  11.001 -0.3021  1.9314 -0.0544
  104OSM   H15B10537   0.746   2.573  10.878  1.4261 -0.3362 -1.2361
  104OSM   H15C10538   0.711   2.744  10.844  1.1174  0.2243 -1.5851
  104OSM    C1410539   0.906   2.688  10.695 -0.9618 -0.5181 -0.4270
  104OSM   H14A10540   0.837   2.762  10.659 -1.1760 -0.8030 -0.5995
  104OSM   H14B10541   0.870   2.596  10.653 -2.4442 -0.8039  1.3453
  104OSM   H14C10542   1.003   2.716  10.657  0.3661 -1.7158  1.8121
  104OSM    C1310543   0.960   2.819  10.893 -0.4121 -0.5709 -0.1070
  104OSM   H13A10544   0.951   2.838  10.999 -2.2640 -0.3449 -0.2656
  104OSM   H13B10545   0.896   2.896  10.851 -1.3659 -1.9613 -1.3147
  104OSM   H13C10546   1.057   2.838  10.850 -0.5236 -0.5070 -0.3331
  104OSM    C1210547   1.000   2.579  10.908  0.4058  0.1404  0.3855
  104OSM   H12A10548   0.947   2.485  10.896 -1.3365  0.8608  2.0113
  104OSM   H12B10549   1.002   2.584  11.016 -1.7766 -1.3356  0.5486
  104OSM    C1110550   1.145   2.576  10.851  0.5041  0.5458  0.3268
  104OSM   H11A10551   1.128   2.565  10.742 -3.3918  0.9642  0.7276
  104OSM   H11B10552   1.196   2.483  10.883 -1.9483 -1.2193 -0.5725
  104OSM      P10553   1.348   2.712  10.780  0.1688 -0.1883  0.4329
  104OSM    O1310554   1.432   2.811  10.857  0.0305  0.2814  0.7719
  104OSM    O1410555   1.412   2.579  10.754  0.1678 -0.2705 -0.3314
  104OSM    O1110556   1.272   2.782  10.657  0.1754 -0.8641 -0.2107
  104OSM    O1210557   1.223   2.693  10.880 -0.2165 -0.2526  0.0824
  104OSM    C1S10558   1.302   2.912  10.602  0.2174  0.1716 -0.3194
  104OSM    H1S10559   1.396   2.947  10.651  1.1561 -3.9347  1.1940
  104OSM    H1T10560   1.213   2.976  10.623  0.9055  1.0261  0.1003
  104OSM     NF10561   1.363   3.042  10.400 -0.3207 -0.4438  0.1188
  104OSM    HNF10562   1.298   3.107  10.361  2.4244  1.2764 -2.0021
  104OSM    C2S10563   1.321   2.910  10.445 -0.4946  0.3377 -0.6295
  104OSM    H2S10564   1.392   2.832  10.410 -0.8907  0.1362 -0.9904
  104OSM    C3S10565   1.190   2.864  10.375 -0.0357 -0.5884 -0.6507
  104OSM    H3S10566   1.099   2.923  10.399 -1.5649 -1.6483 -3.3933
  104OSM     O310567   1.153   2.729  10.390  0.0468 -0.3587 -0.1161
  104OSM    HO310568   1.209   2.705  10.463  0.7534 -1.4295 -0.9814
  104OSM    C4S10569   1.211   2.883  10.229 -0.2359  0.1456  0.3993
  104OSM    H4S10570   1.310   2.855  10.189 -0.0383  1.3702 -0.0306
  104OSM    C5S10571   1.124   2.948  10.154 -0.1331 -0.5720  0.8718
  104OSM    H5S10572   1.029   2.988  10.192 -0.6944 -1.6007  0.6116
  104OSM    C6S10573   1.139   2.966  10.005  0.4170 -0.6040 -0.3453
  104OSM    H6S10574   1.106   3.070   9.983  2.3599  0.0105 -0.5370
  104OSM    H6T10575   1.071   2.898   9.951  1.2918  0.1763 -2.5524
  104OSM    C7S10576   1.271   2.941   9.934  0.0210  0.3308 -0.1328
  104OSM    H7S10577   1.299   2.836   9.957 -1.8480 -0.5896 -1.7051
  104OSM    H7T10578   1.348   3.016   9.960  2.0383 -1.1841 -1.4279
  104OSM    C8S10579   1.248   2.959   9.780  0.9540 -0.1306  0.2513
  104OSM    H8S10580   1.162   2.891   9.763  0.9471 -0.2610  0.7897
  104OSM    H8T10581   1.331   2.915   9.720  0.2179 -2.1979  0.6614
  104OSM    C9S10582   1.199   3.101   9.740 -0.0204  0.2997 -0.6863
  104OSM    H9S10583   1.246   3.172   9.812 -0.1929 -0.7295  0.4551
  104OSM    H9T10584   1.089   3.107   9.755 -0.2101 -0.1527 -1.7841
  104OSM   C10S10585   1.222   3.145   9.593  0.1596  0.1858 -0.8291
  104OSM   H10S10586   1.330   3.167   9.601 -0.0286  0.5025  2.2696
  104OSM   H10T10587   1.166   3.240   9.575 -1.7286 -0.5470  0.7103
  104OSM   C11S10588   1.180   3.044   9.486  0.0972  0.0100  0.5597
  104OSM   H11S10589   1.094   2.984   9.523  1.8666 -2.3632  1.0644
  104OSM   H11T10590   1.253   2.961   9.480 -1.8679 -1.6847 -1.5626
  104OSM   C12S10591   1.173   3.111   9.343  0.0913  0.7291  0.3653
  104OSM   H12S10592   1.079   3.170   9.345 -2.4615 -3.0185  1.4614
  104OSM   H12T10593   1.159   3.032   9.267 -0.3971 -2.5613  3.6056
  104OSM   C13S10594   1.311   3.181   9.313  0.1983 -0.8752  0.4875
  104OSM   H13S10595   1.387   3.099   9.306 -0.2898 -1.3171  0.2837
  104OSM   H13T10596   1.320   3.261   9.389  0.0098 -0.8013  0.4315
  104OSM   C14S10597   1.332   3.255   9.175 -0.4040  0.2826 -0.4708
  104OSM   H14S10598   1.362   3.182   9.097  0.9922 -2.5132  2.4539
  104OSM   H14T10599   1.413   3.329   9.195 -0.1740 -0.0353 -0.2147
  104OSM   C15S10600   1.201   3.325   9.137 -0.2009  0.1717 -0.2785
  104OSM   H15S10601   1.166   3.378   9.228  0.2034  1.6735 -0.9545
  104OSM   H15T10602   1.132   3.248   9.097 -0.5535  1.7274 -2.9047
  104OSM   C16S10603   1.221   3.431   9.027  0.0902  0.7506 -0.4134
  104OSM   H16S10604   1.299   3.501   9.064  1.4563 -1.6654  1.5650
  104OSM   H16T10605   1.122   3.481   9.029 -0.2398  0.1470  2.5184
  104OSM   C17S10606   1.272   3.386   8.893 -0.0011 -0.2543  0.2572
  104OSM   H17S10607   1.203   3.301   8.874 -2.2285  1.0220  2.2021
  104OSM   H17T10608   1.367   3.328   8.893 -0.2295 -1.3934 -6.5191
  104OSM   C18S10609   1.270   3.487   8.780 -0.0117 -0.3800  0.2122
  104OSM   H18S10610   1.321   3.454   8.687  0.4349 -0.3406  0.4409
  104OSM   H18T10611   1.315   3.578   8.824 -1.5933  0.1656  0.7445
  104OSM   H18U10612   1.169   3.527   8.758  0.1409  0.6899  1.3963
  104OSM    C1F10613   1.490   3.072  10.412  0.2213 -0.1151  0.4451
  104OSM     OF10614   1.568   2.986  10.447 -0.1286 -0.1547  0.1368
  104OSM    C2F10615   1.527   3.213  10.383  0.3418  0.3496  0.5930
  104OSM    H2F10616   1.523   3.266  10.480 -2.9028 -0.6145  1.1135
  104OSM    H2G10617   1.442   3.252  10.321  0.3341  1.5971  1.3479
  104OSM    C3F10618   1.662   3.224  10.303 -0.4815  0.3760 -0.7546
  104OSM    H3F10619   1.744   3.178  10.361 -0.8105 -1.1866 -1.4834
  104OSM    H3G10620   1.693   3.330  10.290  3.8731 -0.3122  2.0554
  104OSM    C4F10621   1.631   3.158  10.163  0.3705 -0.5997 -0.6011
  104OSM    H4F10622   1.570   3.233  10.108  0.9333 -0.7073 -1.3945
  104OSM    H4G10623   1.561   3.072  10.163  0.4486 -0.6835  0.7657
  104OSM    C5F10624   1.756   3.118  10.081 -0.2051  0.8325 -0.2535
  104OSM    H5F10625   1.821   3.058  10.148 -1.2251  0.1192  0.1209
  104OSM    H5G10626   1.812   3.208  10.047  0.3393  0.0491 -1.5142
  104OSM    C6F10627   1.712   3.035   9.959 -0.1875 -0.3805 -0.1650
  104OSM    H6F10628   1.609   3.071   9.939 -0.5653  1.1095  3.6397
  104OSM    H6G10629   1.688   2.928   9.977  0.3006 -0.5037 -0.2276
  104OSM    C7F10630   1.807   3.058   9.843 -0.4783 -0.1826 -0.0408
  104OSM    H7F10631   1.912   3.030   9.869  0.2148  1.8557 -0.3869
  104OSM    H7G10632   1.825   3.163   9.810  0.2026 -0.9515 -2.2853
  104OSM    C8F10633   1.767   2.981   9.720 -0.0865 -0.5978  0.1169
  104OSM    H8F10634   1.735   2.877   9.739  2.4868 -1.6343 -0.7556
  104OSM    H8G10635   1.852   2.958   9.651 -1.7325 -1.0126 -1.8721
  104OSM    C9F10636   1.647   3.050   9.659 -0.1449  0.3580  0.1784
  104OSM    H9F10637   1.573   3.094   9.728 -0.1482  1.7282 -0.6638
  104OSM   C10F10638   1.634   3.086   9.529 -0.1898 -0.3560  0.3263
  104OSM   H10F10639   1.533   3.118   9.497 -0.9320 -1.5868  1.3612
  104OSM   C11F10640   1.737   3.065   9.415 -0.2655  0.6769 -0.8534
  104OSM   H11F10641   1.715   2.966   9.370 -1.0803  0.2731  0.3710
  104OSM   H11G10642   1.838   3.059   9.460 -2.2998 -1.0813  4.1480
  104OSM   C12F10643   1.736   3.191   9.326  0.0379 -0.1536  0.0581
  104OSM   H12F10644   1.778   3.283   9.372 -0.9129  0.4705 -0.2867
  104OSM   H12G10645   1.631   3.224   9.309 -0.4312  0.7933  3.9082
  104OSM   C13F10646   1.814   3.178   9.201 -0.2496 -0.8217  0.1607
  104OSM   H13F10647   1.783   3.078   9.165 -0.1066 -0.9445  0.3793
  104OSM   H13G10648   1.921   3.172   9.229  0.5593  2.7214 -1.6072
  104OSM   C14F10649   1.798   3.280   9.085  0.6864 -0.9775 -0.5469
  104OSM   H14F10650   1.849   3.379   9.095 -1.9699  0.5819 -1.3757
  104OSM   H14G10651   1.689   3.303   9.085  0.6595 -1.0657  0.2330
  104OSM   C15F10652   1.854   3.230   8.945  1.0518  0.0547  0.0021
  104OSM   H15F10653   1.806   3.131   8.927 -0.7846  0.4509  2.2760
  104OSM   H15G10654   1.963   3.215   8.959  1.1010 -1.0232 -1.3787
  104OSM   C16F10655   1.820   3.319   8.824 -0.8335  0.1319  0.4631
  104OSM   H16F10656   1.848   3.274   8.727 -0.2713  0.3794  0.5019
  104OSM   H16G10657   1.885   3.409   8.833  1.8522 -1.4829 -1.5126
  104OSM   C17F10658   1.677   3.359   8.816 -0.1123 -0.2588  0.0710
  104OSM   H17F10659   1.650   3.441   8.886  2.0604  1.8685 -1.4054
  104OSM   H17G10660   1.615   3.269   8.837  0.2233 -0.4241  0.3637
  104OSM   C18F10661   1.640   3.409   8.672  0.6566  0.4073  0.0421
  104OSM   H18F10662   1.607   3.321   8.613  0.1118 -0.1866  1.2096
  104OSM   H18G10663   1.735   3.446   8.626  1.1280  0.0342  0.7116
  104OSM   H18H10664   1.564   3.490   8.666 -1.3066 -1.4106 -0.4736
  105OSM      N10665   2.096   1.818  10.984 -0.5991 -0.2858  0.1769
  105OSM    C1510666   2.008   1.797  11.099 -0.4144  0.4421 -0.1899
  105OSM   H15A10667   1.937   1.878  11.104 -0.3440  0.5550 -0.8683
  105OSM   H15B10668   2.057   1.783  11.194  0.1969 -0.1700 -0.5867
  105OSM   H15C10669   1.944   1.712  11.077  0.6609 -0.3989 -0.1235
  105OSM    C1410670   2.156   1.961  10.995  0.4829  0.2750  0.9606
  105OSM   H14A10671   2.237   1.981  10.927  0.2128 -1.1636  0.1654
  105OSM   H14B10672   2.198   1.976  11.093  2.2609  0.4550  0.2119
  105OSM   H14C10673   2.089   2.043  10.979  0.3371 -0.0695 -0.3378
  105OSM    C1310674   2.211   1.734  10.981  0.1413 -0.0868  0.3569
  105OSM   H13A10675   2.187   1.631  10.959 -1.9264  0.2302  0.9151
  105OSM   H13B10676   2.253   1.737  11.081  3.5161 -0.4562 -0.9308
  105OSM   H13C10677   2.283   1.772  10.911 -0.2594 -0.6496 -0.3767
  105OSM    C1210678   2.018   1.806  10.852  0.4022  0.2375 -0.0283
  105OSM   H12A10679   1.989   1.703  10.844 -0.1937  0.4385 -0.4756
  105OSM   H12B10680   2.086   1.839  10.775 -1.1376  0.8353 -1.1733
  105OSM    C1110681   1.891   1.890  10.825 -0.3432 -0.1542  1.0115
  105OSM   H11A10682   1.830   1.881  10.918  1.7062  0.0007  2.4386
  105OSM   H11B10683   1.845   1.839  10.738  1.0121  1.1585 -0.5217
  105OSM      P10684   1.892   2.156  10.863  0.4367  0.2158 -0.2493
  105OSM    O1310685   1.873   2.115  11.000  0.2346 -0.3483 -0.1636
  105OSM    O1410686   1.990   2.260  10.836 -1.0181 -0.6362  0.0634
  105OSM    O1110687   1.742   2.206  10.819 -0.3722  0.3879 -0.0404
  105OSM    O1210688   1.922   2.027  10.781 -0.2248  0.4386 -0.9389
  105OSM    C1S10689   1.701   2.203  10.682 -0.5051 -0.2031 -0.5173
  105OSM    H1S10690   1.785   2.226  10.613  0.0847 -0.2077  0.1877
  105OSM    H1T10691   1.631   2.287  10.666 -0.2076 -0.2152 -1.9565
  105OSM     NF10692   1.597   2.089  10.492 -0.0258 -0.3697 -0.0643
  105OSM    HNF10693   1.503   2.116  10.469  0.1205 -1.0218 -1.5492
  105OSM    C2S10694   1.632   2.072  10.629  1.3090 -0.5691 -0.4961
  105OSM    H2S10695   1.695   1.982  10.643 -1.7860 -2.6351  1.1621
  105OSM    C3S10696   1.518   2.042  10.726 -0.4107 -0.1340  0.1561
  105OSM    H3S10697   1.451   2.130  10.734  0.7273  0.7491  0.1679
  105OSM     O310698   1.552   2.007  10.858 -0.1132 -0.1941  0.0341
  105OSM    HO310699   1.647   2.022  10.852  0.1685 -2.4076 -3.0047
  105OSM    C4S10700   1.419   1.940  10.675  0.1580  1.0121 -0.5683
  105OSM    H4S10701   1.332   1.988  10.629 -1.1639 -0.6962  0.0356
  105OSM    C5S10702   1.422   1.805  10.684 -0.4489  0.4053 -0.7620
  105OSM    H5S10703   1.499   1.757  10.745  0.3343  3.6562  1.0042
  105OSM    C6S10704   1.316   1.720  10.615  0.3254 -0.1343 -0.7403
  105OSM    H6S10705   1.330   1.720  10.505 -0.2146 -2.7476 -0.8736
  105OSM    H6T10706   1.219   1.770  10.637  0.2204  0.7094 -2.8869
  105OSM    C7S10707   1.309   1.572  10.654  0.0909  0.6453 -0.0804
  105OSM    H7S10708   1.306   1.563  10.765  2.1575  1.2408  0.0672
  105OSM    H7T10709   1.401   1.517  10.624  1.1451  1.1107  2.0460
  105OSM    C8S10710   1.182   1.509  10.604 -0.1219  0.1528  0.2609
  105OSM    H8S10711   1.110   1.548  10.680  0.1732 -2.7641  2.2086
  105OSM    H8T10712   1.193   1.401  10.628 -1.0776  0.3742  1.9336
  105OSM    C9S10713   1.145   1.529  10.457 -0.4093 -0.7309  0.2705
  105OSM    H9S10714   1.136   1.637  10.434 -1.1574 -1.1259 -1.5147
  105OSM    H9T10715   1.047   1.480  10.439 -0.3136 -0.5875 -0.6787
  105OSM   C10S10716   1.242   1.461  10.355  0.1635  0.4888  0.2299
  105OSM   H10S10717   1.225   1.352  10.350  0.2064  0.4213  1.3351
  105OSM   H10T10718   1.344   1.486  10.393  0.1175  0.5508  0.3118
  105OSM   C11S10719   1.211   1.531  10.223  0.2465 -0.1754  0.0825
  105OSM   H11S10720   1.241   1.638  10.229  1.5548 -0.4766 -0.6759
  105OSM   H11T10721   1.104   1.513  10.197 -0.1634  2.9751 -0.8217
  105OSM   C12S10722   1.288   1.487  10.093 -0.2742  0.0009 -0.5685
  105OSM   H12S10723   1.396   1.495  10.118 -0.2840 -0.4147 -0.3883
  105OSM   H12T10724   1.267   1.562  10.013  1.0713  2.5330  1.2961
  105OSM   C13S10725   1.242   1.349  10.042 -0.4788 -0.1197 -0.3310
  105OSM   H13S10726   1.140   1.361  10.000 -0.6253  1.1129  0.3250
  105OSM   H13T10727   1.229   1.274  10.123  0.0231 -2.2401 -2.1037
  105OSM   C14S10728   1.323   1.279   9.934 -0.2713  0.1387 -0.4323
  105OSM   H14S10729   1.418   1.234   9.971 -0.9052 -0.3105  0.6900
  105OSM   H14T10730   1.334   1.352   9.851  0.0229  1.8948  1.1002
  105OSM   C15S10731   1.237   1.161   9.880 -0.4542 -0.2972 -0.5159
  105OSM   H15S10732   1.145   1.211   9.842 -1.4063 -2.0634 -0.6532
  105OSM   H15T10733   1.207   1.104   9.970 -0.7527  1.2700  0.4238
  105OSM   C16S10734   1.293   1.075   9.758  0.3473  0.3668  0.1839
  105OSM   H16S10735   1.230   0.986   9.738  0.0157  1.3311 -4.0869
  105OSM   H16T10736   1.395   1.047   9.791 -0.1810 -0.4424  1.1648
  105OSM   C17S10737   1.312   1.162   9.632  0.6176  0.3555  0.2451
  105OSM   H17S10738   1.349   1.262   9.665 -0.1676  1.1436 -1.1329
  105OSM   H17T10739   1.216   1.179   9.579  0.9156  1.6110  0.0556
  105OSM   C18S10740   1.407   1.097   9.537 -0.3346  0.2000 -0.3770
  105OSM   H18S10741   1.343   1.011   9.508 -0.9064  0.3220  0.5041
  105OSM   H18T10742   1.496   1.048   9.584 -0.1286 -1.2336 -2.1183
  105OSM   H18U10743   1.435   1.162   9.451 -0.2029  0.4940 -0.1135
  105OSM    C1F10744   1.686   2.064  10.392  0.3900 -0.3696  0.0863
  105OSM     OF10745   1.806   2.048  10.421 -0.1032  0.0452 -0.0331
  105OSM    C2F10746   1.640   2.081  10.251 -0.6591 -0.1570  0.6784
  105OSM    H2F10747   1.635   2.191  10.239  1.1613  0.1886  2.5201
  105OSM    H2G10748   1.541   2.032  10.238 -0.9277  0.4091  0.6021
  105OSM    C3F10749   1.743   2.018  10.152 -0.4046  0.0044  0.2169
  105OSM    H3F10750   1.753   1.907  10.152  0.5786  0.0724 -0.7815
  105OSM    H3G10751   1.840   2.068  10.174 -1.8656  1.8345  2.9751
  105OSM    C4F10752   1.709   2.041  10.009 -0.1505 -0.5763 -0.3767
  105OSM    H4F10753   1.683   2.149  10.001  0.9290 -0.3942 -1.8001
  105OSM    H4G10754   1.611   1.993   9.992 -0.0477 -0.1621 -2.3337
  105OSM    C5F10755   1.812   1.998   9.907  0.6416 -0.4499  0.1539
  105OSM    H5F10756   1.822   1.887   9.902  4.5780 -0.1978 -3.8748
  105OSM    H5G10757   1.911   2.047   9.920  0.1657  0.9830 -1.3681
  105OSM    C6F10758   1.769   2.061   9.769 -0.1522 -0.0449  0.3415
  105OSM    H6F10759   1.761   2.170   9.785  1.3054  0.4515 -1.9059
  105OSM    H6G10760   1.663   2.036   9.749  0.0240  0.8875 -2.0254
  105OSM    C7F10761   1.851   2.028   9.641 -0.1570  0.2445 -0.8381
  105OSM    H7F10762   1.874   1.920   9.635 -1.0061  0.1367 -3.4410
  105OSM    H7G10763   1.950   2.074   9.666  1.9900 -4.0597 -0.5409
  105OSM    C8F10764   1.792   2.094   9.515  0.3357  0.4611 -0.0067
  105OSM    H8F10765   1.871   2.092   9.437  1.0045 -1.6061  0.6554
  105OSM    H8G10766   1.744   2.193   9.531 -1.0731 -0.1677 -0.1972
  105OSM    C9F10767   1.692   1.990   9.465 -0.8552 -0.2491 -0.0020
  105OSM    H9F10768   1.657   1.911   9.534 -0.5431 -1.4511 -1.1865
  105OSM   C10F10769   1.648   1.979   9.337  0.2694  0.1360  0.3091
  105OSM   H10F10770   1.576   1.897   9.321 -0.9594  1.2302  0.0860
  105OSM   C11F10771   1.686   2.053   9.217 -0.1606  1.0402  0.1687
  105OSM   H11F10772   1.749   1.989   9.151 -0.8595 -0.4480  0.9039
  105OSM   H11G10773   1.742   2.147   9.235 -0.4981  1.5970 -1.5363
  105OSM   C12F10774   1.572   2.079   9.122 -0.6107 -0.0189  0.3105
  105OSM   H12F10775   1.493   2.139   9.173 -1.2853 -0.6592  0.0380
  105OSM   H12G10776   1.508   1.991   9.099  0.4172 -0.7643  0.2274
  105OSM   C13F10777   1.616   2.142   8.986  0.0385  0.3641 -0.3150
  105OSM   H13F10778   1.676   2.065   8.933 -0.0671  0.7340 -0.9813
  105OSM   H13G10779   1.695   2.216   9.010  0.7119  0.0889 -1.6205
  105OSM   C14F10780   1.503   2.186   8.904 -0.0789 -0.3577 -0.0358
  105OSM   H14F10781   1.443   2.100   8.867 -1.3460  0.2457  0.5561
  105OSM   H14G10782   1.542   2.237   8.813 -0.6912 -0.0498 -0.1309
  105OSM   C15F10783   1.407   2.278   8.977  0.4346  0.0124  0.1677
  105OSM   H15F10784   1.461   2.359   9.031 -2.2967  0.3281  2.6504
  105OSM   H15G10785   1.347   2.225   9.053  0.9252  1.3220  1.5248
  105OSM   C16F10786   1.324   2.364   8.888 -0.4710 -0.3058  1.0041
  105OSM   H16F10787   1.290   2.298   8.805  0.8550  1.9226 -1.4244
  105OSM   H16G10788   1.385   2.441   8.838 -0.2535 -1.5869 -0.7878
  105OSM   C17F10789   1.205   2.426   8.972  0.0282 -0.4717 -1.1857
  105OSM   H17F10790   1.254   2.498   9.041  0.0940 -0.1518 -1.5611
  105OSM   H17G10791   1.157   2.342   9.027  0.1296 -1.0340 -1.9419
  105OSM   C18F10792   1.103   2.502   8.888 -0.2464  0.9102 -0.7803
  105OSM   H18F10793   1.157   2.596   8.867  0.4426  1.0267  1.3155
  105OSM   H18G10794   1.006   2.504   8.943  1.3681 -2.7182  2.6983
  105OSM   H18H10795   1.091   2.457   8.786 -1.8759 -1.9669  0.5544
  106OSM      N10796   3.525   6.228  10.536 -0.0868  0.3050  0.2811
  106OSM    C1510797   3.497   6.173  10.397  0.2289 -0.0968 -0.0193
  106OSM   H15A10798   3.431   6.236  10.340  0.2961 -0.7574 -0.8584
  106OSM   H15B10799   3.450   6.076  10.401 -0.7595  0.4188  1.4464
  106OSM   H15C10800   3.585   6.150  10.338  0.7807 -2.0660  1.4782
  106OSM    C1410801   3.596   6.124  10.624  0.1397  0.3258  0.1135
  106OSM   H14A10802   3.683   6.085  10.573  0.0127  1.5006 -1.0496
  106OSM   H14B10803   3.538   6.036  10.648 -0.3146  0.7091  0.4372
  106OSM   H14C10804   3.621   6.174  10.717  0.7181 -0.0524  0.1639
  106OSM    C1310805   3.613   6.349  10.518  0.1257 -0.0155 -0.4983
  106OSM   H13A10806   3.700   6.329  10.457  0.0424 -1.4293 -0.1865
  106OSM   H13B10807   3.641   6.402  10.608  0.8565  0.2629 -0.8805
  106OSM   H13C10808   3.560   6.418  10.453 -1.5086 -0.4219  0.3635
  106OSM    C1210809   3.394   6.277  10.600  0.5243  0.4543 -0.2756
  106OSM   H12A10810   3.317   6.202  10.593 -0.1472  1.2710 -2.6940
  106OSM   H12B10811   3.343   6.358  10.549 -1.7770 -0.7766 -0.0602
  106OSM    C1110812   3.400   6.335  10.747  0.5941  0.6948  0.0525
  106OSM   H11A10813   3.435   6.260  10.821  1.5257  0.2118 -0.8503
  106OSM   H11B10814   3.294   6.345  10.778  1.0142  0.0339  1.7837
  106OSM      P10815   3.422   6.599  10.748  0.1428  0.4405  0.1964
  106OSM    O1310816   3.354   6.614  10.875 -0.1020 -0.2952 -0.3240
  106OSM    O1410817   3.524   6.703  10.714 -0.1936 -0.0429  1.1100
  106OSM    O1110818   3.308   6.598  10.634 -0.3917  0.0575  0.4856
  106OSM    O1210819   3.483   6.455  10.748  0.1626 -0.0055 -0.7214
  106OSM    C1S10820   3.346   6.658  10.503 -0.0172  0.2515 -0.0040
  106OSM    H1S10821   3.430   6.607  10.453  0.4051 -0.4756  1.4060
  106OSM    H1T10822   3.362   6.767  10.516  0.0654  0.1631  0.6694
  106OSM     NF10823   3.255   6.626  10.269  0.8681 -0.3267  0.4741
  106OSM    HNF10824   3.217   6.703  10.218  0.7659 -0.3782  0.4735
  106OSM    C2S10825   3.220   6.623  10.411 -0.8069 -0.5235  0.2912
  106OSM    H2S10826   3.194   6.517  10.432  2.2142 -2.2822 -3.6207
  106OSM    C3S10827   3.103   6.715  10.450 -0.3611  0.1605  0.1768
  106OSM    H3S10828   3.133   6.820  10.432  0.3699  0.3330  2.1295
  106OSM     O310829   3.069   6.715  10.594 -0.1345  0.0308  0.2038
  106OSM    HO310830   3.149   6.672  10.625  0.0658  0.1258 -0.1746
  106OSM    C4S10831   2.989   6.679  10.362  0.2185 -0.2538 -0.0179
  106OSM    H4S10832   2.978   6.738  10.270 -1.2956 -0.0957  0.2385
  106OSM    C5S10833   2.909   6.574  10.388  0.0981  0.4388  0.0676
  106OSM    H5S10834   2.924   6.516  10.480  2.0253  0.8999  0.0805
  106OSM    C6S10835   2.790   6.507  10.308  0.1724  0.5115 -0.5257
  106OSM    H6S10836   2.695   6.564  10.315 -0.0824 -0.0207  0.5903
  106OSM    H6T10837   2.767   6.410  10.357 -0.7884  1.5250  1.1116
  106OSM    C7S10838   2.825   6.497  10.165  0.1385 -0.0490  0.2190
  106OSM    H7S10839   2.915   6.442  10.130 -0.7588 -0.2613 -1.8512
  106OSM    H7T10840   2.845   6.600  10.127 -0.4768  0.2393  0.6606
  106OSM    C8S10841   2.721   6.429  10.064 -0.5137 -0.3215 -0.4968
  106OSM    H8S10842   2.767   6.441   9.963  0.0568  2.6005  0.0475
  106OSM    H8T10843   2.633   6.496  10.065  0.9471  1.6744 -0.8328
  106OSM    C9S10844   2.687   6.284  10.082  0.4837 -0.6490  0.2405
  106OSM    H9S10845   2.622   6.285  10.172 -0.5228  1.6487 -0.4327
  106OSM    H9T10846   2.780   6.229  10.108  0.6981 -0.8212 -0.8619
  106OSM   C10S10847   2.616   6.216   9.969 -0.1771 -0.1433  0.9694
  106OSM   H10S10848   2.531   6.275   9.931 -0.6289 -1.3773 -0.0342
  106OSM   H10T10849   2.567   6.120   9.997 -1.0091 -0.2792 -0.8516
  106OSM   C11S10850   2.704   6.174   9.852  0.1578  0.1088 -0.2600
  106OSM   H11S10851   2.796   6.116   9.875  0.5297  0.4808 -0.7774
  106OSM   H11T10852   2.742   6.267   9.803 -0.3415 -0.2588 -1.3716
  106OSM   C12S10853   2.615   6.115   9.741 -0.7098 -0.4369 -0.3771
  106OSM   H12S10854   2.506   6.133   9.739 -0.6367  0.0957  0.1033
  106OSM   H12T10855   2.624   6.008   9.772  4.2868 -0.4770 -1.0681
  106OSM   C13S10856   2.677   6.144   9.608 -0.6462 -0.2542  0.5324
  106OSM   H13S10857   2.784   6.115   9.602 -0.6611 -0.0442 -1.0674
  106OSM   H13T10858   2.674   6.254   9.593  0.7563 -0.1624  0.7530
  106OSM   C14S10859   2.603   6.083   9.491 -0.3177  0.0639 -0.0209
  106OSM   H14S10860   2.496   6.109   9.489 -0.9438 -2.0731 -3.1355
  106OSM   H14T10861   2.597   5.972   9.502 -1.0435 -0.0899 -1.6339
  106OSM   C15S10862   2.672   6.131   9.371 -0.0122  0.1671  0.4672
  106OSM   H15S10863   2.772   6.178   9.384  0.6493 -1.0505 -0.0438
  106OSM   H15T10864   2.606   6.195   9.308  1.4624  0.3226 -0.9942
  106OSM   C16S10865   2.702   6.001   9.282  0.2750  0.3043 -0.2642
  106OSM   H16S10866   2.600   5.966   9.258 -0.7672 -0.1453  4.0317
  106OSM   H16T10867   2.743   5.924   9.351  2.6851  1.2472 -0.5096
  106OSM   C17S10868   2.788   6.030   9.161 -0.3156  0.2264 -0.6498
  106OSM   H17S10869   2.861   6.112   9.178 -0.9274  1.1227 -2.1537
  106OSM   H17T10870   2.715   6.067   9.086 -1.3416  0.4302  0.4221
  106OSM   C18S10871   2.859   5.909   9.100 -0.1803  0.2418 -0.1928
  106OSM   H18S10872   2.904   5.942   9.004  1.0119  2.0139  0.9185
  106OSM   H18T10873   2.786   5.827   9.084  0.1085 -0.0440 -0.0608
  106OSM   H18U10874   2.943   5.867   9.159  2.4137  0.1363 -3.6624
  106OSM    C1F10875   3.336   6.543  10.206 -0.1530  0.4060  0.0046
  106OSM     OF10876   3.383   6.448  10.273 -0.3548  0.4157  0.1799
  106OSM    C2F10877   3.349   6.563  10.050  0.0058 -0.0636  0.3315
  106OSM    H2F10878   3.288   6.651  10.024 -0.8981 -0.6258  0.5151
  106OSM    H2G10879   3.291   6.479  10.006 -1.9211  2.0285 -1.2918
  106OSM    C3F10880   3.491   6.563   9.995 -0.1370 -0.2382 -0.4403
  106OSM    H3F10881   3.551   6.482  10.042  0.7102  0.6189 -0.0030
  106OSM    H3G10882   3.537   6.657  10.032 -0.0250 -0.4259 -0.0983
  106OSM    C4F10883   3.501   6.547   9.845  0.3741 -0.0954  0.2739
  106OSM    H4F10884   3.443   6.461   9.806  0.0517  0.2768 -0.0815
  106OSM    H4G10885   3.606   6.540   9.809  1.1013 -0.5447  2.3508
  106OSM    C5F10886   3.463   6.659   9.746  0.0722  0.1370  0.6999
  106OSM    H5F10887   3.526   6.750   9.760 -0.4951  0.9163 -1.4363
  106OSM    H5G10888   3.358   6.694   9.756 -0.9088 -2.2328 -0.6786
  106OSM    C6F10889   3.475   6.602   9.599  0.0005  0.2473  0.0443
  106OSM    H6F10890   3.411   6.513   9.582 -0.7114  0.6281  0.6743
  106OSM    H6G10891   3.579   6.567   9.577 -1.1191 -1.4578 -3.2760
  106OSM    C7F10892   3.416   6.711   9.502 -0.4286  0.4769  0.6394
  106OSM    H7F10893   3.473   6.807   9.509 -1.8001  1.5546 -1.6420
  106OSM    H7G10894   3.309   6.721   9.530  0.0952 -1.1495  3.7237
  106OSM    C8F10895   3.419   6.654   9.355 -0.3731  0.0452 -0.7173
  106OSM    H8F10896   3.374   6.553   9.351 -2.1114  0.7145  0.6705
  106OSM    H8G10897   3.525   6.647   9.323 -0.2130 -1.4917  0.0599
  106OSM    C9F10898   3.330   6.741   9.276 -0.0393  0.2460 -0.8682
  106OSM    H9F10899   3.236   6.760   9.332 -0.5175 -1.2852 -1.1000
  106OSM   C10F10900   3.346   6.787   9.156 -0.8056 -0.2154 -0.1071
  106OSM   H10F10901   3.275   6.863   9.120 -0.3085  0.2804 -0.0587
  106OSM   C11F10902   3.460   6.772   9.052 -0.3655 -0.5504  0.3641
  106OSM   H11F10903   3.557   6.759   9.105  0.4048  1.2367 -0.5482
  106OSM   H11G10904   3.481   6.862   8.992 -1.5013  0.0664  0.8693
  106OSM   C12F10905   3.433   6.655   8.954  0.5986  0.0838  0.0374
  106OSM   H12F10906   3.405   6.568   9.016  1.8583  1.1577  2.2299
  106OSM   H12G10907   3.520   6.621   8.893  0.0024  0.5690 -1.1226
  106OSM   C13F10908   3.310   6.687   8.860 -0.0881  0.6998 -0.3799
  106OSM   H13F10909   3.339   6.775   8.798 -1.1434 -0.2157 -2.2729
  106OSM   H13G10910   3.225   6.709   8.928  0.2746 -2.9064  1.4752
  106OSM   C14F10911   3.270   6.567   8.772  1.0519 -0.2382 -0.5042
  106OSM   H14F10912   3.361   6.516   8.735  1.1226  0.2030 -0.9478
  106OSM   H14G10913   3.214   6.591   8.679 -0.5493 -2.9541 -0.3490
  106OSM   C15F10914   3.190   6.465   8.856 -0.6847  0.7579  0.0311
  106OSM   H15F10915   3.094   6.512   8.886 -1.5710 -0.9438 -0.0515
  106OSM   H15G10916   3.239   6.444   8.953  0.0093  1.6299 -0.1077
  106OSM   C16F10917   3.155   6.340   8.769  0.0416 -0.8894 -0.7153
  106OSM   H16F10918   3.243   6.275   8.749  1.6008  0.8761  0.1308
  106OSM   H16G10919   3.119   6.384   8.674  1.0995  3.2331  0.5793
  106OSM   C17F10920   3.050   6.251   8.835 -0.5139 -0.2979 -0.4079
  106OSM   H17F10921   2.948   6.292   8.815  0.3001  1.1123 -1.9552
  106OSM   H17G10922   3.064   6.245   8.945 -0.9094  1.2535 -0.2406
  106OSM   C18F10923   3.044   6.114   8.770  0.2895  0.4266 -0.0400
  106OSM   H18F10924   3.037   6.134   8.661 -0.5889 -0.2353 -0.1052
  106OSM   H18G10925   2.949   6.065   8.798 -0.2152 -0.3395 -2.8490
  106OSM   H18H10926   3.128   6.044   8.788  0.6972  0.9349  0.0770
  107OSM      N10927   3.119   4.148  11.463 -0.3120  0.1743  0.6781
  107OSM    C1510928   3.112   4.230  11.588  0.3310 -0.5657  0.0961
  107OSM   H15A10929   3.091   4.168  11.675 -0.7042 -0.9485 -0.4011
  107OSM   H15B10930   3.034   4.304  11.572  1.2234  0.5484  0.7695
  107OSM   H15C10931   3.206   4.280  11.606 -0.6134  0.6707  1.9403
  107OSM    C1410932   3.205   4.024  11.487  0.1129  0.1045 -1.0260
  107OSM   H14A10933   3.190   3.942  11.419  0.7469  0.4589 -1.6049
  107OSM   H14B10934   3.193   3.984  11.587  0.6993 -0.5428 -1.2098
  107OSM   H14C10935   3.308   4.053  11.475 -0.1290  0.9503 -1.1857
  107OSM    C1310936   2.974   4.110  11.436  0.6351  0.7989 -0.2880
  107OSM   H13A10937   2.909   4.195  11.443 -1.3844 -0.8328  3.1174
  107OSM   H13B10938   2.942   4.040  11.511  1.3606  0.9118  0.1420
  107OSM   H13C10939   2.966   4.053  11.345  1.0353  2.1284 -1.1874
  107OSM    C1210940   3.180   4.247  11.352  0.5346  0.1831 -1.0088
  107OSM   H12A10941   3.278   4.264  11.394  0.1399 -2.0860  1.0478
  107OSM   H12B10942   3.115   4.334  11.346 -1.0031 -0.9234 -1.1873
  107OSM    C1110943   3.184   4.191  11.208 -0.0218  0.3147  0.9158
  107OSM   H11A10944   3.220   4.270  11.138  0.7903 -0.0546  0.9034
  107OSM   H11B10945   3.082   4.171  11.169 -0.0142  0.2236  0.9420
  107OSM      P10946   3.408   4.042  11.211 -0.1216  0.0579  0.3030
  107OSM    O1310947   3.470   4.132  11.310  0.5784  0.6380 -0.5322
  107OSM    O1410948   3.429   3.895  11.225  0.1620 -0.2128  0.2236
  107OSM    O1110949   3.473   4.079  11.071  0.0405 -0.2919  0.0192
  107OSM    O1210950   3.255   4.071  11.193 -0.1420 -0.4264 -0.1479
  107OSM    C1S10951   3.417   4.029  10.953 -0.7183 -0.1422  0.5000
  107OSM    H1S10952   3.313   4.065  10.934 -1.2630 -1.1869  1.3710
  107OSM    H1T10953   3.421   3.918  10.954 -0.0764 -0.1788 -1.5625
  107OSM     NF10954   3.433   4.077  10.698  0.5479 -0.3277 -0.3527
  107OSM    HNF10955   3.442   3.997  10.640  1.2547 -1.1069  0.7716
  107OSM    C2S10956   3.504   4.068  10.828  0.0814 -0.0589  0.4965
  107OSM    H2S10957   3.541   4.173  10.839  1.7387 -0.5838  0.2472
  107OSM    C3S10958   3.628   3.975  10.822  0.2106 -0.1746 -0.8810
  107OSM    H3S10959   3.613   3.865  10.813 -1.5979 -0.0271 -0.2076
  107OSM     O310960   3.708   3.987  10.939  0.0542  0.0773  0.5687
  107OSM    HO310961   3.641   4.018  11.000 -0.0974  0.4379  0.2213
  107OSM    C4S10962   3.708   4.013  10.700  0.5260 -0.2601  0.1693
  107OSM    H4S10963   3.690   3.946  10.615 -2.8875 -1.4866  1.6752
  107OSM    C5S10964   3.803   4.106  10.676 -0.1314 -0.1339  0.4169
  107OSM    H5S10965   3.860   4.159  10.754  1.5489  1.0575 -1.5201
  107OSM    C6S10966   3.870   4.119  10.545  0.1676 -0.2505  0.3357
  107OSM    H6S10967   3.961   4.056  10.549  0.0449 -0.4177  0.5083
  107OSM    H6T10968   3.900   4.224  10.528  1.6470 -0.9557 -1.9974
  107OSM    C7S10969   3.796   4.074  10.413  0.3759  0.2284  0.5592
  107OSM    H7S10970   3.699   4.129  10.410 -0.5808 -1.3727  0.8072
  107OSM    H7T10971   3.776   3.965  10.422 -0.5993  0.1775 -1.5256
  107OSM    C8S10972   3.877   4.107  10.290  0.4320 -0.0906 -0.2428
  107OSM    H8S10973   3.981   4.081  10.321  0.0603 -2.0316 -0.5106
  107OSM    H8T10974   3.863   4.217  10.280  0.9204  0.1349  1.2727
  107OSM    C9S10975   3.819   4.037  10.158 -0.2529 -0.0981  0.4422
  107OSM    H9S10976   3.714   4.066  10.139  0.2197  0.9924 -0.6634
  107OSM    H9T10977   3.814   3.927  10.177 -0.2467 -0.3371 -0.8354
  107OSM   C10S10978   3.889   4.083  10.026  0.3720  0.7789  0.8515
  107OSM   H10S10979   3.998   4.066  10.015  0.3980  1.2404  0.3581
  107OSM   H10T10980   3.889   4.191  10.002 -1.6409 -0.0582 -4.2995
  107OSM   C11S10981   3.811   4.025   9.907  0.1852  1.1070  0.2862
  107OSM   H11S10982   3.705   4.057   9.904  0.6687  2.8587  1.0326
  107OSM   H11T10983   3.818   3.914   9.908  3.3416  1.1397 -2.4033
  107OSM   C12S10984   3.877   4.073   9.774 -0.0291 -0.1980 -0.1374
  107OSM   H12S10985   3.970   4.017   9.755 -0.7459 -0.8084 -2.0715
  107OSM   H12T10986   3.900   4.182   9.773  0.3468 -0.2774 -1.5030
  107OSM   C13S10987   3.770   4.053   9.661 -0.3891 -0.1326  0.1170
  107OSM   H13S10988   3.678   4.113   9.677  0.3065  0.7785  0.9011
  107OSM   H13T10989   3.725   3.952   9.656 -2.1977  0.6793 -1.3057
  107OSM   C14S10990   3.839   4.068   9.522  0.0131 -0.2774 -0.0487
  107OSM   H14S10991   3.920   3.992   9.522  1.3389  1.0583  1.5623
  107OSM   H14T10992   3.881   4.171   9.521  0.7886 -0.4604 -4.1493
  107OSM   C15S10993   3.736   4.048   9.403  0.4857  0.4198  0.1305
  107OSM   H15S10994   3.636   4.091   9.424  0.8251  0.7682  1.0957
  107OSM   H15T10995   3.709   3.940   9.395  0.2186  0.4821  0.1763
  107OSM   C16S10996   3.790   4.098   9.265 -0.2962  0.2793 -0.4367
  107OSM   H16S10997   3.844   4.193   9.285 -0.2615 -0.1051  1.4867
  107OSM   H16T10998   3.702   4.115   9.199 -0.7874 -2.5076 -0.6457
  107OSM   C17S10999   3.883   3.998   9.189 -0.3308  0.7180  0.5875
  107OSM   H17S11000   3.856   3.999   9.081 -1.2606  0.8470  0.8110
  107OSM   H17T11001   3.861   3.892   9.214  1.9096  0.0075 -0.2006
  107OSM   C18S11002   4.030   4.029   9.221  0.2317 -0.5153  0.0037
  107OSM   H18S11003   4.091   3.942   9.187  1.8095  0.6370 -0.2629
  107OSM   H18T11004   4.051   4.058   9.326 -1.7900 -1.1437  0.6221
  107OSM   H18U11005   4.052   4.118   9.157 -4.3786  1.0068  0.1566
  107OSM    C1F11006   3.342   4.167  10.664  0.3920  0.3005  0.8252
  107OSM     OF11007   3.329   4.268  10.732  0.9665  0.5975 -0.5878
  107OSM    C2F11008   3.262   4.145  10.539  0.1981 -0.3857  0.1396
  107OSM    H2F11009   3.182   4.070  10.558 -2.5097  2.3080  0.2485
  107OSM    H2G11010   3.323   4.082  10.470 -1.9669 -3.3763  0.7607
  107OSM    C3F11011   3.200   4.273  10.480 -0.3247 -0.1096 -0.4923
  107OSM    H3F11012   3.279   4.346  10.454 -1.5795  1.2283 -0.6489
  107OSM    H3G11013   3.132   4.326  10.550  0.8644  1.0555 -0.1901
  107OSM    C4F11014   3.127   4.241  10.349 -0.3665  0.0529 -0.0035
  107OSM    H4F11015   3.068   4.331  10.317 -0.1487 -0.0049 -0.5844
  107OSM    H4G11016   3.055   4.158  10.366 -0.2511 -0.1704 -0.5764
  107OSM    C5F11017   3.217   4.196  10.233  0.0783 -0.7954 -0.2315
  107OSM    H5F11018   3.278   4.107  10.263 -1.1914 -2.2026 -1.6473
  107OSM    H5G11019   3.285   4.277  10.199  0.6128 -2.3517 -3.2287
  107OSM    C6F11020   3.144   4.150  10.108 -0.1667 -0.3774  0.2762
  107OSM    H6F11021   3.070   4.225  10.074 -1.5284 -1.4835  0.6905
  107OSM    H6G11022   3.100   4.050  10.130  2.8094 -1.6620  0.9132
  107OSM    C7F11023   3.230   4.112   9.990  0.1271 -0.0589  0.7579
  107OSM    H7F11024   3.291   4.024  10.020  0.3837 -0.9796 -2.1509
  107OSM    H7G11025   3.308   4.186   9.966  0.5450 -1.5678 -3.3840
  107OSM    C8F11026   3.166   4.064   9.857 -0.2493  0.0310  0.1407
  107OSM    H8F11027   3.084   3.991   9.875 -0.5635  0.4455  0.4215
  107OSM    H8G11028   3.251   4.007   9.814  0.6620  0.1086  1.7598
  107OSM    C9F11029   3.112   4.178   9.775  0.3716 -0.5043  0.2748
  107OSM    H9F11030   3.046   4.249   9.826 -1.9793  0.7095 -4.0145
  107OSM   C10F11031   3.146   4.207   9.647 -0.0902 -0.1973 -0.1200
  107OSM   H10F11032   3.111   4.303   9.606  1.8072  0.7395  0.3359
  107OSM   C11F11033   3.241   4.132   9.556  0.2931  0.0411  0.2407
  107OSM   H11F11034   3.268   4.031   9.594 -0.0181 -0.0779  0.1437
  107OSM   H11G11035   3.338   4.184   9.540  0.6319 -0.9879 -1.2904
  107OSM   C12F11036   3.169   4.083   9.430  0.4138 -0.4513  0.3868
  107OSM   H12F11037   3.094   4.006   9.458 -0.4803  0.0141 -0.6329
  107OSM   H12G11038   3.248   4.038   9.367 -0.8348 -1.5976 -0.4367
  107OSM   C13F11039   3.109   4.186   9.333  0.3162  0.3739  0.1791
  107OSM   H13F11040   3.050   4.255   9.397  1.6766  0.8628  0.9485
  107OSM   H13G11041   3.043   4.141   9.255 -0.6314  1.0693  0.5507
  107OSM   C14F11042   3.226   4.262   9.260 -0.2494 -1.0101 -0.4783
  107OSM   H14F11043   3.287   4.195   9.196  0.8743  0.5428 -1.0987
  107OSM   H14G11044   3.300   4.289   9.338 -0.1779  2.6875 -1.6470
  107OSM   C15F11045   3.185   4.388   9.187  0.0628 -0.2881  0.0776
  107OSM   H15F11046   3.278   4.447   9.171 -0.4776  0.2378 -1.2409
  107OSM   H15G11047   3.120   4.453   9.250  0.5550  1.3218 -1.0310
  107OSM   C16F11048   3.119   4.362   9.043  0.2277  1.0625 -0.0732
  107OSM   H16F11049   3.076   4.454   8.998 -1.1710  0.7991  0.6583
  107OSM   H16G11050   3.031   4.296   9.052  1.1411 -0.2583 -0.5075
  107OSM   C17F11051   3.224   4.311   8.943  0.6623  0.4001 -0.0582
  107OSM   H17F11052   3.287   4.231   8.989 -0.8466 -1.1938 -0.6742
  107OSM   H17G11053   3.298   4.390   8.917  0.9817  0.5869  1.2997
  107OSM   C18F11054   3.171   4.254   8.809  0.1077  0.5321  0.3289
  107OSM   H18F11055   3.105   4.166   8.825  3.0575 -1.9523 -0.3096
  107OSM   H18G11056   3.251   4.200   8.755 -1.9635 -2.4228 -0.0208
  107OSM   H18H11057   3.112   4.327   8.750 -0.7560 -0.0473  0.4512
  108OSM      N11058   1.433   2.300  11.044  0.0696 -0.3652 -0.2890
  108OSM    C1511059   1.445   2.338  10.899 -0.1921 -0.0170  0.5303
  108OSM   H15A11060   1.453   2.444  10.885 -3.1607  0.1246 -0.7864
  108OSM   H15B11061   1.358   2.299  10.848 -0.2252 -0.7697  1.1352
  108OSM   H15C11062   1.526   2.277  10.860 -0.6243 -1.4876  1.7950
  108OSM    C1411063   1.571   2.311  11.099 -0.1748  0.6943  0.7284
  108OSM   H14A11064   1.636   2.238  11.054 -0.5696 -0.0004  1.2681
  108OSM   H14B11065   1.577   2.298  11.206 -1.0495  0.8472  0.8037
  108OSM   H14C11066   1.614   2.408  11.076  0.1967  0.6616  1.2709
  108OSM    C1311067   1.344   2.399  11.118 -0.3656 -0.0902 -0.2379
  108OSM   H13A11068   1.329   2.366  11.219  2.9819 -0.9558  0.0855
  108OSM   H13B11069   1.248   2.393  11.068 -0.8587 -2.4428  0.8637
  108OSM   H13C11070   1.383   2.500  11.120 -1.6732  0.4336  0.2828
  108OSM    C1211071   1.389   2.160  11.057 -0.1984 -0.0081  0.0323
  108OSM   H12A11072   1.403   2.126  11.158 -3.3878  0.2653  0.6917
  108OSM   H12B11073   1.452   2.098  10.996 -0.4477 -0.6406  0.4101
  108OSM    C1111074   1.245   2.129  11.021  0.2497  0.0667 -0.0118
  108OSM   H11A11075   1.184   2.180  11.098  4.4065  2.7739  1.8495
  108OSM   H11B11076   1.224   2.022  11.045 -2.5673  0.5593  0.0255
  108OSM      P11077   1.067   2.120  10.823 -0.1934  0.2222  0.1343
  108OSM    O1311078   1.064   1.976  10.800  0.5464  0.0533  0.2161
  108OSM    O1411079   0.970   2.182  10.914  0.0021  0.3591  0.5187
  108OSM    O1111080   1.063   2.190  10.684  0.4096  0.6458  0.3551
  108OSM    O1211081   1.213   2.161  10.881  0.2847  0.6580 -0.5348
  108OSM    C1S11082   1.172   2.268  10.631 -0.1597  0.0650  0.2729
  108OSM    H1S11083   1.256   2.197  10.613 -2.5018 -2.9665  0.5989
  108OSM    H1T11084   1.194   2.359  10.691 -0.5589  0.3027  0.0599
  108OSM     NF11085   1.264   2.401  10.454 -0.4479  0.0028  0.6020
  108OSM    HNF11086   1.261   2.500  10.460 -0.2514  0.0101  0.5620
  108OSM    C2S11087   1.142   2.331  10.490 -0.6119 -0.5616 -0.8210
  108OSM    H2S11088   1.138   2.245  10.419  1.9780 -0.6275 -0.9924
  108OSM    C3S11089   1.008   2.409  10.489  0.4302  0.4336 -0.8898
  108OSM    H3S11090   1.037   2.510  10.525  1.1086 -0.7083  2.0464
  108OSM     O311091   0.917   2.361  10.580  0.9893  0.4531 -0.1908
  108OSM    HO311092   0.971   2.302  10.633  1.2751  0.7305 -0.1746
  108OSM    C4S11093   0.943   2.416  10.355 -0.5780  0.5377 -0.1892
  108OSM    H4S11094   0.920   2.324  10.299 -0.1526  1.3096 -1.6931
  108OSM    C5S11095   0.910   2.534  10.300 -0.7413  0.1789 -0.1347
  108OSM    H5S11096   0.922   2.620  10.367 -0.7814 -0.9660  1.3770
  108OSM    C6S11097   0.855   2.550  10.167  0.2401 -0.4048  0.3355
  108OSM    H6S11098   0.786   2.637  10.161  1.9737  1.0335  0.5761
  108OSM    H6T11099   0.792   2.462  10.142 -1.5070  1.1047 -0.7678
  108OSM    C7S11100   0.968   2.562  10.057  0.4606  0.0292  0.9786
  108OSM    H7S11101   1.011   2.461  10.040 -0.8578 -0.4803  0.5592
  108OSM    H7T11102   1.039   2.645  10.076  0.1801  1.0687 -2.0209
  108OSM    C8S11103   0.900   2.600   9.919 -0.6000  0.3091  0.4647
  108OSM    H8S11104   0.847   2.697   9.934 -3.6706 -1.5193  2.4069
  108OSM    H8T11105   0.822   2.525   9.896  1.5689 -1.6098 -1.0892
  108OSM    C9S11106   1.004   2.620   9.801 -0.4219 -0.1971 -0.5170
  108OSM    H9S11107   1.048   2.518   9.800  1.0485  0.3880  0.5341
  108OSM    H9T11108   1.082   2.693   9.832  0.0719  0.0617 -2.2920
  108OSM   C10S11109   0.943   2.631   9.667  0.6001 -0.2688  0.0444
  108OSM   H10S11110   0.880   2.723   9.666 -2.1510 -2.0101 -0.9867
  108OSM   H10T11111   0.875   2.544   9.649 -0.9557  1.0616 -0.7915
  108OSM   C11S11112   1.045   2.649   9.558  0.1441  0.2986 -0.0912
  108OSM   H11S11113   1.115   2.564   9.550 -1.4065 -0.9866 -0.5139
  108OSM   H11T11114   1.103   2.735   9.599  0.1883 -0.2446  1.0278
  108OSM   C12S11115   0.975   2.686   9.424  0.0974  0.6536 -0.7513
  108OSM   H12S11116   0.880   2.742   9.438 -2.2537 -3.1161 -0.1036
  108OSM   H12T11117   0.926   2.598   9.378 -0.0337  0.6839 -0.6712
  108OSM   C13S11118   1.071   2.734   9.312  0.3898  0.1527  0.0332
  108OSM   H13S11119   1.116   2.644   9.264 -0.0311  0.3899 -0.8336
  108OSM   H13T11120   1.150   2.797   9.356 -0.6665  0.8476  0.9959
  108OSM   C14S11121   0.991   2.808   9.201  0.4293  0.4069 -0.2514
  108OSM   H14S11122   0.982   2.915   9.231  2.1334  0.5478 -0.1488
  108OSM   H14T11123   0.891   2.760   9.191  0.4699 -0.2023  1.7077
  108OSM   C15S11124   1.079   2.797   9.082  0.5985  0.4317 -0.0697
  108OSM   H15S11125   1.098   2.688   9.075  1.0953  0.4776  0.5033
  108OSM   H15T11126   1.177   2.848   9.095  0.5343  1.0951 -1.8621
  108OSM   C16S11127   1.023   2.856   8.955  0.9582  0.1033 -0.5724
  108OSM   H16S11128   1.094   2.848   8.870  2.0482 -1.8590  0.4370
  108OSM   H16T11129   1.019   2.967   8.961 -0.0976  0.0165  0.9203
  108OSM   C17S11130   0.890   2.801   8.925  0.1705 -0.2710  0.6021
  108OSM   H17S11131   0.827   2.847   9.004  0.9478 -0.0616  1.1045
  108OSM   H17T11132   0.888   2.691   8.940  2.1350 -0.3050  0.8321
  108OSM   C18S11133   0.847   2.833   8.783 -0.0369  0.1906  0.4230
  108OSM   H18S11134   0.859   2.941   8.760  1.2479 -0.4056 -2.0543
  108OSM   H18T11135   0.738   2.818   8.765 -0.1247  1.4978 -0.3056
  108OSM   H18U11136   0.916   2.781   8.713  1.4578 -1.4028  2.9672
  108OSM    C1F11137   1.384   2.347  10.429  0.5250  0.8241  0.5564
  108OSM     OF11138   1.385   2.226  10.393  0.0596  0.6587  0.2297
  108OSM    C2F11139   1.514   2.426  10.433 -0.0746  0.0814  0.3904
  108OSM    H2F11140   1.600   2.356  10.435  0.6989  1.0051  0.0251
  108OSM    H2G11141   1.519   2.487  10.526  3.9460  3.7626 -1.8946
  108OSM    C3F11142   1.531   2.523  10.308  0.3120  0.0293 -0.0236
  108OSM    H3F11143   1.638   2.546  10.293  0.0166  0.5553 -1.4547
  108OSM    H3G11144   1.482   2.622  10.323 -0.0119  0.0742 -1.2512
  108OSM    C4F11145   1.471   2.474  10.177 -0.8335 -0.0155  0.3297
  108OSM    H4F11146   1.361   2.458  10.183 -1.5608  3.3520 -1.2578
  108OSM    H4G11147   1.521   2.382  10.142 -1.4389 -0.3574  0.3552
  108OSM    C5F11148   1.485   2.575  10.058  0.6103  0.1066 -0.2481
  108OSM    H5F11149   1.591   2.607  10.051  0.0643  2.1412  0.2904
  108OSM    H5G11150   1.425   2.666  10.078 -0.3751 -0.5765  0.0144
  108OSM    C6F11151   1.434   2.514   9.927 -0.6262 -0.2689 -0.0958
  108OSM    H6F11152   1.325   2.501   9.940 -0.7647 -0.9039 -1.6964
  108OSM    H6G11153   1.481   2.414   9.913 -0.5381 -0.0160 -1.8416
  108OSM    C7F11154   1.441   2.598   9.793  0.6744  0.5871 -0.8588
  108OSM    H7F11155   1.546   2.629   9.777  1.5601 -1.5776  0.2828
  108OSM    H7G11156   1.390   2.694   9.816  1.1433  0.4809  0.7470
  108OSM    C8F11157   1.370   2.530   9.678  0.0204 -0.1326 -0.5438
  108OSM    H8F11158   1.346   2.616   9.611  0.6192 -0.5712 -1.3370
  108OSM    H8G11159   1.279   2.486   9.724  0.5180 -0.3555  0.2294
  108OSM    C9F11160   1.439   2.416   9.603 -0.3254  0.0632  0.1697
  108OSM    H9F11161   1.487   2.335   9.659 -0.4715 -1.0445 -1.2466
  108OSM   C10F11162   1.455   2.422   9.467  0.4363 -0.3384 -0.2066
  108OSM   H10F11163   1.519   2.344   9.423 -0.8024 -0.8949 -1.0956
  108OSM   C11F11164   1.415   2.528   9.369  0.5227  0.6353  0.2776
  108OSM   H11F11165   1.386   2.620   9.425 -1.0490  0.2723  0.0881
  108OSM   H11G11166   1.332   2.500   9.302  1.0990 -1.1510  0.2567
  108OSM   C12F11167   1.543   2.558   9.289 -0.1330 -1.0122 -0.5986
  108OSM   H12F11168   1.594   2.464   9.259  0.4060 -0.9834  0.2156
  108OSM   H12G11169   1.609   2.616   9.356 -2.6025  0.9962  0.2890
  108OSM   C13F11170   1.516   2.654   9.170  0.0951 -0.4267  0.1317
  108OSM   H13F11171   1.451   2.596   9.100  0.1244  0.7572 -0.8987
  108OSM   H13G11172   1.609   2.674   9.114 -0.6276  0.0730 -0.9254
  108OSM   C14F11173   1.468   2.796   9.205  0.8400  0.7232 -0.0964
  108OSM   H14F11174   1.515   2.834   9.299 -1.3997  0.2808  1.2648
  108OSM   H14G11175   1.359   2.792   9.226  1.2082  3.0394  2.9360
  108OSM   C15F11176   1.512   2.896   9.100  0.2385 -0.1157  0.1122
  108OSM   H15F11177   1.617   2.868   9.075 -0.2928 -0.2467 -2.1759
  108OSM   H15G11178   1.497   3.002   9.130  0.9091  0.8797 -2.7652
  108OSM   C16F11179   1.418   2.893   8.979  0.4928  0.1652 -0.4211
  108OSM   H16F11180   1.319   2.939   8.995  0.2638 -0.0302 -1.2253
  108OSM   H16G11181   1.405   2.787   8.949 -1.0530 -0.1806  1.3480
  108OSM   C17F11182   1.480   2.980   8.866  0.4987 -0.1642  0.4677
  108OSM   H17F11183   1.575   2.930   8.837  0.7984  1.1390 -0.9036
  108OSM   H17G11184   1.488   3.083   8.905  1.3093 -0.6651  1.6617
  108OSM   C18F11185   1.385   2.979   8.738  0.5424  0.3076 -0.1601
  108OSM   H18F11186   1.294   3.038   8.757  1.1769  0.8102  1.5099
  108OSM   H18G11187   1.355   2.876   8.708  1.8677  0.6119 -2.8262
  108OSM   H18H11188   1.443   3.032   8.659  0.8183  2.3842  1.3715
  109OSM      N11189   1.048   4.013  10.924 -0.8467  0.3262 -0.4419
  109OSM    C1511190   1.100   3.905  11.012 -0.7161  0.0402  0.1158
  109OSM   H15A11191   1.207   3.916  11.026 -0.5601 -1.7343  0.5460
  109OSM   H15B11192   1.089   3.808  10.965  0.1945  0.9908 -2.2757
  109OSM   H15C11193   1.062   3.914  11.112 -1.6145 -1.4496 -0.0542
  109OSM    C1411194   0.903   4.019  10.930 -0.0282 -0.2273 -0.8650
  109OSM   H14A11195   0.857   3.928  10.894  0.2588 -1.3130  1.3233
  109OSM   H14B11196   0.866   4.100  10.869  0.0879  1.3794  1.0798
  109OSM   H14C11197   0.866   4.033  11.031  2.2230  2.0759 -0.2559
  109OSM    C1311198   1.097   4.146  10.974  0.4505 -0.6735 -0.1642
  109OSM   H13A11199   1.059   4.233  10.922  0.6748 -0.1203  0.5811
  109OSM   H13B11200   1.203   4.146  10.953  0.0948 -0.9131 -2.1690
  109OSM   H13C11201   1.070   4.168  11.076 -1.4973  0.8488 -0.9386
  109OSM    C1211202   1.093   4.012  10.777 -0.3213  0.5522  0.1910
  109OSM   H12A11203   1.028   4.077  10.720 -0.0389  1.4746  0.8983
  109OSM   H12B11204   1.080   3.910  10.742 -0.3504  1.4885 -2.8276
  109OSM    C1111205   1.240   4.058  10.745  0.8748 -0.5173  0.4566
  109OSM   H11A11206   1.252   4.166  10.770  0.0356  0.0533 -1.4708
  109OSM   H11B11207   1.253   4.038  10.637 -1.9380 -1.8509  0.3010
  109OSM      P11208   1.376   3.840  10.777  0.2643  0.4323  0.3034
  109OSM    O1311209   1.480   3.796  10.874  0.1700 -0.4408 -0.1880
  109OSM    O1411210   1.261   3.752  10.756  0.3547 -0.4911  0.1732
  109OSM    O1111211   1.454   3.886  10.641  0.3980 -0.2466 -0.9084
  109OSM    O1211212   1.322   3.978  10.827 -0.3540  0.9138  0.6770
  109OSM    C1S11213   1.557   3.992  10.657 -0.8744 -0.6718  0.5652
  109OSM    H1S11214   1.631   3.956  10.732  0.6674  2.4399  0.6672
  109OSM    H1T11215   1.514   4.090  10.687 -2.7539 -1.3106  0.0949
  109OSM     NF11216   1.760   4.096  10.538  0.3386 -0.6111  0.7283
  109OSM    HNF11217   1.755   4.195  10.527  1.1200 -0.5796  0.6424
  109OSM    C2S11218   1.634   4.023  10.526 -0.0211  0.3815  0.2777
  109OSM    H2S11219   1.670   3.929  10.481 -1.2642  0.4089 -0.8485
  109OSM    C3S11220   1.541   4.104  10.430 -0.0945 -0.0269 -0.3833
  109OSM    H3S11221   1.537   4.206  10.474 -0.6367 -0.4057  0.4620
  109OSM     O311222   1.401   4.058  10.432 -0.1982 -0.2146  0.0331
  109OSM    HO311223   1.399   3.995  10.503  0.6485 -1.9847 -1.4372
  109OSM    C4S11224   1.590   4.093  10.285 -0.8401 -0.2254 -0.7628
  109OSM    H4S11225   1.637   4.185  10.247  0.1959 -0.4787 -0.1414
  109OSM    C5S11226   1.581   3.999  10.190  0.4426  0.0609 -0.0873
  109OSM    H5S11227   1.522   3.909  10.213 -0.4117  0.0401 -2.1988
  109OSM    C6S11228   1.644   4.016  10.058 -0.0414 -0.0357  0.0575
  109OSM    H6S11229   1.630   4.120  10.022  1.9968  0.0765 -0.5008
  109OSM    H6T11230   1.603   3.942   9.986 -0.0781  1.0790 -1.0957
  109OSM    C7S11231   1.800   3.998  10.054  1.2977  0.7618  0.2211
  109OSM    H7S11232   1.833   3.897  10.086 -1.2693 -0.1007  0.4184
  109OSM    H7T11233   1.837   4.074  10.127  0.2169  2.8635 -1.3216
  109OSM    C8S11234   1.844   4.051   9.910  0.6200  0.8526 -0.5319
  109OSM    H8S11235   1.947   4.089   9.921  0.5388  0.7144  1.0031
  109OSM    H8T11236   1.778   4.131   9.870  1.9304  2.4214  0.3394
  109OSM    C9S11237   1.841   3.937   9.806  0.1296 -0.5048  0.3404
  109OSM    H9S11238   1.743   3.885   9.796  0.3715 -0.6257 -1.9614
  109OSM    H9T11239   1.919   3.865   9.841 -0.3836 -0.9204  0.6464
  109OSM   C10S11240   1.870   3.990   9.662  0.1669  0.3267  0.3108
  109OSM   H10S11241   1.906   3.911   9.592  1.9620 -0.1379  1.6750
  109OSM   H10T11242   1.963   4.050   9.674  1.3268 -0.6587 -2.7164
  109OSM   C11S11243   1.760   4.079   9.598  0.3734 -0.0361  0.3667
  109OSM   H11S11244   1.708   4.147   9.669 -0.4263  1.3632 -1.4792
  109OSM   H11T11245   1.689   4.010   9.549  0.4430  0.6568 -0.7294
  109OSM   C12S11246   1.819   4.170   9.487  0.5564  0.7086 -0.1164
  109OSM   H12S11247   1.888   4.115   9.420  0.8454  1.8723 -0.8011
  109OSM   H12T11248   1.887   4.243   9.537  1.9644 -0.8112  0.2557
  109OSM   C13S11249   1.712   4.228   9.393  0.3143  0.2365  0.1667
  109OSM   H13S11250   1.759   4.320   9.352 -2.6060  2.5618  1.6023
  109OSM   H13T11251   1.619   4.259   9.445 -0.7779 -1.5946 -0.5982
  109OSM   C14S11252   1.672   4.139   9.273 -0.4937  0.0989 -0.3528
  109OSM   H14S11253   1.642   4.040   9.313 -0.2819  0.4166  0.6047
  109OSM   H14T11254   1.760   4.141   9.204  1.4987 -0.0422  2.0417
  109OSM   C15S11255   1.555   4.193   9.187 -0.0015 -0.7243  0.7407
  109OSM   H15S11256   1.457   4.181   9.237 -1.4098  1.0371 -1.3569
  109OSM   H15T11257   1.550   4.138   9.091  0.4279  1.4621 -0.6192
  109OSM   C16S11258   1.576   4.345   9.154  0.2224  0.0042 -0.4922
  109OSM   H16S11259   1.667   4.345   9.090 -0.8916 -2.2133 -2.2014
  109OSM   H16T11260   1.592   4.394   9.252 -0.0675 -0.8908  0.0147
  109OSM   C17S11261   1.450   4.395   9.085 -0.4870 -0.5895 -0.8918
  109OSM   H17S11262   1.459   4.505   9.071  1.1559 -0.3296  1.5469
  109OSM   H17T11263   1.368   4.376   9.157 -0.6465  0.8949 -0.6405
  109OSM   C18S11264   1.418   4.325   8.953 -0.5717 -0.3897 -0.2240
  109OSM   H18S11265   1.512   4.326   8.894  1.1971 -0.9241  2.4057
  109OSM   H18T11266   1.343   4.383   8.895 -1.5090  0.6310  1.8648
  109OSM   H18U11267   1.382   4.221   8.964 -1.7700 -0.6870 -4.9460
  109OSM    C1F11268   1.867   4.047  10.592  0.0914 -0.8365 -1.0260
  109OSM     OF11269   1.870   3.937  10.648  0.6706  0.0005  0.1671
  109OSM    C2F11270   1.988   4.135  10.614 -0.1570 -0.7248  0.9223
  109OSM    H2F11271   2.021   4.131  10.720 -4.1082 -0.0840  2.3217
  109OSM    H2G11272   1.957   4.242  10.608  0.4765 -0.4871  1.6538
  109OSM    C3F11273   2.102   4.098  10.509  0.9906 -0.3779 -0.1867
  109OSM    H3F11274   2.133   3.991  10.506  0.4481 -0.5340 -0.2373
  109OSM    H3G11275   2.191   4.156  10.542 -0.3776  0.8613  1.4855
  109OSM    C4F11276   2.072   4.136  10.364  0.2673  0.2984 -0.0713
  109OSM    H4F11277   2.029   4.237  10.342 -0.0691  0.1095 -0.2936
  109OSM    H4G11278   1.985   4.077  10.328 -1.3484  1.8085  1.1431
  109OSM    C5F11279   2.200   4.108  10.279  0.1353 -0.0458  0.1725
  109OSM    H5F11280   2.238   4.007  10.306  2.6705  0.1605 -2.2267
  109OSM    H5G11281   2.278   4.184  10.300 -0.2049  0.2947  0.2248
  109OSM    C6F11282   2.169   4.093  10.131  0.0509  0.1148 -0.1988
  109OSM    H6F11283   2.113   4.183  10.097  1.0169  0.0698 -2.0357
  109OSM    H6G11284   2.095   4.013  10.111  0.5771 -0.3921 -0.1435
  109OSM    C7F11285   2.295   4.074  10.050 -0.0846  0.2976 -0.4249
  109OSM    H7F11286   2.359   3.985  10.067  1.3541  1.4870  0.7614
  109OSM    H7G11287   2.372   4.154  10.059  0.5502 -0.3804  0.4260
  109OSM    C8F11288   2.261   4.060   9.897 -0.9598  0.0937 -0.1586
  109OSM    H8F11289   2.178   3.986   9.893  0.9163 -2.4118  2.6864
  109OSM    H8G11290   2.347   4.015   9.843 -0.5156 -0.5353  1.0286
  109OSM    C9F11291   2.218   4.191   9.836 -0.1065 -0.1507 -0.4955
  109OSM    H9F11292   2.197   4.281   9.895  0.5655  1.9093 -3.2040
  109OSM   C10F11293   2.223   4.216   9.704 -0.6902 -0.2568 -0.3195
  109OSM   H10F11294   2.187   4.316   9.676  1.4197  1.3967  2.4041
  109OSM   C11F11295   2.275   4.131   9.599 -1.1755 -0.3354 -0.3771
  109OSM   H11F11296   2.277   4.028   9.641 -1.3566 -0.0934  0.2224
  109OSM   H11G11297   2.375   4.168   9.569 -1.1416 -0.2288 -0.1310
  109OSM   C12F11298   2.194   4.129   9.463  0.3789 -0.4530 -0.5528
  109OSM   H12F11299   2.186   4.230   9.417  3.7398 -1.4257 -3.7219
  109OSM   H12G11300   2.090   4.100   9.488  0.0925  0.5120 -0.5564
  109OSM   C13F11301   2.250   4.026   9.363 -0.4264 -0.0752  0.2312
  109OSM   H13F11302   2.259   3.924   9.405 -2.2077 -1.2348 -1.9954
  109OSM   H13G11303   2.352   4.062   9.337 -0.7516  0.1355 -0.8067
  109OSM   C14F11304   2.171   4.024   9.234 -0.7432  0.3943 -0.0071
  109OSM   H14F11305   2.067   3.986   9.242 -1.0241  1.4810  2.4785
  109OSM   H14G11306   2.236   3.970   9.163  0.8366  2.4664 -0.2223
  109OSM   C15F11307   2.156   4.154   9.166  0.0589 -0.2067 -0.0643
  109OSM   H15F11308   2.238   4.227   9.183  1.3084 -0.9219 -2.5528
  109OSM   H15G11309   2.064   4.199   9.210  0.2613  0.0634  0.0877
  109OSM   C16F11310   2.144   4.145   9.015  0.4564  0.0628 -0.6975
  109OSM   H16F11311   2.082   4.059   8.983  0.7920 -0.3963 -0.1427
  109OSM   H16G11312   2.245   4.130   8.971  1.8364  0.1311  2.2139
  109OSM   C17F11313   2.073   4.264   8.949 -0.8842  0.1120 -0.1108
  109OSM   H17F11314   2.140   4.352   8.958  1.8654 -1.7619 -0.9762
  109OSM   H17G11315   1.973   4.296   8.986 -1.1201  0.5999 -1.1576
  109OSM   C18F11316   2.049   4.231   8.801 -0.8278 -0.3202 -0.3059
  109OSM   H18F11317   1.961   4.163   8.792 -1.4994  0.6557 -1.4418
  109OSM   H18G11318   2.131   4.179   8.746 -0.5544  0.0485 -0.2484
  109OSM   H18H11319   2.020   4.324   8.747 -1.6734  1.0202  2.2909
  110OSM      N11320   2.590   2.328  11.015  0.5897 -0.5755  0.5053
  110OSM    C1511321   2.720   2.389  11.050 -0.4758 -0.1225 -0.3061
  110OSM   H15A11322   2.735   2.368  11.155 -0.0745  2.3212  0.1800
  110OSM   H15B11323   2.709   2.494  11.029 -0.7582 -0.1848 -0.4713
  110OSM   H15C11324   2.791   2.351  10.979  2.1501  0.5847  1.7809
  110OSM    C1411325   2.481   2.392  11.091 -0.2066 -0.3498 -0.4742
  110OSM   H14A11326   2.382   2.352  11.073 -1.6536  1.7724  2.1512
  110OSM   H14B11327   2.485   2.497  11.067  2.7872 -0.5195 -1.1863
  110OSM   H14C11328   2.507   2.369  11.193  0.7826 -1.2226 -0.8979
  110OSM    C1311329   2.554   2.369  10.873  0.5342 -0.0986 -0.5073
  110OSM   H13A11330   2.624   2.334  10.800  0.4777  0.6138 -0.9185
  110OSM   H13B11331   2.545   2.477  10.877 -0.8887 -0.2017 -0.4058
  110OSM   H13C11332   2.459   2.330  10.840  0.2735 -0.6534  0.8398
  110OSM    C1211333   2.592   2.180  11.019  0.0202  0.2485 -0.2989
  110OSM   H12A11334   2.626   2.154  11.118 -0.8444  3.3198  0.9254
  110OSM   H12B11335   2.661   2.136  10.948  1.8099 -1.2482  2.2026
  110OSM    C1111336   2.461   2.097  11.011  0.2251 -0.5951  0.5360
  110OSM   H11A11337   2.377   2.133  11.075  0.9447 -2.0196  2.3739
  110OSM   H11B11338   2.477   1.993  11.048  2.1385  0.0952  1.8500
  110OSM      P11339   2.479   2.024  10.749  0.0665  0.0026 -0.0708
  110OSM    O1311340   2.538   2.134  10.672 -0.3010 -0.3053 -0.0882
  110OSM    O1411341   2.561   1.917  10.807 -0.3411 -0.0361  0.5160
  110OSM    O1111342   2.356   1.965  10.673 -0.2044 -0.5426 -0.3900
  110OSM    O1211343   2.408   2.088  10.877  0.4700  0.4029  0.4373
  110OSM    C1S11344   2.244   2.051  10.636 -0.0809 -0.5734 -0.4483
  110OSM    H1S11345   2.277   2.155  10.615 -0.3645 -1.0081 -3.4662
  110OSM    H1T11346   2.160   2.044  10.709 -0.3727  0.8784 -0.6208
  110OSM     NF11347   2.066   2.113  10.469  0.4525 -0.5640  1.1040
  110OSM    HNF11348   1.970   2.086  10.468  0.1543  0.4246  1.4399
  110OSM    C2S11349   2.173   2.016  10.499  0.1253 -0.3971  0.3709
  110OSM    H2S11350   2.259   2.031  10.430 -0.5098  0.2394 -0.2989
  110OSM    C3S11351   2.125   1.866  10.495  0.0219 -0.2342 -0.8328
  110OSM    H3S11352   2.049   1.849  10.575 -0.1088 -0.9532 -1.0992
  110OSM     O311353   2.216   1.773  10.562  0.0408  0.0233  0.2469
  110OSM    HO311354   2.278   1.818  10.619 -1.3144 -1.2569  2.9100
  110OSM    C4S11355   2.049   1.815  10.367 -0.3097  0.3299 -0.2732
  110OSM    H4S11356   1.940   1.824  10.366 -0.3925 -0.5948  0.0924
  110OSM    C5S11357   2.113   1.764  10.260 -0.2360  0.1301  0.4365
  110OSM    H5S11358   2.222   1.762  10.269 -0.3090  0.1314  1.4903
  110OSM    C6S11359   2.055   1.695  10.141  0.0164  0.0335  0.2519
  110OSM    H6S11360   1.955   1.743  10.127  0.4677  1.8283  2.5104
  110OSM    H6T11361   2.046   1.586  10.159  0.5368  0.0653  0.7180
  110OSM    C7S11362   2.129   1.712  10.005 -0.3147 -0.1486 -0.3829
  110OSM    H7S11363   2.223   1.654  10.012 -0.4279 -0.2803  0.1539
  110OSM    H7T11364   2.141   1.821   9.987 -0.7918  0.0144  0.2460
  110OSM    C8S11365   2.049   1.650   9.888  0.2257  0.8435 -0.7370
  110OSM    H8S11366   1.949   1.697   9.890 -1.2432 -2.0782  0.9811
  110OSM    H8T11367   2.047   1.543   9.918  1.0841  0.9564 -0.2131
  110OSM    C9S11368   2.123   1.666   9.754  0.8325 -0.4343 -0.8769
  110OSM    H9S11369   2.208   1.594   9.757  0.6010 -0.6881 -0.0800
  110OSM    H9T11370   2.157   1.770   9.739 -1.9981  0.9871  1.5538
  110OSM   C10S11371   2.037   1.637   9.635  0.1675 -0.1846 -0.0321
  110OSM   H10S11372   1.956   1.713   9.634 -1.2620 -1.6546 -0.3361
  110OSM   H10T11373   1.988   1.537   9.644  1.9266 -1.2174 -1.3951
  110OSM   C11S11374   2.120   1.631   9.505  0.2651  0.2940 -0.5838
  110OSM   H11S11375   2.206   1.563   9.521 -0.4368 -0.1839  1.4470
  110OSM   H11T11376   2.152   1.732   9.473 -1.5985  0.9621 -0.4857
  110OSM   C12S11377   2.047   1.574   9.381 -0.2204  0.1136  0.1641
  110OSM   H12S11378   2.024   1.470   9.411  1.3965  0.0107  1.1644
  110OSM   H12T11379   2.106   1.569   9.287 -1.1016 -0.1375 -0.3774
  110OSM   C13S11380   1.919   1.644   9.351 -0.3609  0.9079 -0.1709
  110OSM   H13S11381   1.939   1.753   9.357 -0.2339  0.8624  0.3068
  110OSM   H13T11382   1.851   1.603   9.429  0.8913 -2.2360 -0.5616
  110OSM   C14S11383   1.857   1.627   9.208  0.7754 -0.0809 -0.1185
  110OSM   H14S11384   1.776   1.703   9.197  1.2667  0.4833  0.0741
  110OSM   H14T11385   1.816   1.528   9.180  1.3807 -0.1388 -0.8192
  110OSM   C15S11386   1.944   1.679   9.098  0.7299 -0.0008  0.0881
  110OSM   H15S11387   2.041   1.626   9.104  0.6998  0.1248  4.2475
  110OSM   H15T11388   1.963   1.788   9.110  1.9754 -0.2258  0.3242
  110OSM   C16S11389   1.871   1.670   8.962 -0.3640  0.0498  0.7857
  110OSM   H16S11390   1.771   1.716   8.976 -0.0983  0.1297  2.6896
  110OSM   H16T11391   1.852   1.562   8.939 -0.5862  0.2808 -0.1502
  110OSM   C17S11392   1.949   1.735   8.849  0.0835  0.2423 -0.8729
  110OSM   H17S11393   2.045   1.681   8.835  0.2345  0.4182 -0.5168
  110OSM   H17T11394   1.983   1.835   8.884 -2.4166  0.8253  0.1306
  110OSM   C18S11395   1.859   1.747   8.727  0.0944 -0.0911  0.3070
  110OSM   H18S11396   1.916   1.785   8.640  0.7573  0.7655  1.0895
  110OSM   H18T11397   1.783   1.828   8.738  0.5118  0.3923 -0.3228
  110OSM   H18U11398   1.798   1.658   8.698  1.0273 -0.1350 -1.6347
  110OSM    C1F11399   2.101   2.239  10.433  0.0697 -0.0184 -0.7935
  110OSM     OF11400   2.220   2.271  10.438 -0.4482 -0.3510  0.5133
  110OSM    C2F11401   1.991   2.318  10.370  0.2767 -0.4372 -0.1130
  110OSM    H2F11402   1.924   2.341  10.456 -2.1188 -1.0338 -1.6987
  110OSM    H2G11403   1.930   2.245  10.312  0.2615 -1.4142  1.0872
  110OSM    C3F11404   2.033   2.444  10.291  0.3927 -0.2636 -0.0110
  110OSM    H3F11405   2.095   2.417  10.202  0.4615 -0.6564  0.1520
  110OSM    H3G11406   2.096   2.508  10.356  0.3089  1.1813 -1.3085
  110OSM    C4F11407   1.913   2.543  10.263  0.8143  0.1975  0.3994
  110OSM    H4F11408   1.862   2.565  10.359 -2.7033 -1.6715 -0.8706
  110OSM    H4G11409   1.843   2.488  10.197  1.4176 -2.8933  2.1221
  110OSM    C5F11410   1.961   2.674  10.205  0.0955 -0.4844 -0.6494
  110OSM    H5F11411   2.042   2.721  10.265  2.0194 -1.8761 -2.0197
  110OSM    H5G11412   1.881   2.750  10.204  1.2885  0.8100 -0.3252
  110OSM    C6F11413   2.015   2.656  10.060 -0.4258  0.2128  0.0335
  110OSM    H6F11414   2.094   2.578  10.061 -0.5266  0.0900  1.9528
  110OSM    H6G11415   2.068   2.747  10.026 -0.8357  0.2351 -0.5724
  110OSM    C7F11416   1.906   2.611   9.960 -0.7449 -0.9534 -0.0068
  110OSM    H7F11417   1.823   2.684   9.969 -0.5517 -0.8183  0.7738
  110OSM    H7G11418   1.864   2.510   9.978  0.5364 -1.9210 -2.1021
  110OSM    C8F11419   1.946   2.619   9.814 -0.8329  0.0767 -0.2197
  110OSM    H8F11420   2.044   2.568   9.810 -1.1500 -0.7059  1.1641
  110OSM    H8G11421   1.976   2.720   9.779 -1.6973 -0.2456 -2.0215
  110OSM    C9F11422   1.842   2.553   9.730 -0.4221 -0.0586  0.0638
  110OSM    H9F11423   1.762   2.499   9.782 -0.5228  1.0603  1.1119
  110OSM   C10F11424   1.816   2.587   9.606 -0.2259 -0.1927  0.7369
  110OSM   H10F11425   1.727   2.542   9.560  0.6193 -0.1735 -0.9962
  110OSM   C11F11426   1.890   2.689   9.524  0.0441 -0.2196  0.3856
  110OSM   H11F11427   1.939   2.772   9.581  1.5891 -0.5098 -0.4782
  110OSM   H11G11428   1.815   2.736   9.457 -0.3570 -1.2221  0.1125
  110OSM   C12F11429   2.007   2.628   9.445 -0.5757  0.7405 -0.4359
  110OSM   H12F11430   2.069   2.570   9.517 -1.3468 -0.4384 -0.6851
  110OSM   H12G11431   2.071   2.704   9.395  0.9191  0.8317  1.5164
  110OSM   C13F11432   1.964   2.534   9.327  0.1066  0.1278  0.7295
  110OSM   H13F11433   1.882   2.475   9.371 -0.3151  1.1265  1.3131
  110OSM   H13G11434   2.042   2.461   9.296 -0.5866 -0.3329  0.0155
  110OSM   C14F11435   1.920   2.603   9.201  0.7233  0.0760  0.5118
  110OSM   H14F11436   1.997   2.679   9.177  1.8690 -1.2715 -0.1592
  110OSM   H14G11437   1.839   2.676   9.224  1.6012  2.1048 -2.3910
  110OSM   C15F11438   1.884   2.505   9.090  1.1167  0.4977  0.0855
  110OSM   H15F11439   1.803   2.439   9.128  0.4128  0.8507 -0.7728
  110OSM   H15G11440   1.972   2.440   9.069  2.0451  1.1272  1.7971
  110OSM   C16F11441   1.834   2.579   8.962 -0.1666  1.0879 -0.1708
  110OSM   H16F11442   1.912   2.622   8.896  0.4905 -1.3237 -1.0731
  110OSM   H16G11443   1.777   2.668   8.996 -0.8468  0.5004  0.2559
  110OSM   C17F11444   1.734   2.506   8.881  0.3466  0.8356  0.2360
  110OSM   H17F11445   1.646   2.481   8.944 -1.0599  1.6010 -1.3569
  110OSM   H17G11446   1.781   2.411   8.845  0.6587  1.6924 -1.7441
  110OSM   C18F11447   1.670   2.587   8.769 -0.0077 -0.0283 -0.3988
  110OSM   H18F11448   1.606   2.672   8.803 -2.2812 -1.6189 -0.4572
  110OSM   H18G11449   1.601   2.520   8.712  0.2195 -1.7926  1.3178
  110OSM   H18H11450   1.753   2.624   8.705  0.7354  2.1297  1.6428
  111OSM      N11451   2.534   5.306  11.157 -0.1980  0.0568 -0.6423
  111OSM    C1511452   2.424   5.381  11.229 -0.0684  0.2817 -0.2868
  111OSM   H15A11453   2.443   5.400  11.334 -2.4859 -0.0921  0.2812
  111OSM   H15B11454   2.332   5.333  11.199  1.8692 -1.3622 -4.2729
  111OSM   H15C11455   2.407   5.479  11.185 -0.7344 -0.3551 -1.4861
  111OSM    C1411456   2.637   5.404  11.116 -0.2516  0.8701  0.2151
  111OSM   H14A11457   2.676   5.447  11.206 -0.3919  0.1482  0.6313
  111OSM   H14B11458   2.585   5.478  11.056 -0.5821  0.2513 -0.2778
  111OSM   H14C11459   2.717   5.354  11.063  1.4413  1.7380  1.8227
  111OSM    C1311460   2.596   5.191  11.237  0.6030 -0.5665 -0.3046
  111OSM   H13A11461   2.642   5.239  11.322 -1.3827 -0.3872  0.7177
  111OSM   H13B11462   2.672   5.138  11.182  1.3740 -1.6315  1.6508
  111OSM   H13C11463   2.522   5.122  11.277  0.1996 -0.6898 -1.2294
  111OSM    C1211464   2.480   5.250  11.026  0.0798 -0.4321 -0.0557
  111OSM   H12A11465   2.559   5.191  10.981 -2.1728 -1.7573 -2.5294
  111OSM   H12B11466   2.465   5.338  10.965 -0.0584  0.4294  1.1570
  111OSM    C1111467   2.337   5.175  11.014 -0.1416 -0.5147 -0.7408
  111OSM   H11A11468   2.302   5.185  10.909 -0.6430 -0.0076 -0.5303
  111OSM   H11B11469   2.257   5.227  11.071 -4.6933 -4.4347 -2.8564
  111OSM      P11470   2.372   4.921  10.945  0.0056  0.5477 -0.7253
  111OSM    O1311471   2.479   4.840  11.003 -0.1877 -0.6293  0.6307
  111OSM    O1411472   2.248   4.842  10.917 -0.2507 -0.4783  0.3351
  111OSM    O1111473   2.425   5.004  10.817 -0.3148 -0.2562  0.3782
  111OSM    O1211474   2.330   5.036  11.046  0.0829  0.5578 -0.7705
  111OSM    C1S11475   2.393   4.989  10.676 -0.0749  0.4112  0.4813
  111OSM    H1S11476   2.291   5.029  10.655 -0.4640  0.7975  2.8904
  111OSM    H1T11477   2.386   4.883  10.640  0.3768  0.2666  0.8154
  111OSM     NF11478   2.469   5.036  10.439 -0.1954  0.5245 -0.4753
  111OSM    HNF11479   2.549   5.010  10.385 -0.0967  1.2791 -0.7026
  111OSM    C2S11480   2.492   5.069  10.577  0.0431 -0.4607 -0.4267
  111OSM    H2S11481   2.476   5.179  10.590  2.7640 -0.0090 -0.2377
  111OSM    C3S11482   2.640   5.062  10.628  0.3870 -0.3300  0.2225
  111OSM    H3S11483   2.670   4.957  10.606 -0.8881 -0.1473 -2.7956
  111OSM     O311484   2.660   5.093  10.770  0.1462 -0.1778 -0.1199
  111OSM    HO311485   2.569   5.094  10.802  0.4869  1.2397  0.8828
  111OSM    C4S11486   2.726   5.155  10.546 -0.2959  0.0508  0.6002
  111OSM    H4S11487   2.722   5.261  10.572  1.1713 -0.2858  2.3927
  111OSM    C5S11488   2.814   5.114  10.445 -0.1716  0.3301  0.4942
  111OSM    H5S11489   2.826   5.006  10.427  2.5728  1.0065 -2.5539
  111OSM    C6S11490   2.904   5.203  10.361 -0.9330 -0.6336 -0.6731
  111OSM    H6S11491   3.006   5.159  10.367 -1.0200 -0.6408  1.4044
  111OSM    H6T11492   2.903   5.307  10.400 -0.8958 -0.1930 -1.8065
  111OSM    C7S11493   2.870   5.211  10.211  0.0073  0.0587 -0.5092
  111OSM    H7S11494   2.766   5.247  10.195 -0.2691 -0.2245  0.5395
  111OSM    H7T11495   2.889   5.109  10.172  0.1333  0.5615 -1.8140
  111OSM    C8S11496   2.966   5.311  10.137  0.0372 -0.1616 -0.2421
  111OSM    H8S11497   3.074   5.290  10.147  0.3834  1.7207  0.4170
  111OSM    H8T11498   2.954   5.417  10.168 -0.0535 -0.2867  0.1659
  111OSM    C9S11499   2.933   5.311   9.992 -0.1633 -0.5922  1.0108
  111OSM    H9S11500   2.824   5.327   9.973 -0.2961 -2.2120  0.2521
  111OSM    H9T11501   2.940   5.211   9.945 -1.2902  0.4678 -1.6145
  111OSM   C10S11502   3.016   5.397   9.903  0.2797  0.6019  0.3407
  111OSM   H10S11503   3.112   5.342   9.892 -0.4000 -0.4088 -0.8664
  111OSM   H10T11504   3.031   5.498   9.947 -1.3086  1.0183 -0.0223
  111OSM   C11S11505   2.954   5.409   9.763 -0.2151  0.1191  0.0640
  111OSM   H11S11506   2.870   5.482   9.762 -0.2590  0.0841 -1.5576
  111OSM   H11T11507   2.901   5.314   9.740  2.3521 -1.5724  0.7253
  111OSM   C12S11508   3.046   5.456   9.649 -0.2135 -0.1974  0.1824
  111OSM   H12S11509   3.120   5.379   9.619  0.6757  0.6568  0.1034
  111OSM   H12T11510   3.106   5.546   9.676 -0.0987  0.4492 -2.0127
  111OSM   C13S11511   2.964   5.499   9.528  0.5261 -0.8819  0.4102
  111OSM   H13S11512   2.897   5.586   9.541 -2.3584 -3.2215  2.2494
  111OSM   H13T11513   2.889   5.420   9.510 -0.3708  0.1408 -0.4674
  111OSM   C14S11514   3.047   5.512   9.400  0.1561 -0.2404  0.8282
  111OSM   H14S11515   3.119   5.428   9.393  0.1595 -0.0880 -2.4564
  111OSM   H14T11516   3.095   5.612   9.404 -0.8629  0.2390  2.7202
  111OSM   C15S11517   2.958   5.512   9.274 -0.2476  0.3219 -0.5373
  111OSM   H15S11518   2.876   5.587   9.273  0.3145  0.9495 -1.9062
  111OSM   H15T11519   2.901   5.416   9.266 -0.5573  0.1036  2.9395
  111OSM   C16S11520   3.033   5.544   9.146 -0.6607 -0.3155  0.8114
  111OSM   H16S11521   3.099   5.459   9.118 -1.0471 -0.2583 -0.3495
  111OSM   H16T11522   3.090   5.639   9.158  3.4727 -2.4836  0.1659
  111OSM   C17S11523   2.937   5.569   9.026  0.1434  0.2408  1.4373
  111OSM   H17S11524   2.864   5.647   9.055 -2.5557 -1.6914  0.2321
  111OSM   H17T11525   2.870   5.482   9.012 -0.6996  1.3084 -2.9329
  111OSM   C18S11526   3.011   5.612   8.893  0.0036 -0.0588 -0.5354
  111OSM   H18S11527   2.941   5.670   8.828  0.0468  0.6459  0.0414
  111OSM   H18T11528   3.038   5.518   8.840  1.1572 -0.6111  0.9736
  111OSM   H18U11529   3.100   5.675   8.916  0.6849 -0.7240 -1.2900
  111OSM    C1F11530   2.357   5.067  10.380  0.3814  0.2198 -0.0140
  111OSM     OF11531   2.286   5.158  10.419 -0.5369 -0.5713 -0.1625
  111OSM    C2F11532   2.328   5.005  10.247  0.1640 -0.0807 -0.0642
  111OSM    H2F11533   2.307   4.896  10.252 -0.4349  0.0553  0.4792
  111OSM    H2G11534   2.417   5.026  10.183  0.3647 -1.7300 -0.3741
  111OSM    C3F11535   2.206   5.077  10.180 -0.5248  0.0234  0.0430
  111OSM    H3F11536   2.218   5.187  10.184 -1.1910  0.1112 -0.3287
  111OSM    H3G11537   2.118   5.043  10.238  1.0755 -1.9982  1.4234
  111OSM    C4F11538   2.198   5.029  10.036 -0.6676  0.8067 -0.6747
  111OSM    H4F11539   2.156   4.929  10.015 -0.5331  0.6810 -0.3597
  111OSM    H4G11540   2.307   5.035  10.014  0.1859 -1.5147  2.2135
  111OSM    C5F11541   2.118   5.126   9.941  0.1635  0.1790 -0.1093
  111OSM    H5F11542   2.149   5.228   9.970  1.3896 -0.8983  2.7577
  111OSM    H5G11543   2.008   5.126   9.960 -0.3052  2.7256 -2.2018
  111OSM    C6F11544   2.153   5.096   9.790  0.6971  0.1678 -0.4514
  111OSM    H6F11545   2.264   5.096   9.785  0.7801  2.1542  0.4803
  111OSM    H6G11546   2.124   5.176   9.719 -0.9256  0.3510  0.3727
  111OSM    C7F11547   2.097   4.965   9.735 -0.1101 -0.0521 -0.8009
  111OSM    H7F11548   1.988   4.958   9.754  0.1037 -1.7055  0.0049
  111OSM    H7G11549   2.150   4.879   9.781 -0.6569  0.0205 -0.0133
  111OSM    C8F11550   2.131   4.937   9.587  0.2626  0.1366 -0.7331
  111OSM    H8F11551   2.107   4.832   9.561 -1.0787 -0.1006  1.1926
  111OSM    H8G11552   2.238   4.957   9.568  0.6683 -0.7503  0.5085
  111OSM    C9F11553   2.042   5.022   9.495  0.5945  0.3056  0.0875
  111OSM    H9F11554   1.938   4.985   9.490  1.2842 -1.7551  0.1751
  111OSM   C10F11555   2.077   5.141   9.447 -0.1372 -0.2730 -0.4643
  111OSM   H10F11556   2.001   5.202   9.395  0.2750 -0.4246 -1.2669
  111OSM   C11F11557   2.209   5.209   9.456  0.1155 -0.1312 -0.3662
  111OSM   H11F11558   2.293   5.148   9.495  0.2941  0.5632  0.3608
  111OSM   H11G11559   2.202   5.293   9.529 -2.7853 -0.4013 -0.2357
  111OSM   C12F11560   2.264   5.252   9.320 -0.1866  0.5025  0.1204
  111OSM   H12F11561   2.355   5.311   9.343  0.1587  0.1760 -0.3748
  111OSM   H12G11562   2.185   5.316   9.277 -0.6154 -0.9977 -1.4494
  111OSM   C13F11563   2.318   5.142   9.227  0.3098 -0.3688 -0.5292
  111OSM   H13F11564   2.235   5.070   9.209  0.7785 -1.2277  0.6277
  111OSM   H13G11565   2.407   5.090   9.267  0.4186  0.4146  0.2877
  111OSM   C14F11566   2.351   5.189   9.087  0.6082 -0.4487  0.0768
  111OSM   H14F11567   2.419   5.113   9.044  2.0180  0.1309  1.2069
  111OSM   H14G11568   2.424   5.271   9.106  0.8673 -0.5987 -0.2743
  111OSM   C15F11569   2.230   5.233   9.001 -0.4388 -0.2532 -0.6274
  111OSM   H15F11570   2.193   5.330   9.040  0.6972 -0.4208  0.9762
  111OSM   H15G11571   2.149   5.160   9.024  0.6078 -0.6243  2.4242
  111OSM   C16F11572   2.272   5.247   8.852  0.5945  1.1087  0.1306
  111OSM   H16F11573   2.180   5.263   8.792 -0.0369 -1.9269  0.1398
  111OSM   H16G11574   2.318   5.148   8.832 -2.9277 -0.6067 -0.1731
  111OSM   C17F11575   2.347   5.377   8.812 -0.5355 -0.2917  0.1149
  111OSM   H17F11576   2.340   5.473   8.867 -1.3068  1.2718 -2.5178
  111OSM   H17G11577   2.312   5.400   8.709  0.8638  1.1386 -0.0904
  111OSM   C18F11578   2.500   5.351   8.795  0.0624  0.5566  0.0843
  111OSM   H18F11579   2.524   5.258   8.740 -0.1605  2.0197 -2.6870
  111OSM   H18G11580   2.551   5.337   8.892  0.0419 -3.6608 -0.3507
  111OSM   H18H11581   2.543   5.435   8.737  1.5652 -0.6325 -0.5851
  112OSM      N11582   3.705   2.334  11.194 -0.7002  0.6344  0.0106
  112OSM    C1511583   3.691   2.250  11.321 -0.1620  0.4577 -0.1723
  112OSM   H15A11584   3.658   2.150  11.297  1.6878 -0.3725  0.5555
  112OSM   H15B11585   3.621   2.313  11.374 -2.7838 -1.4456 -1.1512
  112OSM   H15C11586   3.779   2.257  11.383  0.6878 -0.4340 -1.2150
  112OSM    C1411587   3.737   2.479  11.227  0.4848 -0.1399 -0.4120
  112OSM   H14A11588   3.818   2.489  11.298  0.8933  0.3209 -0.9312
  112OSM   H14B11589   3.652   2.524  11.276 -0.0193  0.1177 -1.4956
  112OSM   H14C11590   3.757   2.537  11.138  2.0885  1.2767  0.7908
  112OSM    C1311591   3.810   2.282  11.110 -0.0851 -0.0353  0.6772
  112OSM   H13A11592   3.806   2.175  11.103  0.9369 -0.0011 -0.6733
  112OSM   H13B11593   3.906   2.316  11.147  0.1488  0.1138 -0.0639
  112OSM   H13C11594   3.810   2.328  11.013 -2.4612 -1.3936 -0.0408
  112OSM    C1211595   3.579   2.324  11.117 -0.4594 -0.5552 -0.3004
  112OSM   H12A11596   3.495   2.358  11.176 -0.6540 -0.6416 -0.5238
  112OSM   H12B11597   3.553   2.221  11.101 -1.3539 -0.8877  2.7046
  112OSM    C1111598   3.581   2.391  10.977 -0.1549 -0.5535 -0.1881
  112OSM   H11A11599   3.494   2.352  10.920 -0.0466  0.0195 -0.7566
  112OSM   H11B11600   3.667   2.361  10.915  0.6802  2.0538 -0.4090
  112OSM      P11601   3.482   2.628  11.019 -0.0279 -0.0330  0.2740
  112OSM    O1311602   3.412   2.598  11.146 -0.5184  0.0497  0.1388
  112OSM    O1411603   3.534   2.765  11.012 -0.3913 -0.2859  0.7395
  112OSM    O1111604   3.372   2.616  10.902 -0.4599  0.3526 -0.5450
  112OSM    O1211605   3.597   2.533  10.979  0.5994  1.2303  0.4943
  112OSM    C1S11606   3.384   2.659  10.768 -0.3052  0.4291  1.0018
  112OSM    H1S11607   3.487   2.694  10.742  1.0058 -4.5882 -2.0519
  112OSM    H1T11608   3.328   2.753  10.751 -0.6864  0.0625  0.1790
  112OSM     NF11609   3.338   2.608  10.528 -0.2848 -0.1247 -1.0770
  112OSM    HNF11610   3.255   2.655  10.499  0.5491  1.1090 -1.5295
  112OSM    C2S11611   3.342   2.547  10.660 -0.5316 -0.1858 -0.1588
  112OSM    H2S11612   3.423   2.470  10.652 -0.8959 -0.8049  1.6819
  112OSM    C3S11613   3.211   2.471  10.701 -0.0419 -0.2112 -0.0260
  112OSM    H3S11614   3.130   2.544  10.682  1.0782  0.6408 -1.8214
  112OSM     O311615   3.213   2.422  10.837  0.0947 -0.2603 -0.4373
  112OSM    HO311616   3.300   2.454  10.862 -0.0353 -0.4516  0.2918
  112OSM    C4S11617   3.190   2.350  10.622 -0.5921  0.1701 -0.3110
  112OSM    H4S11618   3.272   2.277  10.630 -0.7355 -0.0103 -0.4579
  112OSM    C5S11619   3.087   2.323  10.538  0.0749 -0.5771  0.7817
  112OSM    H5S11620   3.018   2.408  10.525 -0.2436 -0.8664  0.5589
  112OSM    C6S11621   3.068   2.200  10.452  0.7529  0.4431 -0.2282
  112OSM    H6S11622   2.960   2.171  10.448  1.3831 -1.9973 -1.9049
  112OSM    H6T11623   3.108   2.111  10.505 -1.7562 -0.6407  0.0201
  112OSM    C7S11624   3.127   2.209  10.312  0.2671 -0.3059 -0.3195
  112OSM    H7S11625   3.133   2.107  10.267  2.5948 -0.4582  0.2654
  112OSM    H7T11626   3.232   2.236  10.332  0.6567 -2.4022  0.7483
  112OSM    C8S11627   3.048   2.299  10.210  0.1595 -0.0271 -0.6158
  112OSM    H8S11628   3.075   2.406  10.224  0.1742 -0.1199  0.1517
  112OSM    H8T11629   2.939   2.289  10.230  0.2088 -2.5612 -1.3821
  112OSM    C9S11630   3.085   2.276  10.066  0.3060 -0.8117  0.1288
  112OSM    H9S11631   3.097   2.168  10.041 -1.3222 -1.2829  1.2622
  112OSM    H9T11632   3.182   2.326  10.044 -0.2347  0.2970  0.2419
  112OSM   C10S11633   2.975   2.320   9.958  0.3336  0.9670 -0.6033
  112OSM   H10S11634   2.914   2.405   9.994  0.6029  0.7223  0.4590
  112OSM   H10T11635   2.902   2.236   9.961 -0.0993  1.3767  2.0173
  112OSM   C11S11636   3.036   2.358   9.817 -0.3160  0.5181  0.7527
  112OSM   H11S11637   3.134   2.409   9.828  0.7406 -0.6676 -2.2240
  112OSM   H11T11638   2.971   2.426   9.759  2.1175  1.4963 -0.9907
  112OSM   C12S11639   3.075   2.245   9.723  0.4902 -0.3175  0.1557
  112OSM   H12S11640   3.130   2.167   9.780 -2.7440 -3.5090 -0.7009
  112OSM   H12T11641   3.147   2.280   9.647 -1.0045  1.4702 -0.4998
  112OSM   C13S11642   2.964   2.181   9.648  0.1855 -0.3924  0.7482
  112OSM   H13S11643   2.874   2.158   9.710 -0.4298 -0.5688 -0.1950
  112OSM   H13T11644   3.007   2.088   9.604  0.6517 -0.1303  0.6507
  112OSM   C14S11645   2.928   2.248   9.507  0.8317  1.0677  0.6483
  112OSM   H14S11646   3.017   2.252   9.441 -0.4670  2.0286 -1.1593
  112OSM   H14T11647   2.893   2.352   9.524 -1.7731  0.4951 -0.6148
  112OSM   C15S11648   2.809   2.177   9.436 -0.3486  0.7322 -0.0315
  112OSM   H15S11649   2.728   2.170   9.512  1.5329  0.4244  2.0604
  112OSM   H15T11650   2.843   2.074   9.413 -0.4473  0.4000  1.2137
  112OSM   C16S11651   2.752   2.243   9.306 -0.2089 -0.0643 -0.3323
  112OSM   H16S11652   2.846   2.277   9.257  1.4229 -1.2350  1.7933
  112OSM   H16T11653   2.694   2.336   9.322  1.7842  0.8154  2.9050
  112OSM   C17S11654   2.684   2.149   9.202 -0.1289 -0.3836  0.0596
  112OSM   H17S11655   2.587   2.125   9.250 -1.0449 -0.2410 -1.6494
  112OSM   H17T11656   2.741   2.054   9.189  0.8397  0.1354  0.3857
  112OSM   C18S11657   2.662   2.215   9.072 -0.0329  0.1708 -0.1494
  112OSM   H18S11658   2.764   2.236   9.035  0.9791 -0.5712  2.0429
  112OSM   H18T11659   2.595   2.304   9.076 -0.2261 -0.0199  2.1008
  112OSM   H18U11660   2.623   2.136   9.004  0.8951 -0.2389 -0.2198
  112OSM    C1F11661   3.445   2.635  10.452 -0.7135 -0.7804  0.3279
  112OSM     OF11662   3.555   2.601  10.488  0.1613 -0.1273 -0.2204
  112OSM    C2F11663   3.429   2.715  10.330  0.5517  0.5885 -0.5483
  112OSM    H2F11664   3.530   2.750  10.299  0.5371 -0.4991 -1.9401
  112OSM    H2G11665   3.359   2.796  10.360 -0.5436 -0.2473 -0.7688
  112OSM    C3F11666   3.366   2.616  10.228  0.0999  0.3473  0.4602
  112OSM    H3F11667   3.274   2.567  10.265 -2.2372  2.2650 -2.2884
  112OSM    H3G11668   3.433   2.534  10.196 -0.4805 -0.3480  1.0007
  112OSM    C4F11669   3.322   2.695  10.104 -0.4312  0.2058  0.7849
  112OSM    H4F11670   3.229   2.753  10.126 -1.7914 -1.2747 -0.7210
  112OSM    H4G11671   3.285   2.616  10.035  0.6637 -0.1745  0.6290
  112OSM    C5F11672   3.434   2.785  10.037 -0.0565  0.5829 -0.5878
  112OSM    H5F11673   3.511   2.716   9.998 -2.0171 -1.5646 -0.9097
  112OSM    H5G11674   3.481   2.858  10.106  0.8345  2.6041 -3.1875
  112OSM    C6F11675   3.380   2.868   9.913 -0.0719  0.0280  0.3200
  112OSM    H6F11676   3.444   2.958   9.910 -0.5356  0.3372 -1.1134
  112OSM    H6G11677   3.279   2.912   9.928  0.3470  0.2705  2.8073
  112OSM    C7F11678   3.401   2.804   9.777  0.2453  0.2081 -0.1569
  112OSM    H7F11679   3.499   2.753   9.762 -0.1339 -0.9219  1.0232
  112OSM    H7G11680   3.385   2.880   9.698  2.5662  0.6357 -0.2978
  112OSM    C8F11681   3.289   2.695   9.742 -0.0551 -0.0681 -0.1481
  112OSM    H8F11682   3.193   2.750   9.725  0.5179  0.7996 -0.6654
  112OSM    H8G11683   3.278   2.639   9.837 -1.1196 -0.0160 -0.2238
  112OSM    C9F11684   3.306   2.591   9.632  0.1927 -0.2115  0.3243
  112OSM    H9F11685   3.289   2.487   9.662 -1.5338 -0.9782 -2.8882
  112OSM   C10F11686   3.337   2.612   9.503  0.0499  0.3906  0.9144
  112OSM   H10F11687   3.350   2.529   9.431  0.5552  1.3744 -0.1589
  112OSM   C11F11688   3.343   2.743   9.424  0.0583  0.5493  0.1723
  112OSM   H11F11689   3.382   2.821   9.492  1.5924  1.0336 -1.2010
  112OSM   H11G11690   3.246   2.790   9.396 -0.5956 -0.0854  1.2946
  112OSM   C12F11691   3.433   2.731   9.305  0.7553  0.2115 -0.1374
  112OSM   H12F11692   3.532   2.688   9.328  0.9971  0.3645 -0.8766
  112OSM   H12G11693   3.463   2.836   9.282  1.7167  0.5066  2.1792
  112OSM   C13F11694   3.370   2.656   9.187  0.8265  0.6873 -0.2801
  112OSM   H13F11695   3.295   2.730   9.151  2.7334  0.8668 -4.5359
  112OSM   H13G11696   3.312   2.565   9.214  0.4168  0.4119 -1.9561
  112OSM   C14F11697   3.450   2.618   9.066  0.3777 -0.3632 -0.0864
  112OSM   H14F11698   3.367   2.584   8.999  0.7384 -1.2576 -0.0952
  112OSM   H14G11699   3.526   2.539   9.084 -0.8233 -1.7268 -0.6961
  112OSM   C15F11700   3.513   2.746   9.009 -0.3958 -0.2506 -0.3015
  112OSM   H15F11701   3.597   2.757   9.081  0.4981  0.6608 -1.4416
  112OSM   H15G11702   3.447   2.835   9.016 -0.8007 -0.5195 -0.6735
  112OSM   C16F11703   3.554   2.745   8.863  0.0988 -0.1718  0.3603
  112OSM   H16F11704   3.622   2.657   8.856 -0.0849 -0.1931 -1.9073
  112OSM   H16G11705   3.604   2.840   8.836 -1.9667  0.9994  0.4185
  112OSM   C17F11706   3.439   2.714   8.766  0.5981 -0.1566 -0.1951
  112OSM   H17F11707   3.360   2.791   8.775 -0.8084 -1.7535  2.6111
  112OSM   H17G11708   3.395   2.616   8.795 -1.4349  0.8672  0.3967
  112OSM   C18F11709   3.478   2.700   8.618  0.2956  0.8520  0.0676
  112OSM   H18F11710   3.570   2.638   8.614 -0.2814 -0.1994  1.9370
  112OSM   H18G11711   3.505   2.803   8.586  1.4084  0.3621 -0.6557
  112OSM   H18H11712   3.397   2.663   8.552  0.9757 -0.8774  0.1520
  113OSM      N11713   0.106   0.745  11.179 -0.6054 -0.7711  0.2959
  113OSM    C1511714  -0.027   0.818  11.191 -0.3474  0.2046 -0.0011
  113OSM   H15A11715  -0.050   0.831  11.296 -1.6253  0.5703 -0.3105
  113OSM   H15B11716  -0.108   0.761  11.149 -0.1441  0.9480 -1.4555
  113OSM   H15C11717  -0.018   0.918  11.151  3.0357  1.2489  2.8457
  113OSM    C1411718   0.212   0.831  11.239 -0.2613 -0.0381  0.2222
  113OSM   H14A11719   0.300   0.769  11.231  1.9885  2.7723  1.4190
  113OSM   H14B11720   0.187   0.861  11.340 -0.8206  0.2111  0.0163
  113OSM   H14C11721   0.236   0.917  11.177  0.7014 -1.2537 -1.1454
  113OSM    C1311722   0.093   0.616  11.249  0.7993  0.0467 -0.1278
  113OSM   H13A11723   0.184   0.562  11.271  0.3631  0.4170  3.1740
  113OSM   H13B11724   0.009   0.561  11.210 -1.0003  1.8454  0.9933
  113OSM   H13C11725   0.063   0.642  11.350  3.0667  2.2039  0.0944
  113OSM    C1211726   0.138   0.721  11.031  0.0245  0.4003  0.0117
  113OSM   H12A11727   0.155   0.817  10.985 -0.2834  1.6306  2.3153
  113OSM   H12B11728   0.048   0.677  10.990  0.8134 -0.9461 -0.3420
  113OSM    C1111729   0.261   0.621  10.999 -0.6435  0.0974 -0.4179
  113OSM   H11A11730   0.260   0.608  10.889 -2.7371 -0.2526 -0.3963
  113OSM   H11B11731   0.234   0.524  11.045  0.1908  0.3329  0.6260
  113OSM      P11732   0.459   0.794  10.984  0.1147  0.0383  0.0140
  113OSM    O1311733   0.401   0.922  11.025 -0.5883  0.2488 -0.0500
  113OSM    O1411734   0.603   0.771  10.994  0.7466  0.5619  0.4327
  113OSM    O1111735   0.415   0.785  10.836  0.0486  0.4671 -0.6605
  113OSM    O1211736   0.382   0.673  11.055 -0.1593  0.0617  0.4114
  113OSM    C1S11737   0.477   0.868  10.736 -0.1281  0.0306  0.1063
  113OSM    H1S11738   0.571   0.817  10.704  0.2960  1.6607 -1.4420
  113OSM    H1T11739   0.504   0.971  10.768 -0.2219 -0.2201  1.0332
  113OSM     NF11740   0.490   0.916  10.494  0.4019  0.1143 -0.0749
  113OSM    HNF11741   0.495   1.014  10.475 -2.6452  0.6092  1.1727
  113OSM    C2S11742   0.401   0.884  10.603  0.1009  0.1611  0.2286
  113OSM    H2S11743   0.360   0.783  10.580  2.6701 -0.8976 -0.0865
  113OSM    C3S11744   0.290   0.989  10.631  0.5874 -0.4118 -0.4422
  113OSM    H3S11745   0.350   1.078  10.661  0.6280  0.2710 -2.4264
  113OSM     O311746   0.202   0.953  10.735 -0.1033 -0.0426 -0.3536
  113OSM    HO311747   0.251   0.888  10.786  0.8819  1.1950  0.3331
  113OSM    C4S11748   0.204   1.018  10.512  0.4810 -0.0698 -0.2462
  113OSM    H4S11749   0.131   0.939  10.491  0.0324  0.3668 -0.3453
  113OSM    C5S11750   0.189   1.131  10.446 -0.4476  0.8012  0.1504
  113OSM    H5S11751   0.245   1.222  10.474 -1.4794  1.7144 -0.6686
  113OSM    C6S11752   0.098   1.142  10.331 -0.3522 -0.2270  1.1532
  113OSM    H6S11753   0.052   1.243  10.332 -0.5164 -0.1794 -1.7132
  113OSM    H6T11754   0.019   1.065  10.346  0.4435 -1.2559  0.2773
  113OSM    C7S11755   0.163   1.133  10.196  0.3266 -0.4968 -0.1170
  113OSM    H7S11756   0.230   1.044  10.201  0.6517 -0.3745 -1.6713
  113OSM    H7T11757   0.230   1.220  10.178  1.1370 -1.3104 -1.2126
  113OSM    C8S11758   0.054   1.126  10.080 -0.2678  0.3633 -0.1955
  113OSM    H8S11759  -0.014   1.213  10.087 -0.3142  0.1910  2.2883
  113OSM    H8T11760  -0.003   1.035  10.108  1.7891 -0.0774  3.1234
  113OSM    C9S11761   0.115   1.109   9.947 -0.3943 -0.6752  0.2610
  113OSM    H9S11762   0.184   1.022   9.945  1.6673  0.8789  0.3166
  113OSM    H9T11763   0.181   1.193   9.917 -2.6583  0.1579 -2.8883
  113OSM   C10S11764   0.013   1.092   9.833  0.0061  0.8111 -0.3254
  113OSM   H10S11765  -0.072   1.162   9.848  0.5126  0.9919  2.0839
  113OSM   H10T11766  -0.024   0.988   9.847  0.9065  0.7081  1.4558
  113OSM   C11S11767   0.066   1.112   9.690  0.2854 -0.3675 -0.5613
  113OSM   H11S11768   0.124   1.023   9.655 -0.5943 -1.2744  0.2123
  113OSM   H11T11769   0.138   1.195   9.703  2.2373 -2.0325 -0.1803
  113OSM   C12S11770  -0.050   1.148   9.592 -0.7938  0.5034  0.0661
  113OSM   H12S11771  -0.119   1.228   9.630 -1.0469  0.8612 -1.1156
  113OSM   H12T11772  -0.103   1.052   9.573 -0.0730 -0.2929  1.8128
  113OSM   C13S11773   0.008   1.196   9.465 -0.4169 -0.1218  0.1615
  113OSM   H13S11774   0.074   1.116   9.427  2.0179  1.7166  0.2829
  113OSM   H13T11775   0.069   1.288   9.479 -1.6953  0.7472  0.2990
  113OSM   C14S11776  -0.104   1.237   9.368  0.0254  0.1938  0.0362
  113OSM   H14S11777  -0.183   1.301   9.413 -0.2204  0.6149 -0.9519
  113OSM   H14T11778  -0.150   1.141   9.339  2.9575 -0.7741 -1.9040
  113OSM   C15S11779  -0.070   1.300   9.231  0.0939 -0.0286  0.7229
  113OSM   H15S11780  -0.017   1.398   9.237 -0.0116 -0.0009  1.2941
  113OSM   H15T11781  -0.169   1.327   9.188 -0.2840 -1.0692  0.9086
  113OSM   C16S11782   0.005   1.203   9.142  0.1358  0.1708  0.1849
  113OSM   H16S11783  -0.049   1.106   9.140  1.3459 -0.5121 -0.1349
  113OSM   H16T11784   0.101   1.181   9.193 -0.6550  0.9362  2.1140
  113OSM   C17S11785   0.029   1.251   9.002 -0.3812  0.6234 -0.1062
  113OSM   H17S11786   0.095   1.340   9.003  0.8971 -0.2528 -1.3937
  113OSM   H17T11787  -0.071   1.286   8.971 -1.5626 -0.8188  1.8742
  113OSM   C18S11788   0.090   1.144   8.910  0.1044  0.2157  0.2788
  113OSM   H18S11789   0.111   1.184   8.809 -0.3094  1.1836  0.5577
  113OSM   H18T11790   0.037   1.047   8.911  2.1667 -0.9609  0.3017
  113OSM   H18U11791   0.181   1.110   8.964 -0.0117 -1.7059 -0.6606
  113OSM    C1F11792   0.551   0.822  10.420 -0.0591 -0.4209 -0.4703
  113OSM     OF11793   0.544   0.703  10.454 -0.3512 -1.1326  0.1113
  113OSM    C2F11794   0.625   0.861  10.300  0.5168  0.8307  0.1754
  113OSM    H2F11795   0.719   0.914  10.330  2.7869 -2.4757 -0.5779
  113OSM    H2G11796   0.571   0.935  10.237  1.4001  1.2168 -0.1484
  113OSM    C3F11797   0.672   0.746  10.214  0.3040  0.0391  0.4376
  113OSM    H3F11798   0.588   0.681  10.180  0.3131  0.6557 -0.8505
  113OSM    H3G11799   0.737   0.684  10.279  3.6005  1.1690 -1.5208
  113OSM    C4F11800   0.750   0.798  10.095 -0.1911 -0.3999  0.6131
  113OSM    H4F11801   0.820   0.881  10.116  1.2267 -1.2543 -0.5403
  113OSM    H4G11802   0.683   0.834  10.014 -0.9916  0.4960  1.6449
  113OSM    C5F11803   0.840   0.689  10.040  0.0735  0.4786  0.0959
  113OSM    H5F11804   0.789   0.591  10.028  1.5670 -0.2139 -0.8709
  113OSM    H5G11805   0.923   0.674  10.113  0.9734 -0.0291 -1.0031
  113OSM    C6F11806   0.913   0.719   9.902 -0.4329  0.3927  0.0951
  113OSM    H6F11807   0.984   0.805   9.913 -0.1587  0.3641 -1.2664
  113OSM    H6G11808   0.836   0.747   9.827 -0.3454  1.3269  0.3326
  113OSM    C7F11809   1.004   0.601   9.858  0.5546  0.0571  0.5857
  113OSM    H7F11810   0.952   0.508   9.890  0.5915 -0.7745 -1.5893
  113OSM    H7G11811   1.095   0.601   9.922  0.6466  2.2181  0.5184
  113OSM    C8F11812   1.043   0.584   9.711 -0.4185  0.3942  0.0361
  113OSM    H8F11813   0.953   0.593   9.646 -0.1891  1.9787 -0.1077
  113OSM    H8G11814   1.080   0.481   9.691 -0.4033  1.0094 -3.9720
  113OSM    C9F11815   1.156   0.679   9.677  0.8693 -1.5112  0.0605
  113OSM    H9F11816   1.246   0.663   9.739  0.3136 -2.0025  0.7523
  113OSM   C10F11817   1.162   0.754   9.554 -0.3221  0.9978 -0.2301
  113OSM   H10F11818   1.253   0.811   9.529 -0.4510  0.3874 -2.2559
  113OSM   C11F11819   1.055   0.751   9.452  0.0030  0.6659  0.1034
  113OSM   H11F11820   0.962   0.809   9.471 -0.5837  0.0818 -0.8999
  113OSM   H11G11821   1.018   0.652   9.417  0.9657  0.8323 -1.5098
  113OSM   C12F11822   1.113   0.816   9.326 -0.1318  0.9133  0.2980
  113OSM   H12F11823   1.201   0.765   9.282  0.1418  2.1676 -0.6628
  113OSM   H12G11824   1.156   0.915   9.350 -0.7406  1.3456 -0.3697
  113OSM   C13F11825   1.011   0.836   9.212 -0.1795  0.4411  0.2211
  113OSM   H13F11826   0.937   0.907   9.254  1.5423  1.2611  2.0224
  113OSM   H13G11827   0.957   0.746   9.174 -1.7214  1.7146 -0.7394
  113OSM   C14F11828   1.096   0.892   9.090  0.1534  0.2348  0.0001
  113OSM   H14F11829   1.177   0.821   9.064  0.9394  0.7668  0.9351
  113OSM   H14G11830   1.133   0.991   9.124  0.4071 -0.3141  1.3939
  113OSM   C15F11831   1.021   0.923   8.964 -0.1918  0.3195 -0.2432
  113OSM   H15F11832   0.964   1.017   8.975  1.3397  1.1454  1.0756
  113OSM   H15G11833   0.936   0.854   8.946 -0.1895  0.0565  0.6616
  113OSM   C16F11834   1.118   0.914   8.848 -0.2640 -0.4394 -0.1921
  113OSM   H16F11835   1.187   0.827   8.856  1.1759  0.7710  1.3010
  113OSM   H16G11836   1.180   1.006   8.850 -0.2880 -0.3993 -0.9209
  113OSM   C17F11837   1.053   0.928   8.710 -0.9350  0.2347 -0.0964
  113OSM   H17F11838   1.001   1.025   8.700 -0.2772  0.6653  0.6263
  113OSM   H17G11839   0.989   0.840   8.685  1.1836 -0.9194 -1.8597
  113OSM   C18F11840   1.162   0.917   8.605 -0.8050 -0.9509 -0.3118
  113OSM   H18F11841   1.107   0.899   8.510 -0.7973 -0.4825 -0.4043
  113OSM   H18G11842   1.226   0.827   8.617 -0.6649 -0.8236 -0.0825
  113OSM   H18H11843   1.217   1.012   8.594  0.9598 -1.7856  0.8494
  114OSM      N11844   3.081   2.784  11.133 -0.0168 -0.0004  0.5433
  114OSM    C1511845   3.109   2.639  11.166  0.0670  0.4544 -0.5638
  114OSM   H15A11846   3.067   2.570  11.094 -0.8800  1.8746 -1.4093
  114OSM   H15B11847   3.077   2.611  11.266  1.0450  1.8279  0.1707
  114OSM   H15C11848   3.215   2.621  11.174 -0.0881  0.2958  3.2743
  114OSM    C1411849   3.143   2.855  11.246 -0.2292  0.5882  0.9774
  114OSM   H14A11850   3.249   2.833  11.245 -0.5469 -1.0085  0.5837
  114OSM   H14B11851   3.099   2.839  11.343 -2.2311  0.1706  0.0487
  114OSM   H14C11852   3.150   2.963  11.236  0.2801  0.3410 -2.3557
  114OSM    C1311853   3.149   2.813  10.997  0.4934 -0.1092  0.1198
  114OSM   H13A11854   3.119   2.914  10.974  2.0012  0.3309 -0.0210
  114OSM   H13B11855   3.111   2.749  10.919  2.2305 -0.7294 -0.2662
  114OSM   H13C11856   3.256   2.822  11.003  0.7275  1.8444 -3.9726
  114OSM    C1211857   2.931   2.810  11.120  0.4093  0.1136  0.5167
  114OSM   H12A11858   2.908   2.916  11.122  1.2121  0.3192 -0.2322
  114OSM   H12B11859   2.888   2.767  11.209 -0.8477  0.1352 -0.0644
  114OSM    C1111860   2.858   2.738  11.003  0.4616 -0.5566  0.7617
  114OSM   H11A11861   2.881   2.633  10.976 -0.6982 -0.4598 -0.7962
  114OSM   H11B11862   2.894   2.802  10.919  0.1462  1.5351  2.1526
  114OSM      P11863   2.611   2.749  10.913  0.1909  0.4424 -0.1953
  114OSM    O1311864   2.501   2.670  10.968  0.5357 -0.6796  0.3025
  114OSM    O1411865   2.587   2.890  10.861  0.1190  0.3688 -0.8228
  114OSM    O1111866   2.671   2.664  10.800  0.2116 -0.2964  0.6175
  114OSM    O1211867   2.720   2.751  11.030  0.6365  0.5001 -0.4603
  114OSM    C1S11868   2.586   2.627  10.686 -0.0658  0.0239  0.1741
  114OSM    H1S11869   2.483   2.669  10.692  0.0261  0.2795  0.0124
  114OSM    H1T11870   2.588   2.517  10.669 -0.5632 -0.0941  0.8654
  114OSM     NF11871   2.545   2.678  10.448 -0.1455  0.1439 -0.1060
  114OSM    HNF11872   2.546   2.590  10.402  0.6847 -0.4895  1.0564
  114OSM    C2S11873   2.639   2.688  10.554 -0.0722 -0.0220  0.1026
  114OSM    H2S11874   2.669   2.794  10.567  3.5023 -1.0158  1.0342
  114OSM    C3S11875   2.776   2.619  10.522 -0.1381 -0.8022  0.7859
  114OSM    H3S11876   2.754   2.511  10.509  1.4251 -1.0232 -0.1863
  114OSM     O311877   2.892   2.633  10.611 -0.5059 -0.4774 -0.3313
  114OSM    HO311878   2.850   2.670  10.690  1.7288  1.6880 -0.0243
  114OSM    C4S11879   2.827   2.650  10.383  0.4984  0.2653  0.1639
  114OSM    H4S11880   2.800   2.572  10.311 -1.1776  0.6496  0.3215
  114OSM    C5S11881   2.894   2.759  10.340 -0.7146  0.8683  0.4533
  114OSM    H5S11882   2.917   2.829  10.421  2.5894  0.7322 -0.2293
  114OSM    C6S11883   2.953   2.783  10.207  0.1674 -0.0796 -0.6300
  114OSM    H6S11884   3.064   2.782  10.207  0.2000  0.8870  1.0033
  114OSM    H6T11885   2.920   2.886  10.182 -0.6730  0.2049  1.4821
  114OSM    C7S11886   2.915   2.693  10.083  0.3065  0.2446  0.3206
  114OSM    H7S11887   2.805   2.697  10.068  0.3443  0.0615 -0.0116
  114OSM    H7T11888   2.942   2.587  10.104  1.9606  0.6472  0.3431
  114OSM    C8S11889   2.964   2.727   9.944 -0.0731  0.1363  0.5663
  114OSM    H8S11890   3.048   2.658   9.921  1.5583  1.7843  1.3585
  114OSM    H8T11891   2.999   2.832   9.938  0.1123  0.0939  0.8910
  114OSM    C9S11892   2.851   2.695   9.838  0.2910 -0.4538  0.3822
  114OSM    H9S11893   2.774   2.772   9.861  0.3944 -0.6150  1.2961
  114OSM    H9T11894   2.806   2.594   9.836  0.2687 -0.4749 -2.4511
  114OSM   C10S11895   2.914   2.725   9.695  1.2133 -0.4981 -0.0091
  114OSM   H10S11896   2.996   2.654   9.674 -0.0595 -2.1654  0.4533
  114OSM   H10T11897   2.938   2.832   9.678  0.6819 -0.8357 -3.5129
  114OSM   C11S11898   2.804   2.704   9.589  0.1331  0.3079 -1.0032
  114OSM   H11S11899   2.728   2.779   9.619  0.4176  0.3182 -0.2993
  114OSM   H11T11900   2.772   2.599   9.606 -0.8918  0.7571 -0.0429
  114OSM   C12S11901   2.854   2.722   9.447  0.5949 -0.3470 -0.5822
  114OSM   H12S11902   2.905   2.821   9.446 -0.0309  0.0110  0.9488
  114OSM   H12T11903   2.762   2.730   9.386  0.5347  1.8388 -0.2581
  114OSM   C13S11904   2.949   2.618   9.381  0.2690  0.3318  0.1451
  114OSM   H13S11905   2.910   2.521   9.420  1.2690 -0.7825 -1.4807
  114OSM   H13T11906   3.047   2.626   9.432 -0.6851  0.9606  1.9761
  114OSM   C14S11907   2.959   2.643   9.228 -0.0999  0.1039 -0.8322
  114OSM   H14S11908   3.041   2.717   9.226  0.3666 -0.4101 -1.2001
  114OSM   H14T11909   2.874   2.688   9.173  0.8329  0.4803 -2.0284
  114OSM   C15S11910   3.002   2.512   9.152 -0.1020  0.5027  0.0979
  114OSM   H15S11911   2.911   2.449   9.158  0.0571 -0.0510 -2.3452
  114OSM   H15T11912   3.078   2.464   9.217 -4.9918 -4.3830  3.0658
  114OSM   C16S11913   3.054   2.535   9.011 -0.8559 -0.2718  0.9070
  114OSM   H16S11914   3.122   2.621   8.993 -0.6515 -0.1371  2.2782
  114OSM   H16T11915   2.965   2.554   8.946  0.7681 -0.3803 -1.5010
  114OSM   C17S11916   3.139   2.413   8.968  0.0724  0.3236  0.0088
  114OSM   H17S11917   3.074   2.324   8.982 -2.4234  1.9230 -0.6337
  114OSM   H17T11918   3.227   2.404   9.035  0.7509  1.3273 -0.7177
  114OSM   C18S11919   3.170   2.410   8.818 -0.0136 -0.1893 -1.0727
  114OSM   H18S11920   3.271   2.456   8.812 -0.2813  0.3513 -1.5063
  114OSM   H18T11921   3.106   2.479   8.758 -1.1769 -0.1748  0.1192
  114OSM   H18U11922   3.172   2.306   8.779 -1.6032 -1.0122  0.8511
  114OSM    C1F11923   2.440   2.759  10.437  0.0491  0.4448  0.8487
  114OSM     OF11924   2.431   2.864  10.501 -0.4940 -0.2056  0.5336
  114OSM    C2F11925   2.329   2.717  10.342 -0.3749  0.0500 -0.0052
  114OSM    H2F11926   2.238   2.711  10.405  0.2696 -0.9458  0.8591
  114OSM    H2G11927   2.347   2.610  10.316  1.6373 -0.4370  2.9107
  114OSM    C3F11928   2.310   2.825  10.233 -0.2216 -0.3457 -0.4191
  114OSM    H3F11929   2.328   2.923  10.281  0.8742 -1.2036  1.0324
  114OSM    H3G11930   2.205   2.829  10.196 -1.2064 -0.5920  2.1340
  114OSM    C4F11931   2.416   2.804  10.127 -0.0078 -0.3280 -0.0844
  114OSM    H4F11932   2.402   2.703  10.084  1.5590 -2.0289  3.0377
  114OSM    H4G11933   2.511   2.818  10.183 -0.7720  0.4606  1.0659
  114OSM    C5F11934   2.422   2.908  10.008  0.4972 -0.6102 -0.4443
  114OSM    H5F11935   2.520   2.901   9.956  2.0819  3.2417  1.5940
  114OSM    H5G11936   2.413   3.009  10.055 -2.3770 -1.6685  1.5543
  114OSM    C6F11937   2.306   2.872   9.903 -0.2703 -0.2952 -0.1206
  114OSM    H6F11938   2.207   2.892   9.950 -0.3071  0.4556 -0.5058
  114OSM    H6G11939   2.292   2.764   9.882 -0.9230 -0.0772 -0.8416
  114OSM    C7F11940   2.314   2.955   9.769  0.2054  0.4408 -1.2302
  114OSM    H7F11941   2.422   2.946   9.745  0.0826 -0.4077 -1.4868
  114OSM    H7G11942   2.297   3.061   9.799  0.0183 -0.0777  0.6155
  114OSM    C8F11943   2.223   2.901   9.653 -0.3494  0.3083 -0.2821
  114OSM    H8F11944   2.119   2.905   9.693 -0.6365 -1.7450 -0.6858
  114OSM    H8G11945   2.249   2.793   9.646  1.3140  0.7840 -2.5023
  114OSM    C9F11946   2.223   2.963   9.524 -0.1225 -0.7219  0.5323
  114OSM    H9F11947   2.134   3.023   9.501 -0.8418 -2.4707 -1.6004
  114OSM   C10F11948   2.310   2.954   9.416 -0.5926  0.1576 -0.1385
  114OSM   H10F11949   2.300   3.010   9.322  1.1369 -0.3615 -0.6715
  114OSM   C11F11950   2.432   2.861   9.430  0.1005  0.1744  0.0690
  114OSM   H11F11951   2.434   2.811   9.529  0.8347 -0.6131 -0.3349
  114OSM   H11G11952   2.519   2.931   9.427  0.3779 -0.0309  1.9087
  114OSM   C12F11953   2.450   2.748   9.326  0.4544 -0.1019  0.0318
  114OSM   H12F11954   2.351   2.698   9.329 -0.4778  1.5617 -1.2494
  114OSM   H12G11955   2.540   2.691   9.359  1.7031  0.2379 -2.5242
  114OSM   C13F11956   2.490   2.788   9.193  0.1652 -0.1871 -0.6410
  114OSM   H13F11957   2.595   2.824   9.199  0.4459 -1.1509  0.4373
  114OSM   H13G11958   2.421   2.867   9.155  0.1706  1.5807  2.6257
  114OSM   C14F11959   2.493   2.682   9.085 -0.3753 -0.1927  0.0319
  114OSM   H14F11960   2.472   2.583   9.131 -2.8310 -0.3102 -1.2120
  114OSM   H14G11961   2.593   2.674   9.038 -1.1579 -2.1319 -1.4192
  114OSM   C15F11962   2.384   2.711   8.977  0.2528  0.0788  0.1382
  114OSM   H15F11963   2.403   2.807   8.923 -0.3172  0.3889  0.4824
  114OSM   H15G11964   2.292   2.709   9.039 -0.2192 -0.3863 -0.5629
  114OSM   C16F11965   2.377   2.588   8.889  0.0082  0.6918  0.1768
  114OSM   H16F11966   2.407   2.497   8.944  1.5121 -1.2436 -3.5090
  114OSM   H16G11967   2.460   2.600   8.816 -0.1057  2.6068  0.2886
  114OSM   C17F11968   2.235   2.584   8.822 -0.0051  0.4373  0.1744
  114OSM   H17F11969   2.187   2.682   8.803 -0.8102 -0.0226 -0.1979
  114OSM   H17G11970   2.159   2.539   8.889 -2.6093  0.5616 -2.5008
  114OSM   C18F11971   2.237   2.514   8.686  0.4932  0.0997 -0.5234
  114OSM   H18F11972   2.275   2.578   8.604 -1.5364  4.3660  1.5617
  114OSM   H18G11973   2.132   2.481   8.666 -0.0194  1.2853  0.1309
  114OSM   H18H11974   2.291   2.417   8.695 -2.1491 -1.4612 -0.1674
  115OSM      N11975   0.366   2.467  11.260  0.9541 -0.4432  0.5149
  115OSM    C1511976   0.373   2.566  11.151 -0.8132  0.5249  0.0596
  115OSM   H15A11977   0.472   2.569  11.107 -0.5525 -1.0045  0.4849
  115OSM   H15B11978   0.335   2.660  11.188 -0.7767  0.7538 -0.4854
  115OSM   H15C11979   0.309   2.537  11.069 -0.7709  2.4270 -0.6923
  115OSM    C1411980   0.437   2.512  11.385 -0.0579 -0.2624  0.4775
  115OSM   H14A11981   0.391   2.605  11.413  0.1738  0.2507 -0.7875
  115OSM   H14B11982   0.542   2.534  11.377  0.5487 -2.4067  1.6187
  115OSM   H14C11983   0.428   2.441  11.467 -0.3308 -1.7866 -0.8159
  115OSM    C1311984   0.221   2.430  11.289 -0.0188  0.0688  0.3129
  115OSM   H13A11985   0.180   2.392  11.197 -0.1795 -0.3406  0.5519
  115OSM   H13B11986   0.162   2.508  11.334 -0.9065 -0.5322  0.2009
  115OSM   H13C11987   0.226   2.358  11.369  1.3777 -0.2891 -0.0593
  115OSM    C1211988   0.434   2.338  11.210  0.1050 -0.6229 -0.8850
  115OSM   H12A11989   0.397   2.255  11.268  1.2486  0.1600  1.0560
  115OSM   H12B11990   0.540   2.350  11.229 -0.2202  1.1398  0.0513
  115OSM    C1111991   0.408   2.299  11.064  0.2627  0.0181 -0.2271
  115OSM   H11A11992   0.452   2.197  11.052 -0.7706 -0.5933  0.9526
  115OSM   H11B11993   0.452   2.363  10.984 -2.5322 -0.9125 -2.7111
  115OSM      P11994   0.173   2.343  10.933 -0.3018  0.2644 -0.5647
  115OSM    O1311995   0.062   2.250  10.904  0.9685  0.2233  0.0359
  115OSM    O1411996   0.128   2.473  10.985 -0.0499 -0.6840  0.0431
  115OSM    O1111997   0.258   2.361  10.800 -0.0202 -0.3376  0.9412
  115OSM    O1211998   0.269   2.283  11.047  0.6701  0.2000 -0.0254
  115OSM    C1S11999   0.230   2.488  10.740  0.0773 -0.3107 -0.6926
  115OSM    H1S12000   0.278   2.567  10.802  1.0342 -1.6443  0.3325
  115OSM    H1T12001   0.124   2.511  10.721  0.5955  1.8786 -1.1703
  115OSM     NF12002   0.255   2.644  10.547  0.2603  0.0629  0.4838
  115OSM    HNF12003   0.174   2.635  10.489  1.2560 -1.1718 -0.7658
  115OSM    C2S12004   0.291   2.510  10.600 -0.5334 -0.0337  0.5499
  115OSM    H2S12005   0.401   2.507  10.617 -0.2076 -0.5362 -1.3905
  115OSM    C3S12006   0.263   2.389  10.499 -0.5382 -0.9298  0.2226
  115OSM    H3S12007   0.152   2.381  10.489 -0.6477  1.2263 -0.8780
  115OSM     O312008   0.307   2.267  10.551 -0.5499  0.3812  0.5443
  115OSM    HO312009   0.318   2.281  10.645  1.1312  0.7290  0.3192
  115OSM    C4S12010   0.322   2.423  10.364  0.8758  0.0789  0.3600
  115OSM    H4S12011   0.432   2.426  10.375  1.0883 -3.1828  0.0434
  115OSM    C5S12012   0.258   2.420  10.248  0.2878 -0.1017  0.7801
  115OSM    H5S12013   0.155   2.383  10.238  1.4529 -3.5138  0.0258
  115OSM    C6S12014   0.325   2.439  10.107  0.0803 -0.3062  0.4333
  115OSM    H6S12015   0.263   2.513  10.052 -1.7688 -1.0497  1.4243
  115OSM    H6T12016   0.330   2.350  10.041  2.0760  0.8803 -1.1447
  115OSM    C7S12017   0.463   2.509  10.106  0.0548  0.0417 -0.1554
  115OSM    H7S12018   0.536   2.438  10.149  0.3772  0.6535  0.3223
  115OSM    H7T12019   0.468   2.593  10.179 -2.0604 -0.0078  0.1189
  115OSM    C8S12020   0.505   2.584   9.979  0.1803  0.0362 -1.1487
  115OSM    H8S12021   0.610   2.617   9.997  0.5177 -0.7965 -1.5354
  115OSM    H8T12022   0.445   2.677   9.969 -1.5230 -0.5324  2.2661
  115OSM    C9S12023   0.505   2.500   9.852  0.1362  0.4927 -0.3624
  115OSM    H9S12024   0.407   2.452   9.831  0.0926  0.4097  0.0312
  115OSM    H9T12025   0.571   2.417   9.885  0.4731  0.8870 -0.0450
  115OSM   C10S12026   0.547   2.567   9.721  0.2966 -0.7912 -0.5689
  115OSM   H10S12027   0.642   2.621   9.740 -0.0672 -0.7566  1.3344
  115OSM   H10T12028   0.469   2.637   9.685  0.6890 -0.2752 -0.4359
  115OSM   C11S12029   0.564   2.465   9.601  0.4724  0.2729 -0.3529
  115OSM   H11S12030   0.470   2.409   9.583 -1.3563  2.3904  1.9385
  115OSM   H11T12031   0.648   2.396   9.624  0.7802 -0.1305 -2.4759
  115OSM   C12S12032   0.589   2.544   9.473 -1.2925  0.2704  0.1910
  115OSM   H12S12033   0.687   2.594   9.489  1.0731 -3.2405 -1.8875
  115OSM   H12T12034   0.512   2.623   9.461  0.8345  2.3379 -0.5788
  115OSM   C13S12035   0.597   2.463   9.345 -0.8768 -0.2376  0.5096
  115OSM   H13S12036   0.495   2.417   9.345 -1.2380  0.3350  3.5105
  115OSM   H13T12037   0.668   2.377   9.348  0.0937  0.5404  0.0254
  115OSM   C14S12038   0.642   2.547   9.232 -0.5785 -0.0046 -0.2795
  115OSM   H14S12039   0.733   2.605   9.256 -0.6742  0.3037 -0.6494
  115OSM   H14T12040   0.577   2.633   9.205  0.1237 -0.1516 -2.6962
  115OSM   C15S12041   0.669   2.478   9.091 -0.7788  0.1049 -1.1370
  115OSM   H15S12042   0.705   2.374   9.108 -1.5212 -0.0979 -0.7864
  115OSM   H15T12043   0.752   2.532   9.040 -0.1773  1.2780  0.9595
  115OSM   C16S12044   0.544   2.489   9.002 -1.1936  0.0329 -0.2033
  115OSM   H16S12045   0.511   2.595   8.994 -1.8438 -0.2819 -1.9079
  115OSM   H16T12046   0.467   2.434   9.061 -0.0740 -1.9587 -0.5175
  115OSM   C17S12047   0.559   2.439   8.855 -1.2155  0.4391 -0.4372
  115OSM   H17S12048   0.462   2.473   8.812 -2.2564  0.8570  2.0432
  115OSM   H17T12049   0.555   2.328   8.866 -0.1904  0.5596  1.5202
  115OSM   C18S12050   0.678   2.497   8.776  0.3069  0.5835 -0.4836
  115OSM   H18S12051   0.774   2.456   8.810 -1.4335 -2.6063  0.9776
  115OSM   H18T12052   0.674   2.608   8.782  1.7577  0.7586 -2.0628
  115OSM   H18U12053   0.656   2.471   8.670  0.7065 -1.5980 -0.0667
  115OSM    C1F12054   0.285   2.766  10.592 -0.4420  1.2551  0.4657
  115OSM     OF12055   0.381   2.784  10.662 -0.6020  0.0890  0.0974
  115OSM    C2F12056   0.194   2.881  10.554  0.2249 -0.0714 -0.6447
  115OSM    H2F12057   0.266   2.960  10.524  0.3297 -0.7810 -2.3762
  115OSM    H2G12058   0.129   2.921  10.635 -0.1110  1.3447 -1.5780
  115OSM    C3F12059   0.116   2.855  10.426  0.4547 -0.1928  0.5781
  115OSM    H3F12060   0.042   2.938  10.423  2.0672  1.3058 -2.8841
  115OSM    H3G12061   0.062   2.758  10.432 -2.7035  1.3611 -0.0990
  115OSM    C4F12062   0.186   2.853  10.287  0.5463  0.1485 -0.3401
  115OSM    H4F12063   0.266   2.778  10.302  1.6908  1.2807 -0.5980
  115OSM    H4G12064   0.239   2.947  10.262  1.5153 -0.8303 -2.1710
  115OSM    C5F12065   0.082   2.812  10.182 -0.1153  0.3868  0.1784
  115OSM    H5F12066   0.019   2.903  10.193  0.5053  1.2149 -2.4139
  115OSM    H5G12067   0.017   2.730  10.219 -0.6963  0.4688 -0.6236
  115OSM    C6F12068   0.137   2.791  10.037 -0.7061  0.3961 -0.7582
  115OSM    H6F12069   0.219   2.718  10.051  0.1008  1.4371  0.1231
  115OSM    H6G12070   0.176   2.886   9.995  1.9414 -1.3573 -2.5187
  115OSM    C7F12071   0.040   2.731   9.938  0.4591  0.5384  0.6211
  115OSM    H7F12072  -0.045   2.803   9.938  1.8310  2.2197  0.8154
  115OSM    H7G12073  -0.002   2.635   9.975 -0.4632  0.4920 -0.4851
  115OSM    C8F12074   0.100   2.712   9.798  0.3965  0.0647  0.4356
  115OSM    H8F12075   0.181   2.636   9.801 -0.6242 -1.0360  1.7523
  115OSM    H8G12076   0.147   2.809   9.773 -1.9026  1.9885  2.9618
  115OSM    C9F12077  -0.009   2.667   9.702 -0.7112 -0.4791 -0.0631
  115OSM    H9F12078  -0.112   2.702   9.717 -0.5864  0.2514 -0.8540
  115OSM   C10F12079   0.014   2.568   9.615 -0.1997 -0.4071 -0.2038
  115OSM   H10F12080  -0.074   2.528   9.562 -1.4963 -0.4508  1.8836
  115OSM   C11F12081   0.143   2.503   9.589 -0.3179 -0.0904 -0.1774
  115OSM   H11F12082   0.177   2.445   9.677  0.2265  0.4447 -0.0234
  115OSM   H11G12083   0.220   2.583   9.586 -0.2099 -0.1743  0.2390
  115OSM   C12F12084   0.149   2.420   9.462 -0.0077 -0.0003 -0.3600
  115OSM   H12F12085   0.068   2.344   9.456  0.3774 -0.5951  1.4553
  115OSM   H12G12086   0.243   2.362   9.467  0.2600  0.5090  0.8489
  115OSM   C13F12087   0.146   2.500   9.330 -0.1056 -0.2486 -0.4855
  115OSM   H13F12088   0.217   2.585   9.333 -2.2025  1.6058 -0.8461
  115OSM   H13G12089   0.050   2.555   9.317 -0.3243 -0.5074  0.0261
  115OSM   C14F12090   0.172   2.420   9.206 -0.3148  0.9085  0.1649
  115OSM   H14F12091   0.081   2.358   9.189  1.7337 -2.4793  0.6729
  115OSM   H14G12092   0.250   2.341   9.207  0.0141  1.1968  2.5627
  115OSM   C15F12093   0.194   2.510   9.078 -0.4077  0.2701 -0.5721
  115OSM   H15F12094   0.285   2.571   9.091 -0.2608 -0.0715  0.0626
  115OSM   H15G12095   0.097   2.563   9.088  0.3763  1.4432  1.3573
  115OSM   C16F12096   0.191   2.427   8.952 -0.2955 -0.4913 -0.0917
  115OSM   H16F12097   0.111   2.350   8.954  0.4256 -1.2473  0.3271
  115OSM   H16G12098   0.285   2.369   8.937 -0.3274 -0.8579  1.0178
  115OSM   C17F12099   0.143   2.509   8.837  0.8244  0.2722  0.2886
  115OSM   H17F12100   0.214   2.593   8.824 -0.4467  1.5020  0.9883
  115OSM   H17G12101   0.036   2.538   8.846  0.2916 -1.5338  0.1416
  115OSM   C18F12102   0.155   2.429   8.704  0.0956 -0.0842 -0.6993
  115OSM   H18F12103   0.072   2.357   8.690  0.9835 -1.6602  1.6171
  115OSM   H18G12104   0.254   2.380   8.700 -0.4500 -1.1735 -1.2056
  115OSM   H18H12105   0.140   2.506   8.625 -2.9386  0.6794  0.4670
  116OSM      N12106   2.130   6.088  10.903  0.2340 -0.3439 -0.8051
  116OSM    C1512107   2.015   6.046  10.999  0.4482 -0.0520 -0.3665
  116OSM   H15A12108   2.040   6.044  11.104  1.4765 -0.2260 -0.6107
  116OSM   H15B12109   1.969   5.955  10.964  1.3026 -0.6438  0.0331
  116OSM   H15C12110   1.936   6.120  10.996  0.3193 -0.2027 -0.8290
  116OSM    C1412111   2.074   6.180  10.799 -0.2999 -0.1394  0.2677
  116OSM   H14A12112   2.027   6.266  10.845  0.0852  1.0236 -1.4214
  116OSM   H14B12113   1.994   6.128  10.748 -1.7820 -0.3957  2.6510
  116OSM   H14C12114   2.145   6.232  10.738  1.8216 -0.2652  2.4678
  116OSM    C1312115   2.235   6.146  10.983 -0.0377  0.0761  0.2327
  116OSM   H13A12116   2.283   6.087  11.059 -1.4790 -0.1697  0.9855
  116OSM   H13B12117   2.211   6.241  11.030  0.4581  1.5938 -2.3466
  116OSM   H13C12118   2.316   6.152  10.912 -0.2657  1.4156  0.0429
  116OSM    C1212119   2.189   5.963  10.836 -0.0368 -0.6367 -0.3095
  116OSM   H12A12120   2.240   5.912  10.916  1.2396  1.4836  0.3240
  116OSM   H12B12121   2.270   6.001  10.775  1.1373  0.8757  2.0564
  116OSM    C1112122   2.103   5.863  10.763  0.0339 -0.2381 -1.1333
  116OSM   H11A12123   2.164   5.801  10.695  0.0347  0.8615 -2.1604
  116OSM   H11B12124   2.017   5.909  10.709 -1.4335  0.4609  1.5818
  116OSM      P12125   2.110   5.647  10.917 -0.2018  0.3277 -0.0593
  116OSM    O1312126   2.240   5.686  10.986  0.1317 -0.4538  0.0001
  116OSM    O1412127   2.018   5.560  11.000  0.4708 -0.5304 -0.0661
  116OSM    O1112128   2.144   5.565  10.789 -0.0551  0.1159 -0.1777
  116OSM    O1212129   2.035   5.779  10.860 -0.1237  0.1248  0.1733
  116OSM    C1S12130   2.156   5.427  10.769 -0.4617  0.2642 -0.6309
  116OSM    H1S12131   2.122   5.366  10.855 -1.1274  0.6783 -0.5899
  116OSM    H1T12132   2.263   5.401  10.753 -0.3401  0.0120  0.5047
  116OSM     NF12133   2.091   5.246  10.607 -0.4338 -0.2229 -0.5113
  116OSM    HNF12134   2.151   5.209  10.537 -1.1107 -0.1483 -1.1375
  116OSM    C2S12135   2.096   5.393  10.635  0.2823 -0.2950  0.5481
  116OSM    H2S12136   1.989   5.419  10.651  0.2430 -0.6147  0.8329
  116OSM    C3S12137   2.157   5.469  10.515 -0.0652  0.5130 -0.5591
  116OSM    H3S12138   2.261   5.433  10.499 -0.2878  0.2629 -1.4783
  116OSM     O312139   2.169   5.608  10.533  0.3418  0.1997 -0.3640
  116OSM    HO312140   2.147   5.622  10.625 -0.1165  1.6400 -0.6647
  116OSM    C4S12141   2.091   5.429  10.386 -1.0942 -0.7490  0.6357
  116OSM    H4S12142   2.145   5.345  10.339 -1.1871 -1.0069  0.9806
  116OSM    C5S12143   1.995   5.480  10.321 -0.0548  0.2708  0.2388
  116OSM    H5S12144   1.939   5.566  10.360  0.6408  1.2784 -0.9037
  116OSM    C6S12145   1.940   5.413  10.202  0.2911  0.1874  0.8750
  116OSM    H6S12146   1.896   5.315  10.231 -1.1703  1.2462  2.4917
  116OSM    H6T12147   2.017   5.388  10.126  0.7165  2.5052  0.4549
  116OSM    C7S12148   1.836   5.496  10.115  0.3593  0.0711 -0.0250
  116OSM    H7S12149   1.888   5.580  10.063 -0.2298 -0.3020 -1.2446
  116OSM    H7T12150   1.748   5.538  10.168  0.5043  0.9743 -0.4751
  116OSM    C8S12151   1.776   5.405   9.997  0.2207  0.5405  0.2399
  116OSM    H8S12152   1.738   5.308  10.036 -0.8697  0.4863 -0.8953
  116OSM    H8T12153   1.850   5.375   9.920 -1.2206 -2.1659 -0.2184
  116OSM    C9S12154   1.664   5.483   9.928  0.4517  0.5395  0.2238
  116OSM    H9S12155   1.691   5.591   9.926  0.9017  0.4471  1.0402
  116OSM    H9T12156   1.573   5.467   9.990 -1.2402  0.2995 -2.1668
  116OSM   C10S12157   1.639   5.435   9.782 -0.0783 -0.2920 -0.0461
  116OSM   H10S12158   1.614   5.326   9.785 -2.7775  0.2615  1.1176
  116OSM   H10T12159   1.738   5.452   9.734 -0.1259  0.7547  0.2195
  116OSM   C11S12160   1.522   5.503   9.719  0.6103  0.1495  0.4816
  116OSM   H11S12161   1.528   5.614   9.726 -1.0479  0.2292  0.9296
  116OSM   H11T12162   1.426   5.469   9.763  0.0518  0.2253 -0.6277
  116OSM   C12S12163   1.515   5.467   9.571 -0.5196  0.0109 -0.1610
  116OSM   H12S12164   1.508   5.356   9.567  2.6932 -0.3582  1.2975
  116OSM   H12T12165   1.612   5.495   9.525 -0.8458  0.0926 -0.8204
  116OSM   C13S12166   1.403   5.546   9.493  0.0843  0.7363  0.1443
  116OSM   H13S12167   1.415   5.656   9.508  0.4542  0.9281 -1.4339
  116OSM   H13T12168   1.298   5.524   9.525 -0.2732  2.8408  0.6312
  116OSM   C14S12169   1.389   5.528   9.342 -0.6221  0.5263 -0.7559
  116OSM   H14S12170   1.353   5.424   9.326  1.6571 -0.5242  0.4701
  116OSM   H14T12171   1.491   5.533   9.298  1.1482 -2.2283  2.5544
  116OSM   C15S12172   1.290   5.626   9.280  0.5795  0.1651 -0.5009
  116OSM   H15S12173   1.312   5.732   9.305 -1.6252  0.2940  1.1486
  116OSM   H15T12174   1.194   5.606   9.332  0.0396  1.1391 -1.1014
  116OSM   C16S12175   1.258   5.600   9.130  0.1202  0.3052 -0.0216
  116OSM   H16S12176   1.335   5.542   9.075 -0.7676  0.2380 -1.2468
  116OSM   H16T12177   1.256   5.697   9.075 -1.2625  0.5086  0.3535
  116OSM   C17S12178   1.124   5.540   9.105  0.7945  0.6377 -0.6557
  116OSM   H17S12179   1.037   5.594   9.149 -0.8858 -0.7077 -2.1405
  116OSM   H17T12180   1.124   5.432   9.131 -0.4226  0.8789  0.4933
  116OSM   C18S12181   1.085   5.543   8.952 -0.6510 -0.1286  0.0114
  116OSM   H18S12182   0.987   5.496   8.928 -1.0609  0.6780  0.0752
  116OSM   H18T12183   1.164   5.484   8.899  0.4491  2.6015 -1.5839
  116OSM   H18U12184   1.085   5.651   8.926 -0.6525  0.4683  2.3078
  116OSM    C1F12185   2.029   5.157  10.681  0.8701  0.6039 -0.1571
  116OSM     OF12186   1.965   5.188  10.778  0.0608 -0.0188 -0.0026
  116OSM    C2F12187   2.033   5.013  10.635  1.1927  0.4292  0.0235
  116OSM    H2F12188   2.056   4.951  10.724  1.0668  1.4864  0.8235
  116OSM    H2G12189   2.115   5.011  10.561 -1.2475 -0.3815 -2.8698
  116OSM    C3F12190   1.902   4.966  10.566 -0.3436 -0.5773 -0.4529
  116OSM    H3F12191   1.826   4.986  10.644 -1.3630  0.6426 -1.7113
  116OSM    H3G12192   1.905   4.855  10.557  3.1544 -0.6547  0.1991
  116OSM    C4F12193   1.850   5.033  10.429 -0.3804  0.2894 -0.2107
  116OSM    H4F12194   1.927   5.092  10.375  0.8451  0.7236  1.9139
  116OSM    H4G12195   1.778   5.117  10.434 -1.5457 -0.4752 -2.4670
  116OSM    C5F12196   1.800   4.928  10.330  0.2134 -0.8200 -0.6877
  116OSM    H5F12197   1.701   4.888  10.362 -0.0350  0.1724 -0.1597
  116OSM    H5G12198   1.877   4.850  10.346  0.0535 -0.3687  3.2124
  116OSM    C6F12199   1.777   4.982  10.184 -0.0109 -0.0658 -0.0541
  116OSM    H6F12200   1.875   5.011  10.140  0.2992 -0.6646  0.2331
  116OSM    H6G12201   1.715   5.074  10.191  1.4664  1.3262 -3.0257
  116OSM    C7F12202   1.696   4.879  10.103  0.0685 -0.1258  0.4104
  116OSM    H7F12203   1.592   4.890  10.140  0.1208 -1.7277  1.1123
  116OSM    H7G12204   1.726   4.777  10.133 -0.9071 -0.4326  0.3486
  116OSM    C8F12205   1.732   4.903   9.957 -0.2140  0.2316 -0.1499
  116OSM    H8F12206   1.841   4.886   9.945  0.0054 -0.5195  2.2419
  116OSM    H8G12207   1.710   5.012   9.954 -1.3127  0.0642  0.9737
  116OSM    C9F12208   1.652   4.824   9.860 -0.4161 -0.3696  0.6515
  116OSM    H9F12209   1.679   4.718   9.868  1.6938  0.2219  2.4315
  116OSM   C10F12210   1.575   4.874   9.757 -0.3833  0.8071 -0.0231
  116OSM   H10F12211   1.514   4.794   9.713  1.7578 -0.1174 -1.4882
  116OSM   C11F12212   1.540   5.017   9.717 -0.3037  0.3348 -0.8449
  116OSM   H11F12213   1.561   5.074   9.809 -0.2694 -0.7894 -0.1390
  116OSM   H11G12214   1.433   5.026   9.689 -1.1217  1.1267  2.1801
  116OSM   C12F12215   1.628   5.074   9.600  0.8552 -0.7443 -0.8669
  116OSM   H12F12216   1.739   5.066   9.611  1.0744 -1.7329 -3.2199
  116OSM   H12G12217   1.606   5.182   9.593  0.5391 -0.7671 -0.2573
  116OSM   C13F12218   1.585   5.015   9.465  0.9288 -0.2472  0.3204
  116OSM   H13F12219   1.475   5.022   9.451  0.8832  1.4611  1.2313
  116OSM   H13G12220   1.615   4.908   9.463  0.2637 -0.5077  2.5360
  116OSM   C14F12221   1.652   5.089   9.352 -0.6031 -0.2080  0.1623
  116OSM   H14F12222   1.761   5.073   9.366 -0.3625  0.8278 -0.4390
  116OSM   H14G12223   1.623   5.196   9.355 -2.0617 -0.6107  1.0800
  116OSM   C15F12224   1.617   5.027   9.216 -0.5614  0.0833 -0.3360
  116OSM   H15F12225   1.507   5.021   9.199 -0.5805  0.2605 -0.2795
  116OSM   H15G12226   1.642   4.919   9.220 -1.8975 -0.2259  0.2760
  116OSM   C16F12227   1.682   5.102   9.095  0.3776 -0.2305 -0.2271
  116OSM   H16F12228   1.786   5.135   9.120 -0.3434  0.3200  2.4407
  116OSM   H16G12229   1.624   5.196   9.085 -0.8609 -0.9979 -0.4257
  116OSM   C17F12230   1.684   5.015   8.974 -0.4744 -0.1664  0.7351
  116OSM   H17F12231   1.582   4.977   8.951 -0.3746  0.4262 -0.8855
  116OSM   H17G12232   1.754   4.930   8.986 -1.2965 -1.0372 -0.3515
  116OSM   C18F12233   1.725   5.080   8.837  0.4812  0.0736 -0.3958
  116OSM   H18F12234   1.724   4.993   8.768 -1.8780  0.9903 -1.6261
  116OSM   H18G12235   1.833   5.104   8.851  0.3272 -0.4536  2.1665
  116OSM   H18H12236   1.656   5.162   8.808 -2.2267 -1.7445  0.5716
  117OSM      N12237   6.312   6.360  11.114 -0.3614 -0.1616 -0.0065
  117OSM    C1512238   6.433   6.315  11.193  0.3037 -0.1505  0.1755
  117OSM   H15A12239   6.433   6.213  11.228  0.0196 -0.4687 -0.7271
  117OSM   H15B12240   6.466   6.387  11.267  0.5211  1.8559 -1.7694
  117OSM   H15C12241   6.509   6.309  11.117  0.3233 -1.0394  0.2588
  117OSM    C1412242   6.289   6.263  10.993 -0.3772 -0.6362  0.4661
  117OSM   H14A12243   6.378   6.270  10.932 -0.8799 -0.3686 -0.2506
  117OSM   H14B12244   6.194   6.288  10.948 -0.7435 -0.1048  1.4812
  117OSM   H14C12245   6.292   6.162  11.031  0.0003 -0.4100  1.0560
  117OSM    C1312246   6.195   6.358  11.205 -0.4327  0.0785 -0.4238
  117OSM   H13A12247   6.103   6.388  11.157  0.2506 -1.7358 -3.0844
  117OSM   H13B12248   6.211   6.415  11.296 -0.1091 -1.2776  0.4073
  117OSM   H13C12249   6.167   6.258  11.236 -1.2819  1.0500  2.1882
  117OSM    C1212250   6.337   6.499  11.062 -0.1588  0.2707  0.7264
  117OSM   H12A12251   6.388   6.560  11.135  0.8698  0.0919  0.1572
  117OSM   H12B12252   6.240   6.545  11.048  0.2244  0.8530 -0.0921
  117OSM    C1112253   6.407   6.513  10.924 -0.5238  0.9872 -0.2354
  117OSM   H11A12254   6.398   6.617  10.885 -0.5297  1.1849  0.2811
  117OSM   H11B12255   6.336   6.469  10.851 -0.4981  1.3558 -0.4874
  117OSM      P12256   6.655   6.557  10.977  0.1179 -0.3260  0.3457
  117OSM    O1312257   6.597   6.625  11.097 -0.9634 -0.3423  0.1035
  117OSM    O1412258   6.780   6.480  10.992  0.2124  0.4500 -0.5684
  117OSM    O1112259   6.679   6.666  10.865 -0.7475  1.3475 -0.2329
  117OSM    O1212260   6.544   6.465  10.921  0.4013  0.2654  0.1289
  117OSM    C1S12261   6.726   6.625  10.733 -0.1299  0.1833  0.2169
  117OSM    H1S12262   6.754   6.517  10.732 -1.1524 -0.2167  3.5637
  117OSM    H1T12263   6.810   6.688  10.697  0.1050  0.0442  0.5188
  117OSM     NF12264   6.666   6.578  10.502  0.4737 -0.8714 -0.5119
  117OSM    HNF12265   6.704   6.634  10.429 -1.6569 -1.0804 -1.8347
  117OSM    C2S12266   6.615   6.641  10.625  0.4242  0.0718 -0.3631
  117OSM    H2S12267   6.517   6.601  10.658 -0.4002  2.0339 -0.2912
  117OSM    C3S12268   6.582   6.793  10.618 -0.0659 -0.0995 -0.7615
  117OSM    H3S12269   6.677   6.848  10.600 -0.0200 -0.4373 -1.6197
  117OSM     O312270   6.541   6.851  10.747 -0.6470  0.3894  0.0660
  117OSM    HO312271   6.569   6.782  10.808  0.3682  1.9320  1.4237
  117OSM    C4S12272   6.492   6.824  10.508  0.2755 -0.4573 -0.0719
  117OSM    H4S12273   6.549   6.842  10.415  1.2653  2.5990  0.9877
  117OSM    C5S12274   6.362   6.856  10.507 -0.7166  0.2526 -0.6211
  117OSM    H5S12275   6.307   6.855  10.603  0.0454  2.7625 -0.0864
  117OSM    C6S12276   6.286   6.905  10.389 -0.3374 -0.1903 -1.1249
  117OSM    H6S12277   6.224   6.992  10.420  1.6056  0.5376  0.9808
  117OSM    H6T12278   6.222   6.819  10.358 -0.0515 -1.4896  1.6054
  117OSM    C7S12279   6.373   6.953  10.270 -0.2044 -0.3057 -0.2391
  117OSM    H7S12280   6.421   6.871  10.213  1.4746  1.9971 -2.3901
  117OSM    H7T12281   6.448   7.032  10.291 -0.0685 -0.0964 -1.4454
  117OSM    C8S12282   6.282   7.015  10.162 -0.3680  0.3322 -0.3574
  117OSM    H8S12283   6.239   7.106  10.209 -0.6494 -1.6072  3.5591
  117OSM    H8T12284   6.191   6.951  10.158 -0.7185  0.6580  1.4753
  117OSM    C9S12285   6.356   7.046  10.033  0.1594  0.1633  0.3403
  117OSM    H9S12286   6.379   6.951   9.981  3.0182  0.7614  0.3557
  117OSM    H9T12287   6.454   7.088  10.064  0.5184 -1.3352  1.3503
  117OSM   C10S12288   6.281   7.137   9.940 -0.4428 -0.1726  0.4720
  117OSM   H10S12289   6.258   7.236   9.986  1.9961  0.1463  1.1488
  117OSM   H10T12290   6.190   7.078   9.920 -0.4871 -0.3227  1.0823
  117OSM   C11S12291   6.347   7.157   9.805 -0.2290  0.8694 -0.7338
  117OSM   H11S12292   6.363   7.058   9.757  2.7988  1.3057 -0.7965
  117OSM   H11T12293   6.447   7.204   9.807  0.3717 -0.3355  1.2093
  117OSM   C12S12294   6.261   7.242   9.708 -0.4796  0.0257  0.4600
  117OSM   H12S12295   6.263   7.341   9.758  1.9421 -0.0723  0.6918
  117OSM   H12T12296   6.162   7.194   9.694 -0.4510  0.1128 -0.0579
  117OSM   C13S12297   6.334   7.257   9.575 -0.1374  0.3582  0.1306
  117OSM   H13S12298   6.445   7.259   9.571 -0.1173  3.3359 -0.4823
  117OSM   H13T12299   6.307   7.353   9.525  1.0513  0.1035 -1.0533
  117OSM   C14S12300   6.284   7.152   9.473 -0.2265 -0.0666  0.4540
  117OSM   H14S12301   6.189   7.189   9.429 -0.3580 -0.0712  0.7335
  117OSM   H14T12302   6.275   7.053   9.523 -0.8960 -0.5742 -0.6276
  117OSM   C15S12303   6.377   7.124   9.349  0.4912  0.4966 -0.0123
  117OSM   H15S12304   6.456   7.069   9.403  0.3493 -0.3779 -0.6709
  117OSM   H15T12305   6.425   7.216   9.309 -1.0639  2.0417  1.5110
  117OSM   C16S12306   6.311   7.045   9.236  0.0886  0.2646 -0.4449
  117OSM   H16S12307   6.226   7.104   9.194  1.2773 -0.4850 -4.3493
  117OSM   H16T12308   6.273   6.948   9.275 -1.5618  0.4328 -1.5109
  117OSM   C17S12309   6.397   7.019   9.109  0.1072 -0.3765 -0.1631
  117OSM   H17S12310   6.496   6.974   9.131  0.9036  0.1529 -2.4761
  117OSM   H17T12311   6.423   7.121   9.074  0.3225  0.6318  2.6656
  117OSM   C18S12312   6.328   6.931   8.996 -0.0221 -0.4014 -0.2788
  117OSM   H18S12313   6.382   6.951   8.901  1.1079 -3.7704 -0.4527
  117OSM   H18T12314   6.225   6.971   8.983  0.1499  1.4193  2.9549
  117OSM   H18U12315   6.333   6.830   9.041  3.5308  0.2073  1.0489
  117OSM    C1F12316   6.672   6.441  10.485 -0.6830 -0.0976  0.3408
  117OSM     OF12317   6.620   6.368  10.564 -0.2961 -0.2656 -0.0305
  117OSM    C2F12318   6.756   6.383  10.371  1.0022  0.1540  0.8367
  117OSM    H2F12319   6.790   6.280  10.396 -1.0047 -0.6402  0.4517
  117OSM    H2G12320   6.842   6.450  10.347  0.4416  0.4320 -0.5105
  117OSM    C3F12321   6.672   6.378  10.243  0.9649 -0.2542  0.1959
  117OSM    H3F12322   6.637   6.481  10.221 -0.9439 -0.5409  1.6661
  117OSM    H3G12323   6.587   6.307  10.250 -0.0527  0.9300  0.1791
  117OSM    C4F12324   6.752   6.350  10.121  0.2659 -0.4116  0.2305
  117OSM    H4F12325   6.782   6.243  10.133  1.4105 -0.2332 -0.8108
  117OSM    H4G12326   6.849   6.404  10.120 -0.0307  0.1480 -1.7906
  117OSM    C5F12327   6.690   6.372   9.990  0.0982 -0.4557  0.2294
  117OSM    H5F12328   6.665   6.480   9.989  0.1623 -0.4270  1.2228
  117OSM    H5G12329   6.593   6.317   9.991  1.2248 -2.5577  0.1630
  117OSM    C6F12330   6.776   6.335   9.876  0.7266  0.3119 -0.4681
  117OSM    H6F12331   6.801   6.227   9.875 -0.1408  0.0935  0.1507
  117OSM    H6G12332   6.878   6.378   9.888  0.6454  0.4171 -0.1469
  117OSM    C7F12333   6.723   6.386   9.744  0.4721 -0.7976 -0.4610
  117OSM    H7F12334   6.702   6.495   9.749 -0.4910 -0.9840  0.0250
  117OSM    H7G12335   6.624   6.349   9.709  0.6691  0.0959 -2.0698
  117OSM    C8F12336   6.828   6.375   9.628 -0.3020  0.3785 -0.7992
  117OSM    H8F12337   6.870   6.272   9.621 -0.5504  0.2374 -0.2603
  117OSM    H8G12338   6.911   6.443   9.657  0.0432 -1.1418  2.1035
  117OSM    C9F12339   6.767   6.409   9.494  0.3850 -0.3421 -0.4506
  117OSM    H9F12340   6.657   6.408   9.490  0.4111 -0.2506 -1.2821
  117OSM   C10F12341   6.839   6.448   9.389 -0.2041 -0.6013  0.1316
  117OSM   H10F12342   6.774   6.481   9.307  0.0714  0.4062  0.2922
  117OSM   C11F12343   6.996   6.449   9.376 -0.3329  0.8021 -0.5435
  117OSM   H11F12344   7.044   6.406   9.467 -0.5132  0.0650 -0.7873
  117OSM   H11G12345   7.035   6.552   9.367  1.5960  0.2579  0.9343
  117OSM   C12F12346   7.053   6.374   9.257  0.0552  0.3743  0.1807
  117OSM   H12F12347   7.048   6.265   9.281  1.0152  0.0628 -0.9414
  117OSM   H12G12348   7.160   6.403   9.250 -0.8097  3.4723 -2.8897
  117OSM   C13F12349   6.988   6.413   9.118 -0.0023  0.3444 -0.3132
  117OSM   H13F12350   7.053   6.498   9.088  1.3332  0.4256  2.5026
  117OSM   H13G12351   6.880   6.439   9.123  0.0816  0.6236  0.0650
  117OSM   C14F12352   6.999   6.296   9.016 -0.8755  0.3482 -0.1499
  117OSM   H14F12353   6.940   6.207   9.048 -1.2627  0.0036 -1.7375
  117OSM   H14G12354   7.104   6.262   9.012 -0.8647  0.0338  1.6836
  117OSM   C15F12355   6.953   6.342   8.874  0.8849  0.5707  0.1184
  117OSM   H15F12356   6.861   6.403   8.875 -0.6097 -1.5705  0.4117
  117OSM   H15G12357   6.943   6.244   8.823  0.7966 -0.3966  1.8870
  117OSM   C16F12358   7.071   6.414   8.806 -0.0769  0.4098  0.1497
  117OSM   H16F12359   7.153   6.339   8.807 -1.4207 -1.1260 -0.2795
  117OSM   H16G12360   7.105   6.508   8.855  1.6440 -0.8982  1.6052
  117OSM   C17F12361   7.036   6.460   8.662  0.4146  0.5519 -1.4424
  117OSM   H17F12362   6.955   6.535   8.677  0.8521  0.6031  1.1366
  117OSM   H17G12363   6.988   6.373   8.611 -3.2300  0.2513  1.9587
  117OSM   C18F12364   7.140   6.527   8.578 -0.3550 -0.1222  0.7117
  117OSM   H18F12365   7.220   6.453   8.556 -2.0740 -1.3241 -2.0573
  117OSM   H18G12366   7.181   6.613   8.635  0.3564  0.3433 -0.4458
  117OSM   H18H12367   7.098   6.558   8.479 -0.7197 -0.1089  0.8694
  118OSM      N12368   0.839   1.609  11.327  0.3197  0.0255  0.1411
  118OSM    C1512369   0.736   1.603  11.437 -1.0400 -0.3595 -0.1444
  118OSM   H15A12370   0.688   1.507  11.429  2.0469 -2.0656  0.2322
  118OSM   H15B12371   0.666   1.683  11.417 -1.6806 -1.0514 -0.7389
  118OSM   H15C12372   0.796   1.616  11.526 -1.0321  1.7744 -0.4070
  118OSM    C1412373   0.907   1.736  11.344 -0.4701  0.1005  0.3909
  118OSM   H14A12374   0.950   1.748  11.442  1.0208  0.4633 -0.2875
  118OSM   H14B12375   0.842   1.817  11.313  0.5171 -0.2118 -2.8647
  118OSM   H14C12376   0.987   1.741  11.273 -1.1123  3.0679 -0.2613
  118OSM    C1312377   0.935   1.496  11.336  0.1352  0.4800 -0.3706
  118OSM   H13A12378   0.886   1.400  11.335  2.1616 -0.6289  0.7852
  118OSM   H13B12379   1.006   1.503  11.417 -0.9507  1.9658  0.4991
  118OSM   H13C12380   0.988   1.489  11.242 -3.2366  1.9410 -2.5661
  118OSM    C1212381   0.767   1.600  11.194 -0.2548 -0.2034 -0.1012
  118OSM   H12A12382   0.719   1.504  11.181 -1.2924  0.6002 -2.9089
  118OSM   H12B12383   0.838   1.613  11.114 -0.4605  2.3341  0.0402
  118OSM    C1112384   0.657   1.695  11.155 -0.3137 -0.2438  0.0052
  118OSM   H11A12385   0.579   1.703  11.234  0.2832 -0.4207  0.6191
  118OSM   H11B12386   0.597   1.665  11.066  0.9637  1.2637 -1.4581
  118OSM      P12387   0.619   1.954  11.118  0.0625  0.1202 -0.0515
  118OSM    O1312388   0.487   1.927  11.187 -0.3512 -0.1482 -0.8014
  118OSM    O1412389   0.699   2.067  11.167  0.3255  0.5379 -0.0381
  118OSM    O1112390   0.590   1.959  10.964 -0.5665  0.2654 -0.4456
  118OSM    O1212391   0.711   1.832  11.135 -0.7576  0.4458 -0.0349
  118OSM    C1S12392   0.665   1.882  10.873 -0.1276  0.0105  0.0882
  118OSM    H1S12393   0.641   1.773  10.880 -1.2891  0.3226  1.9229
  118OSM    H1T12394   0.774   1.897  10.885 -0.0909  0.1826 -0.4587
  118OSM     NF12395   0.678   1.822  10.629  0.2133  0.3009 -0.3322
  118OSM    HNF12396   0.766   1.851  10.594 -0.3056 -1.0346 -3.0001
  118OSM    C2S12397   0.624   1.919  10.728 -0.3090 -0.0253  0.3777
  118OSM    H2S12398   0.514   1.913  10.719 -0.3692  1.5907 -0.4343
  118OSM    C3S12399   0.667   2.070  10.698  0.0275  0.7991  0.2007
  118OSM    H3S12400   0.777   2.076  10.707 -0.0581  0.2733  1.9269
  118OSM     O312401   0.616   2.166  10.790 -0.1835 -0.2671 -0.4169
  118OSM    HO312402   0.590   2.106  10.860  0.9950 -0.9749 -0.5585
  118OSM    C4S12403   0.618   2.116  10.565 -1.0574  0.6733  0.1895
  118OSM    H4S12404   0.511   2.141  10.556 -1.1994 -0.7053 -4.0464
  118OSM    C5S12405   0.695   2.127  10.453  0.5801  0.0644 -0.8312
  118OSM    H5S12406   0.802   2.100  10.452  0.9184  1.3243 -0.3851
  118OSM    C6S12407   0.629   2.186  10.333  0.2660 -0.8328  0.2815
  118OSM    H6S12408   0.699   2.263  10.293  1.1478 -2.8627 -2.3135
  118OSM    H6T12409   0.530   2.228  10.361  1.1602 -0.4178  3.1041
  118OSM    C7S12410   0.616   2.088  10.225  0.0262  1.0818 -0.4058
  118OSM    H7S12411   0.538   2.016  10.256  2.8216 -2.0190 -0.0281
  118OSM    H7T12412   0.715   2.040  10.211 -1.4036 -2.6552  1.1191
  118OSM    C8S12413   0.585   2.150  10.087 -0.0143  0.0336  0.1719
  118OSM    H8S12414   0.663   2.223  10.056 -2.0472  1.7151 -1.3438
  118OSM    H8T12415   0.502   2.222  10.102 -0.0646 -0.0081  0.0951
  118OSM    C9S12416   0.553   2.050   9.969  0.2238  0.3624 -0.0768
  118OSM    H9S12417   0.444   2.030   9.975  0.3183 -0.6669 -1.3089
  118OSM    H9T12418   0.613   1.956   9.972 -2.0095 -1.1084  0.4626
  118OSM   C10S12419   0.574   2.119   9.829  0.1614 -0.1966  0.3850
  118OSM   H10S12420   0.667   2.180   9.835  0.5625 -0.9171  2.2239
  118OSM   H10T12421   0.487   2.184   9.807 -1.5438 -2.1098  1.1154
  118OSM   C11S12422   0.610   2.014   9.723  0.1804  0.5815  0.0719
  118OSM   H11S12423   0.544   1.925   9.734 -1.1048  1.2930 -1.4413
  118OSM   H11T12424   0.712   1.972   9.735 -0.1975 -1.2425 -2.3292
  118OSM   C12S12425   0.596   2.069   9.577  0.3732 -0.6656  0.0010
  118OSM   H12S12426   0.663   2.008   9.514  2.4333 -0.8078  2.2077
  118OSM   H12T12427   0.633   2.173   9.567  1.9649 -1.3817 -2.4439
  118OSM   C13S12428   0.450   2.061   9.531  0.2879 -0.8998 -0.4866
  118OSM   H13S12429   0.398   2.120   9.609  1.4000  1.8761 -1.6934
  118OSM   H13T12430   0.418   1.955   9.529 -1.6346 -0.3593 -0.5356
  118OSM   C14S12431   0.423   2.118   9.392  0.0912 -0.3479 -0.1506
  118OSM   H14S12432   0.420   2.229   9.389 -0.5919 -0.3677 -2.9798
  118OSM   H14T12433   0.319   2.095   9.361 -1.3368  3.4418  1.2972
  118OSM   C15S12434   0.513   2.069   9.282  0.1149  0.5774  0.4303
  118OSM   H15S12435   0.505   1.958   9.279 -0.1126  0.5392  1.6645
  118OSM   H15T12436   0.619   2.100   9.291  0.9234 -1.9247  0.3623
  118OSM   C16S12437   0.474   2.111   9.144 -0.9111  0.2756 -0.8888
  118OSM   H16S12438   0.499   2.219   9.136 -1.8307  0.6288  0.6192
  118OSM   H16T12439   0.364   2.096   9.136 -1.1753  2.1358 -1.1776
  118OSM   C17S12440   0.534   2.030   9.029  0.3432 -0.2110 -0.4242
  118OSM   H17S12441   0.641   2.007   9.050  0.4686  0.2347 -0.5753
  118OSM   H17T12442   0.524   2.088   8.935  1.2905  0.3812 -0.1747
  118OSM   C18S12443   0.469   1.889   9.003  0.1610 -0.0475  0.4461
  118OSM   H18S12444   0.504   1.837   8.912  0.9810 -2.6436  2.1349
  118OSM   H18T12445   0.363   1.914   8.985  0.5232  1.5226  0.3550
  118OSM   H18U12446   0.473   1.827   9.095  0.2800 -0.8896 -0.1220
  118OSM    C1F12447   0.629   1.704  10.616 -0.3571 -0.0026  0.0936
  118OSM     OF12448   0.513   1.674  10.647 -0.4586  0.5942  0.0760
  118OSM    C2F12449   0.727   1.599  10.562  0.5812 -0.2538  0.0509
  118OSM    H2F12450   0.708   1.512  10.628 -1.6577 -1.6278 -2.2001
  118OSM    H2G12451   0.836   1.620  10.563  0.8611 -1.5892  0.1371
  118OSM    C3F12452   0.681   1.564  10.418  0.4022 -0.4016 -0.4482
  118OSM    H3F12453   0.570   1.556  10.417  0.1503  2.2354 -0.1223
  118OSM    H3G12454   0.703   1.459  10.387  0.8699 -0.4840  0.1605
  118OSM    C4F12455   0.709   1.669  10.308  0.2286 -0.2476 -0.4016
  118OSM    H4F12456   0.692   1.773  10.343  1.3695  0.0943 -0.8154
  118OSM    H4G12457   0.641   1.646  10.223 -2.0294  1.0352  0.9602
  118OSM    C5F12458   0.855   1.660  10.271 -0.6418  0.5402 -0.8016
  118OSM    H5F12459   0.887   1.556  10.293  1.4340  1.2615 -0.1155
  118OSM    H5G12460   0.908   1.716  10.351  1.6784 -2.1743 -0.2543
  118OSM    C6F12461   0.881   1.715  10.131 -0.0467  0.8773 -0.1058
  118OSM    H6F12462   0.989   1.743  10.128  0.1646  0.3797  1.6168
  118OSM    H6G12463   0.825   1.810  10.114 -0.0774  0.7939 -0.4858
  118OSM    C7F12464   0.854   1.614  10.020  0.7593  0.0756  0.1202
  118OSM    H7F12465   0.748   1.582  10.033  0.5938 -0.0076 -1.2980
  118OSM    H7G12466   0.925   1.530  10.034  4.6009  3.2914  1.8191
  118OSM    C8F12467   0.887   1.679   9.884  0.5240  0.3259 -0.2820
  118OSM    H8F12468   0.982   1.735   9.896  0.3333  0.6211 -0.1236
  118OSM    H8G12469   0.815   1.760   9.859  0.2645 -0.0220 -0.6749
  118OSM    C9F12470   0.918   1.581   9.774 -0.0630 -1.2390  0.1342
  118OSM    H9F12471   1.001   1.511   9.793  1.4221  0.5642  0.5918
  118OSM   C10F12472   0.842   1.559   9.668 -0.4958  0.0071  0.4298
  118OSM   H10F12473   0.885   1.483   9.601  2.3245  1.1728  0.7892
  118OSM   C11F12474   0.716   1.630   9.628  0.1728 -0.2092  0.0939
  118OSM   H11F12475   0.658   1.687   9.703 -1.9789 -1.8767 -0.2237
  118OSM   H11G12476   0.647   1.553   9.588  1.7340 -1.4328 -0.3571
  118OSM   C12F12477   0.747   1.729   9.509  0.1472  0.5009  0.1682
  118OSM   H12F12478   0.825   1.803   9.537 -1.1325  2.9142 -2.2184
  118OSM   H12G12479   0.658   1.795   9.504 -1.1196 -0.6982  3.6574
  118OSM   C13F12480   0.778   1.651   9.375 -0.7335 -0.3976  0.1969
  118OSM   H13F12481   0.689   1.587   9.359 -1.3359  0.5394 -0.2582
  118OSM   H13G12482   0.868   1.587   9.387 -0.0317  0.4298 -0.4967
  118OSM   C14F12483   0.791   1.742   9.252  0.2324 -0.2794  0.1448
  118OSM   H14F12484   0.870   1.816   9.278 -0.4575  0.3702  0.4459
  118OSM   H14G12485   0.698   1.802   9.240  0.2449 -0.2744  0.0758
  118OSM   C15F12486   0.841   1.678   9.128 -0.4762  0.7900  0.3478
  118OSM   H15F12487   0.942   1.637   9.152  1.4409  3.2769 -2.5949
  118OSM   H15G12488   0.857   1.749   9.044 -2.6859  0.5947 -0.2884
  118OSM   C16F12489   0.744   1.564   9.077 -0.5164 -0.3308 -0.3438
  118OSM   H16F12490   0.638   1.592   9.096  0.1248  1.1367  1.3042
  118OSM   H16G12491   0.759   1.469   9.133 -1.1760  0.3610  1.0513
  118OSM   C17F12492   0.774   1.543   8.930  0.4933 -0.4164 -0.3389
  118OSM   H17F12493   0.746   1.438   8.908 -2.2327  0.2558 -0.4145
  118OSM   H17G12494   0.884   1.548   8.919  0.3640  0.2574 -1.4065
  118OSM   C18F12495   0.705   1.637   8.838  0.3894  0.2452  0.6760
  118OSM   H18F12496   0.736   1.741   8.862  1.8050  0.3717 -1.4480
  118OSM   H18G12497   0.595   1.623   8.845  0.4763 -0.7235  0.1972
  118OSM   H18H12498   0.733   1.616   8.733  1.6702 -0.1428  1.0765
  119OSM      N12499   0.464   6.729  11.085 -0.3309  0.7300 -0.3806
  119OSM    C1512500   0.556   6.613  11.104  0.1307 -0.2847 -0.0351
  119OSM   H15A12501   0.574   6.556  11.014 -0.1969  3.4989 -2.7187
  119OSM   H15B12502   0.529   6.537  11.176 -0.7322 -0.8331 -0.9136
  119OSM   H15C12503   0.650   6.651  11.140  0.3529  1.0024 -1.8575
  119OSM    C1412504   0.319   6.675  11.094 -0.3587  0.0075  0.5605
  119OSM   H14A12505   0.311   6.610  11.008  1.8611  2.2146 -1.5102
  119OSM   H14B12506   0.252   6.760  11.090  3.4751  3.4296  1.3012
  119OSM   H14C12507   0.299   6.631  11.190  0.1394 -0.3852  0.4891
  119OSM    C1312508   0.483   6.824  11.203  0.3431  0.8596  0.2187
  119OSM   H13A12509   0.471   6.775  11.299 -0.6814 -1.0601 -0.8409
  119OSM   H13B12510   0.418   6.910  11.196 -0.3934  0.3586  0.7539
  119OSM   H13C12511   0.585   6.859  11.193 -0.0286  1.3607 -2.5406
  119OSM    C1212512   0.489   6.823  10.968  0.1130  0.3113  0.6123
  119OSM   H12A12513   0.440   6.917  10.988  0.6639  0.7293  0.0550
  119OSM   H12B12514   0.441   6.785  10.879 -1.2320  0.1302  1.4019
  119OSM    C1112515   0.637   6.846  10.922  0.7143  0.1200 -0.5636
  119OSM   H11A12516   0.637   6.886  10.818  0.4842 -1.1105 -1.0512
  119OSM   H11B12517   0.688   6.748  10.920 -0.3592 -0.8136  4.5333
  119OSM      P12518   0.724   7.069  11.031  0.3768  0.2139 -0.4927
  119OSM    O1312519   0.660   7.112  11.158  0.2030  0.4147 -0.1857
  119OSM    O1412520   0.864   7.111  11.018  0.1684  0.4588 -0.6741
  119OSM    O1112521   0.633   7.121  10.912 -0.4892  0.1520  0.1667
  119OSM    O1212522   0.715   6.916  11.020 -0.3422 -0.4068  0.1704
  119OSM    C1S12523   0.681   7.228  10.830 -0.3002 -0.3037 -0.6727
  119OSM    H1S12524   0.789   7.250  10.845 -0.2102 -1.2740  0.1543
  119OSM    H1T12525   0.640   7.326  10.862  1.7581 -0.3302  2.4154
  119OSM     NF12526   0.718   7.301  10.604  0.0547 -0.6646 -0.2794
  119OSM    HNF12527   0.665   7.374  10.561  0.8367  0.5172  0.7113
  119OSM    C2S12528   0.641   7.203  10.681 -0.5483 -0.5006  0.5250
  119OSM    H2S12529   0.685   7.104  10.654  1.5314 -0.0293  1.9178
  119OSM    C3S12530   0.492   7.212  10.664  0.5798 -0.6585  0.7878
  119OSM    H3S12531   0.457   7.317  10.671 -1.0074 -1.1295  0.3812
  119OSM     O312532   0.406   7.148  10.758 -0.4095 -0.1141  0.6137
  119OSM    HO312533   0.470   7.123  10.824 -0.1743  2.0825  1.2964
  119OSM    C4S12534   0.457   7.171  10.523 -0.5382 -0.2832  0.4866
  119OSM    H4S12535   0.454   7.249  10.446  2.1347  0.2314  0.8051
  119OSM    C5S12536   0.419   7.049  10.481 -0.0813 -0.4266 -0.2598
  119OSM    H5S12537   0.392   6.967  10.549  0.7441  0.3237  1.0191
  119OSM    C6S12538   0.389   7.026  10.334 -0.3778 -0.4703  0.3754
  119OSM    H6S12539   0.308   7.093  10.297  1.5535  0.5794 -2.2145
  119OSM    H6T12540   0.346   6.924  10.322  0.4570 -0.9044  0.9433
  119OSM    C7S12541   0.502   7.049  10.235  0.4437 -0.1993  1.3346
  119OSM    H7S12542   0.580   6.974  10.260 -1.2437 -4.3326 -3.8548
  119OSM    H7T12543   0.532   7.156  10.242  2.7119 -0.4806 -1.6425
  119OSM    C8S12544   0.468   7.014  10.085  0.2374 -0.5748 -0.2530
  119OSM    H8S12545   0.374   7.061  10.049 -0.4345  0.1394  2.2201
  119OSM    H8T12546   0.458   6.903  10.088 -0.4224 -0.5272  2.7229
  119OSM    C9S12547   0.584   7.063   9.988 -0.0720  0.3659  0.0669
  119OSM    H9S12548   0.671   6.994   9.998 -1.8358 -1.7805  1.4605
  119OSM    H9T12549   0.604   7.168  10.019  3.3091  0.0730 -0.6566
  119OSM   C10S12550   0.533   7.064   9.839 -0.3476 -0.5479  0.0323
  119OSM   H10S12551   0.442   7.128   9.837 -2.2287 -3.0923 -0.4061
  119OSM   H10T12552   0.501   6.964   9.802 -1.9877  0.2164 -0.7048
  119OSM   C11S12553   0.646   7.122   9.747  0.0869 -0.3192  0.4027
  119OSM   H11S12554   0.726   7.045   9.746 -1.1950 -1.7127 -0.6263
  119OSM   H11T12555   0.682   7.221   9.780 -0.6449  0.4302 -0.9602
  119OSM   C12S12556   0.600   7.124   9.607 -0.3623 -0.2927  0.1614
  119OSM   H12S12557   0.517   7.195   9.590 -0.0260  0.2778  0.8479
  119OSM   H12T12558   0.561   7.026   9.571 -0.0490 -0.8314  1.2428
  119OSM   C13S12559   0.710   7.165   9.512 -0.1040 -0.0910  0.4858
  119OSM   H13S12560   0.799   7.098   9.516  0.9120  0.8586 -2.7469
  119OSM   H13T12561   0.743   7.266   9.545 -1.0989  0.6219 -0.6173
  119OSM   C14S12562   0.657   7.194   9.363 -0.2151  0.2384 -0.1229
  119OSM   H14S12563   0.553   7.233   9.368  0.2329  1.5367 -0.5222
  119OSM   H14T12564   0.646   7.092   9.320 -0.4020  0.1867  0.0445
  119OSM   C15S12565   0.746   7.285   9.277 -0.6041 -0.3776  1.1065
  119OSM   H15S12566   0.845   7.236   9.261 -1.4222 -1.2639 -1.7670
  119OSM   H15T12567   0.763   7.383   9.327  0.0374 -0.6086  1.3546
  119OSM   C16S12568   0.684   7.323   9.143  0.0185 -0.1797  0.0329
  119OSM   H16S12569   0.745   7.391   9.079  1.5611 -1.6864 -0.1820
  119OSM   H16T12570   0.597   7.387   9.165  1.7142  1.9248  0.9232
  119OSM   C17S12571   0.670   7.205   9.042  0.0727 -0.3719 -0.2359
  119OSM   H17S12572   0.726   7.115   9.075 -0.2178 -0.0393  1.2292
  119OSM   H17T12573   0.706   7.235   8.942  1.5914  0.0360  0.4135
  119OSM   C18S12574   0.516   7.172   9.029  0.0842 -0.3043 -0.2085
  119OSM   H18S12575   0.453   7.264   9.035 -0.0831 -0.3537 -1.0784
  119OSM   H18T12576   0.479   7.111   9.114  2.5261  1.4645  2.2956
  119OSM   H18U12577   0.486   7.126   8.932  2.2716 -0.2581 -0.9704
  119OSM    C1F12578   0.847   7.303  10.581 -0.0872 -0.3607  0.5248
  119OSM     OF12579   0.921   7.211  10.605 -0.4696  0.8990 -0.1780
  119OSM    C2F12580   0.903   7.434  10.527  0.3608 -0.0236  0.4047
  119OSM    H2F12581   0.836   7.503  10.581  2.4159  1.9945  0.5084
  119OSM    H2G12582   0.887   7.441  10.417  1.1338 -1.4567  0.1649
  119OSM    C3F12583   1.048   7.460  10.564 -0.0654 -0.0800  0.1692
  119OSM    H3F12584   1.105   7.381  10.511  1.1223 -0.2309  1.6168
  119OSM    H3G12585   1.066   7.451  10.673 -2.4716 -1.1685  0.5479
  119OSM    C4F12586   1.108   7.593  10.512  1.0365  0.6443 -0.4195
  119OSM    H4F12587   1.209   7.607  10.556  2.0781  0.0063 -2.4508
  119OSM    H4G12588   1.051   7.678  10.556  1.7415  0.6814  0.4382
  119OSM    C5F12589   1.099   7.611  10.360 -0.4178  0.1397 -0.2984
  119OSM    H5F12590   1.153   7.706  10.340 -2.2935  0.9551 -1.7965
  119OSM    H5G12591   0.993   7.609  10.326 -0.2233 -1.1150 -0.8798
  119OSM    C6F12592   1.160   7.497  10.285 -0.0076  0.1755  0.0605
  119OSM    H6F12593   1.168   7.522  10.178 -0.7549  0.2414  0.0195
  119OSM    H6G12594   1.092   7.409  10.287  1.1436 -0.8869 -2.8344
  119OSM    C7F12595   1.303   7.465  10.334  0.2593 -0.3135  0.9479
  119OSM    H7F12596   1.297   7.395  10.420  3.0273  0.0283  1.5025
  119OSM    H7G12597   1.364   7.552  10.366 -1.4838  1.9556 -1.4576
  119OSM    C8F12598   1.380   7.393  10.216  0.6261  0.6892 -0.0287
  119OSM    H8F12599   1.389   7.467  10.133 -0.2815  1.1476  0.2734
  119OSM    H8G12600   1.324   7.300  10.193  1.4146  0.0364  0.6234
  119OSM    C9F12601   1.516   7.353  10.271 -0.4351 -0.5958  0.0597
  119OSM    H9F12602   1.514   7.361  10.380 -4.0617 -2.6089  0.2919
  119OSM   C10F12603   1.623   7.297  10.211  0.1788 -0.0940  0.0329
  119OSM   H10F12604   1.711   7.260  10.265  2.6373  1.5560 -2.5680
  119OSM   C11F12605   1.620   7.270  10.065  0.4741  0.1506 -0.3373
  119OSM   H11F12606   1.717   7.313  10.031  1.4662 -0.6368  1.3819
  119OSM   H11G12607   1.541   7.330  10.015  2.6614  2.8886 -0.8370
  119OSM   C12F12608   1.616   7.121  10.033  0.5749  0.4191  0.0417
  119OSM   H12F12609   1.521   7.085  10.079  0.7658  1.8715  1.6855
  119OSM   H12G12610   1.688   7.049  10.077 -0.3011 -0.5908 -0.1329
  119OSM   C13F12611   1.630   7.090   9.884 -0.1297  0.4301  0.5219
  119OSM   H13F12612   1.586   7.174   9.827 -1.2387 -0.6348 -0.2580
  119OSM   H13G12613   1.564   7.003   9.862 -0.3310 -0.1903  3.2133
  119OSM   C14F12614   1.773   7.071   9.840  0.1531  0.3542  0.2956
  119OSM   H14F12615   1.819   7.002   9.913 -2.1797 -0.3251  1.2073
  119OSM   H14G12616   1.837   7.162   9.838 -0.3644  0.7153 -0.7984
  119OSM   C15F12617   1.791   7.000   9.693  0.1374 -0.0645 -0.9646
  119OSM   H15F12618   1.710   6.924   9.694 -1.6418  1.4544 -4.8037
  119OSM   H15G12619   1.889   6.950   9.703  0.2100  0.4840  1.8799
  119OSM   C16F12620   1.763   7.096   9.585 -0.0711 -0.1624  0.3267
  119OSM   H16F12621   1.695   7.176   9.621 -3.0764 -1.5856 -1.7562
  119OSM   H16G12622   1.709   7.051   9.499  2.4838  0.2656 -1.6307
  119OSM   C17F12623   1.894   7.167   9.536 -0.1852  1.0145  0.2303
  119OSM   H17F12624   1.925   7.217   9.630 -0.0878  0.2980  0.5843
  119OSM   H17G12625   1.874   7.251   9.465  0.2298 -1.1193 -2.6123
  119OSM   C18F12626   1.994   7.071   9.484  0.6547  0.5195  0.8768
  119OSM   H18F12627   2.073   7.123   9.425 -0.3187  2.5417  1.2551
  119OSM   H18G12628   1.948   6.991   9.423 -2.8423  2.9142  0.1290
  119OSM   H18H12629   2.051   7.030   9.571  1.3206 -0.1141  0.1591
  120OSM      N12630   0.148   4.163  10.834  0.2348 -0.4066 -0.0060
  120OSM    C1512631   0.135   4.100  10.700 -0.3195  0.6968  0.1190
  120OSM   H15A12632   0.233   4.071  10.663  0.1208  2.8067 -0.4605
  120OSM   H15B12633   0.082   4.168  10.636 -2.8201  0.6448  2.0021
  120OSM   H15C12634   0.075   4.010  10.709 -0.8891  0.7344 -2.4929
  120OSM    C1412635   0.015   4.217  10.884 -0.1222  0.1793  0.0726
  120OSM   H14A12636  -0.040   4.278  10.813  2.4048 -0.0895 -2.2808
  120OSM   H14B12637   0.016   4.261  10.983 -1.8130  0.2322  0.1011
  120OSM   H14C12638  -0.041   4.127  10.902  1.4769 -0.7743  0.4341
  120OSM    C1312639   0.199   4.061  10.934  0.4849 -0.3353  0.5438
  120OSM   H13A12640   0.283   4.014  10.885 -0.7232  1.4409 -3.6621
  120OSM   H13B12641   0.136   3.975  10.951  0.5872 -0.3354  0.9578
  120OSM   H13C12642   0.222   4.103  11.031  2.7270  0.2085 -0.1647
  120OSM    C1212643   0.248   4.277  10.810  0.6961 -0.5218 -0.2220
  120OSM   H12A12644   0.273   4.317  10.907  0.7193 -1.1407  0.0314
  120OSM   H12B12645   0.186   4.351  10.762 -0.5675 -0.9853  0.6450
  120OSM    C1112646   0.388   4.248  10.750 -0.9883 -0.0401  0.2708
  120OSM   H11A12647   0.457   4.331  10.776  0.4099 -1.5435  1.5751
  120OSM   H11B12648   0.372   4.257  10.641 -0.5058  1.2858  0.2808
  120OSM      P12649   0.538   4.050  10.689  0.4045  0.2319 -0.4115
  120OSM    O1312650   0.631   4.150  10.627 -0.1608 -0.8888  0.1048
  120OSM    O1412651   0.595   3.937  10.767  0.2593 -0.1436  0.0077
  120OSM    O1112652   0.443   3.990  10.576  0.2656 -0.0010 -0.2564
  120OSM    O1212653   0.433   4.121  10.791  0.5286 -0.4885  0.2207
  120OSM    C1S12654   0.367   3.864  10.590 -0.0763 -0.4961  0.4046
  120OSM    H1S12655   0.297   3.872  10.676  0.8467  1.4937  1.0420
  120OSM    H1T12656   0.437   3.780  10.608 -0.5316 -1.2051 -0.9795
  120OSM     NF12657   0.207   3.718  10.495  0.4150 -0.6555  0.3637
  120OSM    HNF12658   0.253   3.630  10.480 -2.4181 -2.2270  0.2842
  120OSM    C2S12659   0.287   3.830  10.466 -0.4044 -0.1078  0.7890
  120OSM    H2S12660   0.214   3.907  10.435  1.1262  0.8953 -0.4605
  120OSM    C3S12661   0.375   3.807  10.339 -0.4921 -0.6395 -0.3968
  120OSM    H3S12662   0.437   3.716  10.358  0.4157 -0.3104 -1.6913
  120OSM     O312663   0.467   3.903  10.307 -0.0913 -0.5967  0.4149
  120OSM    HO312664   0.456   3.972  10.373  0.1824  0.5131 -0.6703
  120OSM    C4S12665   0.294   3.792  10.221  0.0158 -0.6070 -0.5566
  120OSM    H4S12666   0.255   3.887  10.181 -0.7611 -0.2653  0.9387
  120OSM    C5S12667   0.275   3.673  10.159  0.4595 -0.7741  0.3850
  120OSM    H5S12668   0.325   3.581  10.192 -0.5395 -2.1904 -1.8047
  120OSM    C6S12669   0.193   3.648  10.032  0.1570  0.2363  1.0132
  120OSM    H6S12670   0.132   3.738  10.009  0.0908 -0.1041 -0.1747
  120OSM    H6T12671   0.119   3.567  10.048 -3.1253  2.5057 -1.4091
  120OSM    C7S12672   0.287   3.614   9.919  0.2389 -0.1944  0.5942
  120OSM    H7S12673   0.337   3.517   9.938  0.0664 -0.3453  0.2922
  120OSM    H7T12674   0.363   3.694   9.909 -0.4398  0.3333 -0.5963
  120OSM    C8S12675   0.212   3.594   9.784  0.0050  0.0401  0.0545
  120OSM    H8S12676   0.163   3.691   9.760  1.9810  1.0339 -0.2111
  120OSM    H8T12677   0.138   3.513   9.804  0.5031 -0.2688  0.7036
  120OSM    C9S12678   0.314   3.547   9.673  0.3808 -0.1982  0.5539
  120OSM    H9S12679   0.353   3.447   9.699 -2.8380 -0.7320  4.3656
  120OSM    H9T12680   0.389   3.629   9.678  0.9304 -0.4909 -1.8801
  120OSM   C10S12681   0.249   3.546   9.527 -0.6183  1.1214  0.5325
  120OSM   H10S12682   0.215   3.650   9.508 -0.8845  1.0129  0.4108
  120OSM   H10T12683   0.162   3.476   9.531  0.7587 -0.6617  3.5079
  120OSM   C11S12684   0.336   3.500   9.416 -0.3719 -0.5297  0.0469
  120OSM   H11S12685   0.373   3.396   9.432  1.6050  0.2069  0.5011
  120OSM   H11T12686   0.430   3.557   9.402 -0.7950 -0.0085 -0.7381
  120OSM   C12S12687   0.255   3.498   9.285  0.3122 -0.4248 -0.0329
  120OSM   H12S12688   0.226   3.603   9.265 -0.2297 -0.6004 -0.1835
  120OSM   H12T12689   0.158   3.450   9.308 -0.3072  1.6262  1.9259
  120OSM   C13S12690   0.319   3.424   9.168 -0.4729  0.2118 -0.4727
  120OSM   H13S12691   0.339   3.317   9.191  1.9653  0.7265 -0.0088
  120OSM   H13T12692   0.414   3.475   9.143 -0.1900 -0.5299 -0.9755
  120OSM   C14S12693   0.218   3.432   9.056  0.6729  0.3692 -0.4384
  120OSM   H14S12694   0.183   3.536   9.039 -1.4191 -0.1045  0.6120
  120OSM   H14T12695   0.123   3.382   9.083  1.0558  0.9837  2.3905
  120OSM   C15S12696   0.280   3.372   8.930 -0.8572  0.3274  0.7182
  120OSM   H15S12697   0.201   3.306   8.889 -0.0463 -1.1766  1.4787
  120OSM   H15T12698   0.374   3.313   8.940 -1.0574 -0.3218 -0.9284
  120OSM   C16S12699   0.313   3.487   8.836 -0.0176  0.0593 -0.0611
  120OSM   H16S12700   0.410   3.525   8.873 -0.9425  1.1452  1.3244
  120OSM   H16T12701   0.249   3.577   8.822  0.4503  0.4013 -0.0116
  120OSM   C17S12702   0.340   3.442   8.691 -0.3800 -0.3965 -0.2200
  120OSM   H17S12703   0.368   3.336   8.707  1.3052 -0.0360 -0.5282
  120OSM   H17T12704   0.427   3.498   8.650 -0.9781  0.0879 -0.8608
  120OSM   C18S12705   0.212   3.439   8.601  1.1660  0.6326 -0.2811
  120OSM   H18S12706   0.237   3.397   8.501 -1.0472 -2.3262  0.2519
  120OSM   H18T12707   0.173   3.543   8.597  0.4243  0.3980  0.5010
  120OSM   H18U12708   0.130   3.379   8.646  1.4055  0.0994 -0.5421
  120OSM    C1F12709   0.092   3.713  10.558 -0.1840  0.1926 -0.1866
  120OSM     OF12710   0.046   3.806  10.620 -0.5483  0.0019  0.7139
  120OSM    C2F12711   0.029   3.580  10.561 -0.4830  0.1918  0.8632
  120OSM    H2F12712  -0.041   3.592  10.645 -0.6951  1.7924  0.4777
  120OSM    H2G12713   0.098   3.498  10.593  0.5779  1.4708  1.9716
  120OSM    C3F12714  -0.046   3.558  10.423 -0.0140 -0.4300 -0.6599
  120OSM    H3F12715  -0.095   3.459  10.433  0.2444 -0.5026 -0.0007
  120OSM    H3G12716   0.034   3.560  10.346  1.1720  0.7585  0.5266
  120OSM    C4F12717  -0.157   3.659  10.394  0.2169 -0.0560 -0.4726
  120OSM    H4F12718  -0.125   3.765  10.397  1.2008 -0.3624  0.4496
  120OSM    H4G12719  -0.227   3.651  10.480  0.0513  2.0342 -0.3681
  120OSM    C5F12720  -0.238   3.632  10.262 -0.2401 -0.5581  0.4678
  120OSM    H5F12721  -0.328   3.697  10.264 -0.7154 -1.1076 -1.1453
  120OSM    H5G12722  -0.284   3.531  10.267 -2.0202  0.0359 -1.8166
  120OSM    C6F12723  -0.155   3.651  10.136 -0.4830 -0.7326 -1.2642
  120OSM    H6F12724  -0.066   3.584  10.137  0.0294 -0.0484 -0.0738
  120OSM    H6G12725  -0.114   3.754  10.131  0.0550 -0.7173  1.7428
  120OSM    C7F12726  -0.236   3.610  10.013 -0.2972 -0.0080  0.1712
  120OSM    H7F12727  -0.340   3.649  10.019  0.3690  1.8907  0.3823
  120OSM    H7G12728  -0.228   3.500  10.015 -0.9190 -0.0538  0.0888
  120OSM    C8F12729  -0.171   3.668   9.884 -0.8383  0.0879  0.5237
  120OSM    H8F12730  -0.060   3.664   9.886 -0.8119 -0.7588 -0.9397
  120OSM    H8G12731  -0.195   3.776   9.894 -0.7391  0.1498  0.0771
  120OSM    C9F12732  -0.224   3.624   9.753 -0.3608  0.8268  0.4470
  120OSM    H9F12733  -0.157   3.549   9.708 -1.3922 -0.2817  0.7088
  120OSM   C10F12734  -0.324   3.673   9.676 -0.2126  0.3638  0.3611
  120OSM   H10F12735  -0.360   3.611   9.593 -1.3776  1.6949 -0.1708
  120OSM   C11F12736  -0.424   3.787   9.713 -0.7477  0.2946 -0.0477
  120OSM   H11F12737  -0.404   3.839   9.809  1.6699 -1.4156  0.4598
  120OSM   H11G12738  -0.527   3.746   9.723 -1.6351  2.6520  1.2403
  120OSM   C12F12739  -0.440   3.894   9.607 -0.2934  0.1039  0.0286
  120OSM   H12F12740  -0.340   3.938   9.585  0.3683 -0.1172  2.2842
  120OSM   H12G12741  -0.502   3.975   9.652 -1.3677 -1.9307  2.4415
  120OSM   C13F12742  -0.504   3.842   9.481  0.5370 -0.0172  0.7800
  120OSM   H13F12743  -0.614   3.842   9.495  0.3317  2.2618 -0.4089
  120OSM   H13G12744  -0.463   3.739   9.467  0.6376  0.0991  0.2117
  120OSM   C14F12745  -0.495   3.932   9.354  0.0398  0.0108 -0.2921
  120OSM   H14F12746  -0.386   3.952   9.351  0.1116 -0.3433 -0.1397
  120OSM   H14G12747  -0.556   4.024   9.360 -2.3765 -1.5317  0.1553
  120OSM   C15F12748  -0.542   3.845   9.238 -0.6306  0.3019  0.1005
  120OSM   H15F12749  -0.638   3.801   9.272 -1.2408  0.3531 -1.4712
  120OSM   H15G12750  -0.476   3.756   9.224 -1.6406 -0.6138  0.9882
  120OSM   C16F12751  -0.554   3.932   9.115 -0.0632  0.4828  0.4401
  120OSM   H16F12752  -0.617   4.023   9.125  0.4310  0.8728  0.0328
  120OSM   H16G12753  -0.616   3.867   9.049 -1.5442 -0.4817  2.6628
  120OSM   C17F12754  -0.418   3.987   9.063 -0.4378  0.2723  0.4760
  120OSM   H17F12755  -0.346   3.903   9.069  0.2317  0.9449  3.9997
  120OSM   H17G12756  -0.383   4.063   9.135 -0.2400  0.8973 -0.2618
  120OSM   C18F12757  -0.436   4.034   8.919 -0.7478 -0.6572 -0.4065
  120OSM   H18F12758  -0.477   3.960   8.848 -1.6088 -1.9666  1.3824
  120OSM   H18G12759  -0.337   4.067   8.879 -0.6686  2.1628  1.7532
  120OSM   H18H12760  -0.481   4.135   8.905  2.1982  0.9644  0.7790
  121OSM      N12761   5.982   5.635  11.146  0.4472  0.3765  0.1883
  121OSM    C1512762   6.059   5.540  11.234  0.0898  0.0291  0.1413
  121OSM   H15A12763   6.144   5.501  11.181 -0.8328  0.5504 -1.8062
  121OSM   H15B12764   5.999   5.453  11.259  1.4239 -0.8937  0.2203
  121OSM   H15C12765   6.086   5.575  11.332  0.3168 -0.3954  0.2327
  121OSM    C1412766   5.946   5.559  11.023  0.6289  0.3854  0.0552
  121OSM   H14A12767   5.898   5.469  11.058 -0.6763  0.4326 -1.4845
  121OSM   H14B12768   6.023   5.530  10.954  0.0579 -2.2191  0.4163
  121OSM   H14C12769   5.870   5.609  10.966 -0.1945  1.4475  1.9684
  121OSM    C1312770   5.855   5.661  11.216  0.2999  0.1161 -0.7424
  121OSM   H13A12771   5.800   5.739  11.165  0.1457 -1.0919 -2.5113
  121OSM   H13B12772   5.878   5.701  11.314 -0.0140  0.2402 -0.7166
  121OSM   H13C12773   5.800   5.570  11.234  0.8780  0.2532  2.3605
  121OSM    C1212774   6.059   5.759  11.129 -0.2405  0.2154  0.0871
  121OSM   H12A12775   6.152   5.749  11.075 -1.1337 -2.0930 -1.1315
  121OSM   H12B12776   6.084   5.796  11.228 -0.3443  0.5257 -0.0002
  121OSM    C1112777   5.996   5.870  11.047 -0.3038  0.2249 -0.1930
  121OSM   H11A12778   5.979   5.832  10.943 -0.3463  0.4866 -0.2811
  121OSM   H11B12779   6.070   5.951  11.036 -2.0117  1.8247 -0.4515
  121OSM      P12780   5.752   5.979  11.040 -0.1977 -0.2705  0.1551
  121OSM    O1312781   5.678   5.862  10.998 -0.3304  0.1328  0.0597
  121OSM    O1412782   5.668   6.065  11.128 -0.6499 -0.5561 -0.8819
  121OSM    O1112783   5.798   6.059  10.917 -0.3020 -0.3466 -0.8616
  121OSM    O1212784   5.882   5.928  11.114  0.8380 -0.2241 -0.0117
  121OSM    C1S12785   5.783   6.032  10.785 -0.9875 -0.2707  0.3129
  121OSM    H1S12786   5.676   6.019  10.759 -0.2164 -1.0043 -2.9951
  121OSM    H1T12787   5.834   5.939  10.752  0.1240  0.7804 -1.1111
  121OSM     NF12788   5.840   6.097  10.557  0.3796 -0.0579 -0.3443
  121OSM    HNF12789   5.909   6.045  10.507  0.7569  0.4344 -0.3526
  121OSM    C2S12790   5.858   6.140  10.693 -0.5192  0.1420 -0.0289
  121OSM    H2S12791   5.814   6.241  10.710  1.0215  0.6489  1.1022
  121OSM    C3S12792   6.008   6.154  10.739  0.4981  0.3204  0.6448
  121OSM    H3S12793   6.063   6.058  10.733  1.0889  0.7567 -2.8852
  121OSM     O312794   6.020   6.201  10.879 -0.0135  0.6095  0.1154
  121OSM    HO312795   5.933   6.175  10.910 -1.8149  2.8735 -2.5034
  121OSM    C4S12796   6.093   6.245  10.646 -0.2289  0.2994  0.7911
  121OSM    H4S12797   6.114   6.184  10.557 -0.6454 -0.3246  1.1062
  121OSM    C5S12798   6.142   6.367  10.656 -0.3621  0.5328  0.2936
  121OSM    H5S12799   6.110   6.433  10.738  2.4071 -1.9064  3.5985
  121OSM    C6S12800   6.222   6.426  10.558  0.2011 -0.5689  0.3159
  121OSM    H6S12801   6.329   6.404  10.578  0.8240 -0.6288 -2.6336
  121OSM    H6T12802   6.216   6.536  10.571  3.8458 -0.0414 -1.2123
  121OSM    C7S12803   6.194   6.395  10.410 -0.6078 -0.0491  0.6397
  121OSM    H7S12804   6.087   6.405  10.385 -0.5601  0.3767  0.6040
  121OSM    H7T12805   6.222   6.291  10.383  0.2305  0.4554 -0.5442
  121OSM    C8S12806   6.279   6.478  10.316 -0.1147 -0.5694 -0.2979
  121OSM    H8S12807   6.386   6.459  10.341 -0.2560 -0.0374  0.7492
  121OSM    H8T12808   6.278   6.585  10.343  0.0562 -0.9220  1.2130
  121OSM    C9S12809   6.248   6.451  10.168  0.3860 -0.2424  0.6694
  121OSM    H9S12810   6.150   6.496  10.139 -0.0985 -2.7168 -2.0401
  121OSM    H9T12811   6.244   6.344  10.136 -0.7092  0.4339 -1.6825
  121OSM   C10S12812   6.334   6.540  10.077  0.1870  0.3979  0.8356
  121OSM   H10S12813   6.441   6.515  10.090  0.7397  2.2572  0.2369
  121OSM   H10T12814   6.316   6.647  10.103 -1.4479  0.6919 -1.1932
  121OSM   C11S12815   6.304   6.530   9.924  0.8521 -0.2869 -0.5833
  121OSM   H11S12816   6.194   6.534   9.913  0.9001 -0.1870 -1.0501
  121OSM   H11T12817   6.328   6.434   9.872  0.0619 -0.3540 -0.8406
  121OSM   C12S12818   6.383   6.633   9.846 -0.0645 -0.2945  0.1431
  121OSM   H12S12819   6.491   6.635   9.872  0.4416 -1.7520 -1.7165
  121OSM   H12T12820   6.351   6.732   9.885  0.5233 -0.1970  0.3944
  121OSM   C13S12821   6.363   6.633   9.697 -0.1343  0.4253  0.2837
  121OSM   H13S12822   6.253   6.637   9.685 -0.4294 -1.5252  1.7026
  121OSM   H13T12823   6.403   6.535   9.662  2.5112  1.7103 -0.5563
  121OSM   C14S12824   6.427   6.746   9.623  0.0723 -0.1560 -0.7829
  121OSM   H14S12825   6.537   6.731   9.623  0.2426  0.9890 -0.5533
  121OSM   H14T12826   6.402   6.847   9.661 -1.9506 -0.8435 -0.1587
  121OSM   C15S12827   6.394   6.744   9.474 -0.1569  0.6910  0.1443
  121OSM   H15S12828   6.400   6.845   9.428  1.4656 -0.4241 -2.2211
  121OSM   H15T12829   6.287   6.720   9.456  0.0145 -0.2867  0.3672
  121OSM   C16S12830   6.481   6.631   9.400  0.4750 -0.2094  0.0959
  121OSM   H16S12831   6.467   6.535   9.454  2.9160 -0.0793  1.0852
  121OSM   H16T12832   6.587   6.661   9.413  0.2358  0.7239 -0.0680
  121OSM   C17S12833   6.442   6.611   9.251 -0.5332 -0.2601 -0.3491
  121OSM   H17S12834   6.456   6.715   9.216 -1.0261  0.8839  2.5934
  121OSM   H17T12835   6.336   6.580   9.244 -0.4691 -0.6017  0.1496
  121OSM   C18S12836   6.523   6.513   9.166 -0.2020  0.1976  0.3310
  121OSM   H18S12837   6.630   6.536   9.149  0.6382 -2.3899  1.6411
  121OSM   H18T12838   6.475   6.508   9.066 -1.7822 -1.6568  1.1116
  121OSM   H18U12839   6.526   6.416   9.219 -2.1662  0.1541  0.4514
  121OSM    C1F12840   5.727   6.112  10.487  0.4733  0.5444 -0.3129
  121OSM     OF12841   5.632   6.180  10.520  0.4402  0.2315 -0.4229
  121OSM    C2F12842   5.737   6.040  10.355  0.1126  0.4683 -0.0505
  121OSM    H2F12843   5.638   6.025  10.306  0.7887 -1.6348 -0.8637
  121OSM    H2G12844   5.799   5.948  10.360  0.3598  0.4949 -1.9477
  121OSM    C3F12845   5.817   6.124  10.256 -0.0214 -0.4667  1.3756
  121OSM    H3F12846   5.908   6.179  10.287 -0.9124  1.5128  0.7088
  121OSM    H3G12847   5.745   6.205  10.228 -0.9531 -2.1711 -1.5607
  121OSM    C4F12848   5.866   6.051  10.134  0.3509  0.3790  0.3697
  121OSM    H4F12849   5.771   6.018  10.087 -0.9246  1.6736  1.9320
  121OSM    H4G12850   5.935   5.966  10.157  0.2446  0.3327  0.5242
  121OSM    C5F12851   5.923   6.148  10.028 -0.0927 -0.0906  0.9166
  121OSM    H5F12852   6.009   6.205  10.070  0.2491 -0.9416  1.4202
  121OSM    H5G12853   5.850   6.223   9.992 -0.2273  0.6217  2.5768
  121OSM    C6F12854   5.961   6.068   9.902  1.0879  0.0022 -0.0864
  121OSM    H6F12855   5.871   6.021   9.857 -0.4746  2.5487  0.2083
  121OSM    H6G12856   6.032   5.992   9.942  1.9310  1.5947  1.5904
  121OSM    C7F12857   6.014   6.163   9.792  0.3174  0.0210 -0.3356
  121OSM    H7F12858   5.934   6.237   9.771  0.9496  1.1669  1.0858
  121OSM    H7G12859   6.015   6.110   9.695  2.7093 -0.7289  0.0286
  121OSM    C8F12860   6.139   6.245   9.805 -0.1736 -0.0929 -0.1147
  121OSM    H8F12861   6.138   6.294   9.905  2.4950 -2.5425  1.2476
  121OSM    H8G12862   6.152   6.323   9.727  0.8165  0.6238  0.7448
  121OSM    C9F12863   6.255   6.147   9.804 -0.3755  0.6869 -0.7007
  121OSM    H9F12864   6.274   6.084   9.893  2.2558  0.6390 -1.2131
  121OSM   C10F12865   6.342   6.134   9.700 -0.2722 -0.5996  0.0216
  121OSM   H10F12866   6.416   6.053   9.698 -1.8254 -2.1978  2.2815
  121OSM   C11F12867   6.333   6.214   9.573  0.6010 -0.3062  0.3828
  121OSM   H11F12868   6.428   6.209   9.516  0.3349  0.4056 -0.1261
  121OSM   H11G12869   6.318   6.323   9.589 -0.6591 -0.7430  2.6236
  121OSM   C12F12870   6.226   6.162   9.479 -0.7311 -0.4198  0.8496
  121OSM   H12F12871   6.125   6.203   9.500 -0.7412 -0.7606  1.4877
  121OSM   H12G12872   6.211   6.053   9.495 -3.8120 -0.0905  0.6423
  121OSM   C13F12873   6.256   6.197   9.333  0.0122  0.4620  0.5861
  121OSM   H13F12874   6.351   6.153   9.297  1.0236  1.4143  1.9617
  121OSM   H13G12875   6.265   6.307   9.322 -2.6378  0.7338  0.4593
  121OSM   C14F12876   6.135   6.174   9.244  0.2337  0.0182 -0.1302
  121OSM   H14F12877   6.061   6.256   9.253  1.9055  1.7596 -1.3959
  121OSM   H14G12878   6.089   6.076   9.269  1.1384  0.1728  2.3700
  121OSM   C15F12879   6.158   6.188   9.091  0.3197  0.2002 -0.5723
  121OSM   H15F12880   6.065   6.157   9.041  0.5581  1.9616 -2.2126
  121OSM   H15G12881   6.242   6.116   9.079  1.6590  1.1908  2.0071
  121OSM   C16F12882   6.196   6.330   9.045 -0.2454 -0.8505  0.5302
  121OSM   H16F12883   6.284   6.372   9.098 -1.2451  1.1992  0.6751
  121OSM   H16G12884   6.114   6.402   9.066  0.1934 -0.3327  0.4669
  121OSM   C17F12885   6.215   6.343   8.892  0.2185 -0.0143 -0.7186
  121OSM   H17F12886   6.214   6.449   8.861 -0.4601  0.7869  1.7916
  121OSM   H17G12887   6.127   6.300   8.838  0.8113 -0.1084 -1.6263
  121OSM   C18F12888   6.351   6.285   8.855  0.9231 -0.2384  0.5323
  121OSM   H18F12889   6.357   6.177   8.882  1.9031 -0.8818 -2.0527
  121OSM   H18G12890   6.437   6.346   8.888  0.8082  0.2195 -0.0184
  121OSM   H18H12891   6.359   6.278   8.745  2.4045 -0.7058  0.6450
  122OSM      N12892   0.824   4.860  10.703  0.1605  0.3874 -0.2842
  122OSM    C1512893   0.691   4.920  10.719  0.5974  0.4626 -0.2464
  122OSM   H15A12894   0.615   4.870  10.662  0.5644  0.5109 -0.2439
  122OSM   H15B12895   0.698   5.026  10.700 -0.2096  1.4636  4.0448
  122OSM   H15C12896   0.662   4.920  10.823 -0.4035 -0.3848 -0.5126
  122OSM    C1412897   0.854   4.837  10.557  0.2001 -0.5633  0.3266
  122OSM   H14A12898   0.775   4.778  10.511 -2.5347  1.6530  1.8757
  122OSM   H14B12899   0.943   4.778  10.543  0.7569  0.2504  0.3930
  122OSM   H14C12900   0.862   4.930  10.503 -1.4214 -0.0015  0.9768
  122OSM    C1312901   0.920   4.963  10.760 -0.3558  0.8127  0.4286
  122OSM   H13A12902   0.898   5.052  10.702  0.7801  0.1017 -1.1762
  122OSM   H13B12903   1.021   4.928  10.748 -1.4800 -3.0845  0.9666
  122OSM   H13C12904   0.905   4.982  10.865  0.1526 -2.6202  1.2357
  122OSM    C1212905   0.833   4.728  10.775 -0.1904 -0.2125 -0.3266
  122OSM   H12A12906   0.935   4.695  10.764  0.1234  0.6021  0.0829
  122OSM   H12B12907   0.761   4.661  10.729 -0.4988  0.0934 -0.2925
  122OSM    C1112908   0.798   4.731  10.925  0.1941  1.1642  0.4444
  122OSM   H11A12909   0.842   4.815  10.983  0.2646 -0.3772  2.7624
  122OSM   H11B12910   0.855   4.645  10.965  0.8498  1.6794  0.6340
  122OSM      P12911   0.555   4.636  10.909  0.3400  0.2553  0.1632
  122OSM    O1312912   0.620   4.528  10.834 -0.6583 -0.0629 -0.5130
  122OSM    O1412913   0.485   4.599  11.036 -0.2123  0.5653 -0.3793
  122OSM    O1112914   0.463   4.718  10.814  0.4972  0.0754 -0.0803
  122OSM    O1212915   0.659   4.742  10.953  0.0775 -0.3880 -0.0868
  122OSM    C1S12916   0.331   4.683  10.770  0.5949  0.2984  0.1437
  122OSM    H1S12917   0.253   4.719  10.840 -0.7069 -1.8170 -0.1468
  122OSM    H1T12918   0.324   4.572  10.767  2.6731  0.0233  2.1589
  122OSM     NF12919   0.322   4.642  10.527  0.5253  0.1378  0.1791
  122OSM    HNF12920   0.400   4.665  10.469 -0.7908 -1.6921 -2.4858
  122OSM    C2S12921   0.280   4.735  10.628 -0.1051  0.2933  0.2154
  122OSM    H2S12922   0.170   4.735  10.619 -0.0929 -1.7061 -0.3981
  122OSM    C3S12923   0.326   4.877  10.599 -0.4617  0.4740  0.7830
  122OSM    H3S12924   0.434   4.871  10.572 -1.1244  0.2693 -2.1566
  122OSM     O312925   0.314   4.969  10.704  0.0650  0.0165  0.2077
  122OSM    HO312926   0.326   4.917  10.784  2.0822  0.5107  0.2741
  122OSM    C4S12927   0.262   4.942  10.483  0.1469  0.2363  0.3947
  122OSM    H4S12928   0.154   4.961  10.498  0.0179 -1.2989  1.6254
  122OSM    C5S12929   0.323   4.976  10.366  0.1933  0.3339  0.1512
  122OSM    H5S12930   0.432   4.969  10.354  0.4078 -0.0008  2.0665
  122OSM    C6S12931   0.266   5.062  10.263  0.1774  0.3385  0.7678
  122OSM    H6S12932   0.167   5.093  10.305 -0.4316  2.9440 -2.2186
  122OSM    H6T12933   0.242   5.019  10.163 -0.6833 -0.1384  1.1645
  122OSM    C7S12934   0.334   5.200  10.243 -0.2638  0.2019  0.5573
  122OSM    H7S12935   0.445   5.198  10.240 -0.2905 -0.8991 -0.5285
  122OSM    H7T12936   0.306   5.260  10.332 -1.0377 -0.7209  0.9568
  122OSM    C8S12937   0.280   5.267  10.116 -0.1757 -0.7407  0.4014
  122OSM    H8S12938   0.169   5.271  10.115 -0.2415 -0.8457  2.7002
  122OSM    H8T12939   0.321   5.211  10.029  1.9531 -1.5122  1.8121
  122OSM    C9S12940   0.314   5.415  10.102  0.5752 -0.6046 -0.2273
  122OSM    H9S12941   0.424   5.424  10.112  0.6275 -0.3409 -0.9904
  122OSM    H9T12942   0.257   5.475  10.177 -0.2598 -0.2623 -1.1213
  122OSM   C10S12943   0.263   5.480   9.968  0.1039 -0.3966 -0.0344
  122OSM   H10S12944   0.298   5.585   9.966 -1.0996  0.0370  0.8263
  122OSM   H10T12945   0.152   5.486   9.965  0.0390 -0.6647  1.1935
  122OSM   C11S12946   0.310   5.403   9.845  0.8937  0.3386  0.6512
  122OSM   H11S12947   0.292   5.295   9.864  1.0098  0.4742  1.5728
  122OSM   H11T12948   0.418   5.427   9.831  0.6906  0.9427  0.0817
  122OSM   C12S12949   0.231   5.454   9.719  0.0351  0.3265 -0.2615
  122OSM   H12S12950   0.255   5.558   9.688 -0.0002 -0.3322 -2.6907
  122OSM   H12T12951   0.123   5.449   9.747 -0.6900  2.4328 -2.3414
  122OSM   C13S12952   0.245   5.368   9.592  0.0016 -0.2433  0.6270
  122OSM   H13S12953   0.203   5.266   9.607  0.4203 -0.6697 -0.9010
  122OSM   H13T12954   0.353   5.357   9.568  0.6234  2.6768  1.6474
  122OSM   C14S12955   0.174   5.421   9.468  0.7370 -0.4614 -0.2248
  122OSM   H14S12956   0.163   5.532   9.459  0.5568 -0.5809 -1.9412
  122OSM   H14T12957   0.072   5.379   9.455  1.3303 -1.0535 -4.1245
  122OSM   C15S12958   0.249   5.376   9.340  0.3827  0.3457 -0.8780
  122OSM   H15S12959   0.270   5.269   9.362 -2.8166  0.0949  1.7785
  122OSM   H15T12960   0.347   5.428   9.345 -0.7524  2.5188  0.9181
  122OSM   C16S12961   0.189   5.414   9.204 -0.3593 -0.5744  0.2316
  122OSM   H16S12962   0.096   5.355   9.193 -0.6861  0.3960 -3.3839
  122OSM   H16T12963   0.255   5.376   9.123 -1.1743 -0.1444 -0.6569
  122OSM   C17S12964   0.138   5.556   9.177 -0.4031 -0.3333 -0.4609
  122OSM   H17S12965   0.216   5.635   9.187 -2.0561  1.3978 -0.6631
  122OSM   H17T12966   0.071   5.582   9.262  1.0321 -1.7433  1.2026
  122OSM   C18S12967   0.064   5.569   9.040  0.2801  0.2441 -0.2844
  122OSM   H18S12968   0.018   5.669   9.034  1.3691  0.9122  1.7143
  122OSM   H18T12969  -0.015   5.491   9.046  1.1129 -0.5354  1.5193
  122OSM   H18U12970   0.130   5.547   8.953  0.9569 -0.6153  0.4132
  122OSM    C1F12971   0.261   4.523  10.512 -0.2262 -0.5445  0.4363
  122OSM     OF12972   0.174   4.489  10.586  0.1657 -0.0927 -0.1390
  122OSM    C2F12973   0.317   4.430  10.403 -0.0896 -0.4057  0.3696
  122OSM    H2F12974   0.391   4.365  10.454 -1.9841 -1.1487  2.3142
  122OSM    H2G12975   0.363   4.497  10.327 -1.5280  0.9906  0.6708
  122OSM    C3F12976   0.214   4.336  10.347 -0.2725 -0.0103 -0.6105
  122OSM    H3F12977   0.136   4.387  10.287  0.4002  2.2041  0.2848
  122OSM    H3G12978   0.157   4.280  10.424  0.2310  0.4540  0.1159
  122OSM    C4F12979   0.276   4.220  10.270 -0.4591 -0.1382  0.0571
  122OSM    H4F12980   0.199   4.142  10.250  0.5187 -1.7570  2.2129
  122OSM    H4G12981   0.365   4.179  10.321  1.4728  2.3137 -1.1402
  122OSM    C5F12982   0.339   4.268  10.130  0.2507  0.4987  0.1465
  122OSM    H5F12983   0.428   4.329  10.158 -0.2984  1.0452  0.7506
  122OSM    H5G12984   0.265   4.339  10.089 -0.0723 -0.2311 -0.5727
  122OSM    C6F12985   0.368   4.145  10.043 -0.8378  0.0130 -0.4165
  122OSM    H6F12986   0.280   4.077  10.041 -0.3235 -0.6613 -1.1717
  122OSM    H6G12987   0.447   4.086  10.094 -0.5453  0.2253 -0.6202
  122OSM    C7F12988   0.426   4.196   9.910 -0.3910 -0.3911  0.3299
  122OSM    H7F12989   0.494   4.271   9.956 -1.2123  0.2762  0.4946
  122OSM    H7G12990   0.355   4.255   9.848  2.2497  1.5556 -1.0407
  122OSM    C8F12991   0.505   4.091   9.822  0.1411  0.2032 -0.5967
  122OSM    H8F12992   0.572   4.033   9.888 -1.3999  0.6136  1.4156
  122OSM    H8G12993   0.586   4.142   9.765  0.5492  0.8287  0.5082
  122OSM    C9F12994   0.403   4.005   9.754 -0.4394  0.1302  0.8470
  122OSM    H9F12995   0.341   3.948   9.825 -1.5962  0.0735 -0.1666
  122OSM   C10F12996   0.373   3.995   9.627  0.2317  0.7026 -0.3464
  122OSM   H10F12997   0.304   3.915   9.599 -1.0854  2.3566 -2.0305
  122OSM   C11F12998   0.428   4.083   9.521  0.0360 -0.4941 -0.0939
  122OSM   H11F12999   0.518   4.134   9.560 -1.0050  1.2320  0.1832
  122OSM   H11G13000   0.356   4.167   9.512 -0.0783 -0.5666  0.1423
  122OSM   C12F13001   0.436   4.023   9.377  0.2723  0.8633  0.7638
  122OSM   H12F13002   0.465   4.098   9.301  1.8805  0.2554  0.7169
  122OSM   H12G13003   0.329   4.004   9.357  0.1936 -0.7255  2.4051
  122OSM   C13F13004   0.520   3.888   9.372 -0.1585 -0.0077 -0.4843
  122OSM   H13F13005   0.502   3.835   9.468 -1.6671 -0.7363 -1.1323
  122OSM   H13G13006   0.627   3.917   9.364 -0.3338  0.7674 -0.1070
  122OSM   C14F13007   0.497   3.803   9.248 -0.1392 -0.0469 -0.2647
  122OSM   H14F13008   0.386   3.800   9.243 -0.2387  0.1061  1.3976
  122OSM   H14G13009   0.543   3.704   9.270  0.7810  0.3366 -0.3928
  122OSM   C15F13010   0.554   3.858   9.117  0.7184  0.5342  0.3351
  122OSM   H15F13011   0.665   3.848   9.108  0.5092  0.3245 -3.7742
  122OSM   H15G13012   0.521   3.961   9.093 -0.6463 -0.1931 -1.0091
  122OSM   C16F13013   0.506   3.768   9.001  0.1272  0.4480  0.1870
  122OSM   H16F13014   0.425   3.823   8.949  0.2992 -0.4030 -1.0275
  122OSM   H16G13015   0.466   3.679   9.054 -1.3926  1.6967  1.2245
  122OSM   C17F13016   0.605   3.737   8.891 -0.2723 -0.0578 -0.3026
  122OSM   H17F13017   0.580   3.657   8.819  2.0611 -1.6632  0.5368
  122OSM   H17G13018   0.691   3.704   8.954 -0.4266  2.1184  1.1590
  122OSM   C18F13019   0.650   3.857   8.807  0.3836 -0.0380 -0.1907
  122OSM   H18F13020   0.669   3.949   8.866  0.9987  0.3932 -1.0292
  122OSM   H18G13021   0.567   3.868   8.734 -0.1308  0.6158  0.4778
  122OSM   H18H13022   0.744   3.835   8.751 -0.2447 -0.3355 -1.1504
  123OSM      N13023   2.986   4.502   5.959  0.3343  0.1013 -0.2110
  123OSM    C1513024   3.006   4.378   6.036 -0.1901  0.4283 -0.5602
  123OSM   H15A13025   2.925   4.325   6.085  1.3265  0.4253  2.1718
  123OSM   H15B13026   3.069   4.394   6.122 -1.3682  0.1929  0.3709
  123OSM   H15C13027   3.065   4.310   5.975 -2.1692 -1.5679 -0.3706
  123OSM    C1413028   3.126   4.539   5.924 -0.0122 -0.7038  0.2084
  123OSM   H14A13029   3.191   4.455   5.905  0.2869 -0.5339  0.4739
  123OSM   H14B13030   3.172   4.598   6.003  1.9175  0.0437 -1.3870
  123OSM   H14C13031   3.141   4.610   5.844  2.3991  0.4920  1.6026
  123OSM    C1313032   2.915   4.464   5.839  0.1061 -0.4120  0.9250
  123OSM   H13A13033   2.811   4.441   5.856 -0.3645  0.8117 -0.0968
  123OSM   H13B13034   2.956   4.380   5.786 -0.5134 -0.2866  0.2265
  123OSM   H13C13035   2.917   4.543   5.764 -0.6273 -0.3226  0.9902
  123OSM    C1213036   2.915   4.613   6.033 -0.5118 -0.5230  1.1719
  123OSM   H12A13037   2.810   4.592   6.039 -0.5722 -0.3902  0.6511
  123OSM   H12B13038   2.912   4.696   5.963  0.6544 -0.9708  0.5583
  123OSM    C1113039   2.976   4.662   6.169  0.0561 -0.0048  0.3985
  123OSM   H11A13040   2.982   4.579   6.242 -1.8692  0.0875  0.7259
  123OSM   H11B13041   2.907   4.738   6.213 -1.3294 -1.4024  0.7627
  123OSM      P13042   3.143   4.871   6.111 -0.3194 -0.4839  0.1922
  123OSM    O1313043   3.289   4.897   6.120 -0.2413  0.4195  0.1071
  123OSM    O1413044   3.078   4.906   5.985  0.5267 -0.0756 -0.1483
  123OSM    O1113045   3.079   4.956   6.230  0.4386 -0.2071 -0.0082
  123OSM    O1213046   3.102   4.724   6.149  0.1487  0.5878  0.0467
  123OSM    C1S13047   3.083   4.921   6.366 -1.1013  0.2834  0.2550
  123OSM    H1S13048   3.080   4.811   6.381  0.8406  0.0842 -0.4812
  123OSM    H1T13049   3.001   4.962   6.429 -0.5202  1.2697  0.3952
  123OSM     NF13050   3.221   4.932   6.570 -0.0039  0.2227 -0.2777
  123OSM    HNF13051   3.186   4.990   6.643  0.1968  1.2023 -0.9375
  123OSM    C2S13052   3.210   4.985   6.438  0.1070 -0.7055  0.0650
  123OSM    H2S13053   3.300   4.954   6.380  1.4052 -1.0139  2.1457
  123OSM    C3S13054   3.198   5.144   6.428 -0.9907  0.0273  0.1872
  123OSM    H3S13055   3.114   5.185   6.487  0.2950 -0.0899  2.2094
  123OSM     O313056   3.160   5.196   6.302 -0.0506 -0.1694  0.6434
  123OSM    HO313057   3.148   5.113   6.255 -2.3392  0.0836  0.6818
  123OSM    C4S13058   3.331   5.200   6.484  0.2892  0.7153  0.5495
  123OSM    H4S13059   3.327   5.209   6.593 -0.0572  1.4516  0.4826
  123OSM    C5S13060   3.435   5.249   6.418 -0.6500  0.2763  0.2655
  123OSM    H5S13061   3.424   5.249   6.308 -1.4946 -1.8670  0.2941
  123OSM    C6S13062   3.568   5.297   6.473  0.3089 -0.1933 -0.3196
  123OSM    H6S13063   3.608   5.397   6.448  1.9526 -0.8971 -0.6267
  123OSM    H6T13064   3.641   5.227   6.428 -1.3291 -0.3623 -2.9157
  123OSM    C7S13065   3.573   5.301   6.627  0.3264  0.0620 -0.0490
  123OSM    H7S13066   3.530   5.215   6.682  0.2066  1.4278  2.1232
  123OSM    H7T13067   3.503   5.386   6.646 -0.4746 -0.3889 -0.9134
  123OSM    C8S13068   3.717   5.326   6.678  0.1097 -0.3618 -0.2058
  123OSM    H8S13069   3.772   5.387   6.602  0.2048  1.0521  0.9461
  123OSM    H8T13070   3.765   5.226   6.687  1.5803  0.4341  1.2232
  123OSM    C9S13071   3.737   5.408   6.803  0.2140 -0.2769  0.7756
  123OSM    H9S13072   3.678   5.366   6.887  2.3860 -1.4778  1.8012
  123OSM    H9T13073   3.700   5.511   6.783 -1.1202 -0.8959 -0.0023
  123OSM   C10S13074   3.883   5.426   6.847 -0.7683  0.7070  0.4688
  123OSM   H10S13075   3.936   5.488   6.773  1.3127  0.4848  1.6981
  123OSM   H10T13076   3.941   5.331   6.857 -1.3169  0.2811 -0.3144
  123OSM   C11S13077   3.894   5.502   6.977  0.1589  0.0013  0.0063
  123OSM   H11S13078   4.002   5.524   6.987 -0.1543  3.1639 -2.2787
  123OSM   H11T13079   3.867   5.442   7.067  0.2106  0.1169  0.0984
  123OSM   C12S13080   3.818   5.633   6.970 -0.2565  0.0349 -0.8213
  123OSM   H12S13081   3.707   5.629   6.961 -0.3845  1.4721 -0.0947
  123OSM   H12T13082   3.854   5.673   6.873 -0.9398 -0.6276 -1.3616
  123OSM   C13S13083   3.877   5.724   7.078 -0.0184  0.0518 -0.5578
  123OSM   H13S13084   3.837   5.827   7.063 -0.4225 -0.2573 -1.7078
  123OSM   H13T13085   3.988   5.722   7.076 -0.0122 -3.0826 -2.1055
  123OSM   C14S13086   3.839   5.689   7.223 -0.4293 -0.5412  0.2232
  123OSM   H14S13087   3.890   5.594   7.250  0.0584 -0.7198 -1.2193
  123OSM   H14T13088   3.730   5.672   7.237 -0.3314 -0.8769  0.5954
  123OSM   C15S13089   3.887   5.800   7.321 -0.3664 -0.1450 -0.0502
  123OSM   H15S13090   3.846   5.898   7.288 -0.7257 -0.1674  0.3349
  123OSM   H15T13091   3.995   5.821   7.309 -0.7034  0.3363 -3.0535
  123OSM   C16S13092   3.859   5.767   7.467  0.2145  0.0405  0.7180
  123OSM   H16S13093   3.897   5.665   7.488  0.4272 -0.0369 -0.0302
  123OSM   H16T13094   3.750   5.765   7.486 -0.1057 -0.7148 -1.0384
  123OSM   C17S13095   3.930   5.868   7.557  0.1378  0.0995  0.6400
  123OSM   H17S13096   3.892   5.967   7.524 -2.6638 -1.5499 -1.5492
  123OSM   H17T13097   4.039   5.867   7.536  0.2684  2.1348  1.0481
  123OSM   C18S13098   3.917   5.850   7.707 -0.2737 -0.2905 -0.1214
  123OSM   H18S13099   3.969   5.938   7.749  1.4399 -1.0104 -0.6608
  123OSM   H18T13100   3.969   5.761   7.748  2.2680  0.9752 -0.3896
  123OSM   H18U13101   3.810   5.856   7.736 -0.6162  1.1983 -1.5588
  123OSM    C1F13102   3.236   4.798   6.601 -0.5067 -0.5236  0.4664
  123OSM     OF13103   3.251   4.716   6.506  0.1112  0.1243 -1.0538
  123OSM    C2F13104   3.259   4.759   6.740 -0.2056  0.7670 -0.4685
  123OSM    H2F13105   3.333   4.677   6.729 -0.2718  0.7852 -1.0817
  123OSM    H2G13106   3.162   4.746   6.793  0.0638  1.4597  0.2145
  123OSM    C3F13107   3.317   4.875   6.829  0.2730  0.2758  1.0595
  123OSM    H3F13108   3.248   4.962   6.829  0.7087  0.7379 -1.7838
  123OSM    H3G13109   3.406   4.919   6.779  0.3316 -1.4442 -0.4992
  123OSM    C4F13110   3.332   4.821   6.967 -0.2149 -0.2861 -0.1439
  123OSM    H4F13111   3.421   4.756   6.965 -0.8034 -1.1590 -3.2045
  123OSM    H4G13112   3.245   4.757   6.994 -0.4563  0.2907  0.4673
  123OSM    C5F13113   3.331   4.932   7.066  0.1338  0.3286  0.0311
  123OSM    H5F13114   3.227   4.970   7.068 -0.0239 -0.0713 -0.4148
  123OSM    H5G13115   3.382   5.017   7.015  1.1260 -1.1588 -1.5886
  123OSM    C6F13116   3.390   4.890   7.195  0.5816  0.0662  0.3876
  123OSM    H6F13117   3.499   4.878   7.174  0.0608 -2.7284 -1.1915
  123OSM    H6G13118   3.347   4.793   7.227 -2.1194  0.8944 -0.4652
  123OSM    C7F13119   3.378   4.999   7.305  0.0581 -0.0139 -0.4024
  123OSM    H7F13120   3.270   5.009   7.325 -0.0707 -1.3623 -0.2717
  123OSM    H7G13121   3.414   5.089   7.251  0.6561  0.3725  0.6057
  123OSM    C8F13122   3.467   4.991   7.432  0.4676 -0.1216  0.2503
  123OSM    H8F13123   3.572   4.974   7.403 -0.1985 -0.1770 -2.3490
  123OSM    H8G13124   3.433   4.902   7.491  2.2374  0.1536  1.7784
  123OSM    C9F13125   3.465   5.123   7.506  0.6356 -0.5316 -0.1487
  123OSM    H9F13126   3.473   5.218   7.452  0.8082 -0.3694  0.1661
  123OSM   C10F13127   3.451   5.143   7.636 -0.7933 -0.3728 -0.5117
  123OSM   H10F13128   3.460   5.243   7.679  0.4627 -1.1147  1.0632
  123OSM   C11F13129   3.431   5.035   7.737 -0.1325 -0.1431  0.5380
  123OSM   H11F13130   3.442   4.930   7.701 -0.1130 -0.3629  1.1848
  123OSM   H11G13131   3.323   5.056   7.751 -0.5202 -0.4699 -1.5786
  123OSM   C12F13132   3.496   5.051   7.878  0.1994 -0.1297  0.1998
  123OSM   H12F13133   3.582   5.122   7.881  0.8312 -0.8928  0.6221
  123OSM   H12G13134   3.538   4.949   7.890  0.6155 -0.1201 -0.9722
  123OSM   C13F13135   3.406   5.082   7.995 -0.4209  0.7061  0.1004
  123OSM   H13F13136   3.371   5.186   7.976  0.7547  1.2665  0.8639
  123OSM   H13G13137   3.475   5.098   8.081 -0.4014 -1.5989  0.5788
  123OSM   C14F13138   3.315   4.978   8.037 -0.1068 -0.1263 -0.1979
  123OSM   H14F13139   3.373   4.883   8.036 -0.9287 -0.6676 -2.3031
  123OSM   H14G13140   3.230   4.963   7.968 -1.0694 -0.3152  1.0001
  123OSM   C15F13141   3.257   4.996   8.180 -0.2565 -0.0040 -0.0698
  123OSM   H15F13142   3.188   4.909   8.180  0.5021 -0.6218  0.6424
  123OSM   H15G13143   3.199   5.090   8.192 -0.3723  0.1266 -1.4865
  123OSM   C16F13144   3.353   4.976   8.293 -0.2880 -0.4782 -0.0070
  123OSM   H16F13145   3.439   5.047   8.293 -0.2170 -0.5376 -1.0624
  123OSM   H16G13146   3.388   4.872   8.282 -0.8785 -0.6552 -0.2733
  123OSM   C17F13147   3.286   4.969   8.429 -0.2091  0.3710 -0.3733
  123OSM   H17F13148   3.203   4.895   8.425 -0.1370  0.2110  0.7362
  123OSM   H17G13149   3.238   5.064   8.460  0.8844  0.8119  0.0082
  123OSM   C18F13150   3.375   4.948   8.554  0.7876  0.2249 -0.1086
  123OSM   H18F13151   3.425   4.849   8.548  0.0223 -0.2929  1.5461
  123OSM   H18G13152   3.308   4.960   8.642  0.3573  1.5869 -0.5932
  123OSM   H18H13153   3.451   5.029   8.549 -0.3279  1.2510 -1.0033
  124OSM      N13154   6.147   2.901   6.207 -0.2390  0.6624  0.3416
  124OSM    C1513155   6.088   2.912   6.065 -0.5562  0.1937  0.0398
  124OSM   H15A13156   6.097   3.011   6.025  2.3455  0.3270  0.7914
  124OSM   H15B13157   5.989   2.870   6.073  0.0304 -1.2634 -0.0087
  124OSM   H15C13158   6.127   2.845   5.989 -1.5023 -0.6278  0.2525
  124OSM    C1413159   6.105   2.767   6.258  0.0526  0.1352 -0.1162
  124OSM   H14A13160   6.000   2.748   6.244  0.0581  0.8026 -1.2346
  124OSM   H14B13161   6.125   2.750   6.362  2.8961 -0.2368 -0.6283
  124OSM   H14C13162   6.172   2.689   6.225  1.3276 -0.2469  3.0334
  124OSM    C1313163   6.296   2.894   6.191  0.1433 -0.0778  0.5048
  124OSM   H13A13164   6.306   2.820   6.114 -2.0720  1.9390 -1.9659
  124OSM   H13B13165   6.336   2.862   6.285  0.0369 -1.9264 -0.0418
  124OSM   H13C13166   6.335   2.990   6.161 -1.2084  0.2145 -0.4541
  124OSM    C1213167   6.113   3.000   6.309  0.0490 -0.3489  0.1645
  124OSM   H12A13168   6.167   2.980   6.400  0.3671  0.1459  0.0874
  124OSM   H12B13169   6.008   2.982   6.330 -0.1116 -0.1959 -0.4848
  124OSM    C1113170   6.119   3.148   6.269 -0.6691 -0.4311  0.5442
  124OSM   H11A13171   6.060   3.197   6.350  1.8412  1.1401  1.5389
  124OSM   H11B13172   6.059   3.174   6.179 -1.9919  0.3897  1.6073
  124OSM      P13173   6.356   3.236   6.354  0.5601 -0.2099 -0.4598
  124OSM    O1313174   6.487   3.173   6.315 -0.2107 -0.1596 -0.7329
  124OSM    O1413175   6.355   3.384   6.372 -0.2517 -0.0760 -0.0127
  124OSM    O1113176   6.298   3.184   6.490  0.4749 -0.2329  0.5307
  124OSM    O1213177   6.255   3.192   6.246 -0.1779 -0.1118  0.4865
  124OSM    C1S13178   6.387   3.210   6.603 -0.0371 -0.4427 -0.4933
  124OSM    H1S13179   6.471   3.280   6.583 -1.3333  0.8626 -1.5216
  124OSM    H1T13180   6.428   3.107   6.618 -0.5719 -0.9869 -2.4472
  124OSM     NF13181   6.381   3.197   6.855  0.3222  0.1445  0.3251
  124OSM    HNF13182   6.337   3.125   6.908  0.9862  0.3648  1.2050
  124OSM    C2S13183   6.317   3.254   6.737  0.2009 -0.9447 -0.0193
  124OSM    H2S13184   6.317   3.365   6.736  0.0209 -0.9446 -0.0244
  124OSM    C3S13185   6.161   3.210   6.730  0.3093 -0.6441 -0.2958
  124OSM    H3S13186   6.143   3.106   6.695  1.0499 -0.7834 -0.2690
  124OSM     O313187   6.092   3.276   6.624  0.7521  0.2131  0.0233
  124OSM    HO313188   6.171   3.276   6.569  0.8877 -0.7100  0.2022
  124OSM    C4S13189   6.092   3.220   6.862  0.5987 -0.0702 -0.3124
  124OSM    H4S13190   6.067   3.320   6.898 -1.4429 -0.6907  0.1304
  124OSM    C5S13191   6.059   3.117   6.938 -0.3057  0.4857 -0.6417
  124OSM    H5S13192   6.094   3.017   6.909 -1.5938 -0.1564 -0.0714
  124OSM    C6S13193   5.996   3.129   7.078  0.6241  0.5045  0.2342
  124OSM    H6S13194   5.919   3.050   7.085  0.7735  0.5018  2.2784
  124OSM    H6T13195   5.942   3.225   7.095  0.1038  0.2825 -0.1474
  124OSM    C7S13196   6.093   3.116   7.197 -0.9070 -0.4131 -1.0330
  124OSM    H7S13197   6.191   3.163   7.175 -0.6596 -0.0328  0.7550
  124OSM    H7T13198   6.113   3.010   7.225  1.7621 -0.1398 -1.6182
  124OSM    C8S13199   6.029   3.191   7.321 -0.4109 -0.3080  0.1513
  124OSM    H8S13200   5.923   3.162   7.340 -0.4681 -0.5791 -0.5476
  124OSM    H8T13201   6.027   3.300   7.302  0.3671 -0.0457  1.4245
  124OSM    C9S13202   6.112   3.166   7.449 -0.6134  0.5725  0.9505
  124OSM    H9S13203   6.135   3.058   7.456 -0.3454  0.3185 -2.4564
  124OSM    H9T13204   6.062   3.184   7.547  0.1714  0.9318  1.3042
  124OSM   C10S13205   6.242   3.241   7.464 -0.3596 -0.0740 -0.2110
  124OSM   H10S13206   6.224   3.345   7.428  2.7548  0.6232 -0.0631
  124OSM   H10T13207   6.326   3.211   7.399 -1.8061 -1.2189 -1.6219
  124OSM   C11S13208   6.299   3.244   7.611  0.4598  0.2549  0.0063
  124OSM   H11S13209   6.301   3.142   7.655 -1.3435 -0.5281 -1.6079
  124OSM   H11T13210   6.226   3.301   7.672 -1.0693 -0.7970 -0.7865
  124OSM   C12S13211   6.437   3.307   7.617 -0.3130  0.1647 -0.2882
  124OSM   H12S13212   6.430   3.411   7.654  2.5900  0.6177 -0.7807
  124OSM   H12T13213   6.477   3.329   7.516  1.3721 -0.4919  0.1925
  124OSM   C13S13214   6.547   3.232   7.691 -0.3558  0.2818 -0.1664
  124OSM   H13S13215   6.641   3.291   7.691 -0.2392  0.1572  1.5230
  124OSM   H13T13216   6.564   3.137   7.636  0.3935 -0.1816  0.8337
  124OSM   C14S13217   6.515   3.192   7.835  0.1476  0.1114  0.2019
  124OSM   H14S13218   6.433   3.119   7.823 -1.5192  1.7845  0.8943
  124OSM   H14T13219   6.490   3.283   7.894  0.7615  0.9624 -0.8003
  124OSM   C15S13220   6.636   3.124   7.903 -0.0980  0.1604  0.6077
  124OSM   H15S13221   6.701   3.208   7.934 -0.0463  1.6850 -3.1033
  124OSM   H15T13222   6.697   3.064   7.832 -1.9626 -0.1304 -0.8268
  124OSM   C16S13223   6.605   3.044   8.030  0.1082  0.2125 -0.5567
  124OSM   H16S13224   6.534   2.961   8.008  0.1594  0.5004 -1.8645
  124OSM   H16T13225   6.562   3.110   8.108  0.1214  0.8550 -1.0852
  124OSM   C17S13226   6.725   2.977   8.092 -0.0574 -0.2117  0.4231
  124OSM   H17S13227   6.782   2.913   8.021  3.4360  1.0506  1.8920
  124OSM   H17T13228   6.677   2.914   8.171 -2.7960  1.4515  0.2313
  124OSM   C18S13229   6.815   3.078   8.156  0.3332 -0.1711  0.0149
  124OSM   H18S13230   6.753   3.132   8.230 -2.2959 -2.1831 -0.5419
  124OSM   H18T13231   6.847   3.146   8.074 -0.2274 -1.2069 -1.0914
  124OSM   H18U13232   6.901   3.028   8.204  1.8789  0.4626 -1.9628
  124OSM    C1F13233   6.501   3.243   6.889 -0.6932 -0.4847 -0.1093
  124OSM     OF13234   6.568   3.313   6.812 -0.9249  0.3166 -0.1621
  124OSM    C2F13235   6.548   3.201   7.015 -0.1418  0.6398  0.2336
  124OSM    H2F13236   6.512   3.097   7.032  1.3269  0.3383  1.7833
  124OSM    H2G13237   6.514   3.267   7.097  2.4365  1.9963  0.3202
  124OSM    C3F13238   6.700   3.191   7.020 -0.2215  0.4537  0.3592
  124OSM    H3F13239   6.743   3.292   7.005 -0.4160  0.2486 -2.0567
  124OSM    H3G13240   6.763   3.137   6.945 -1.4404 -1.5255  0.6890
  124OSM    C4F13241   6.744   3.154   7.164 -0.0490 -0.5641 -0.0106
  124OSM    H4F13242   6.724   3.047   7.188  0.0759 -0.7923 -0.8859
  124OSM    H4G13243   6.680   3.223   7.223 -2.8042 -0.3311 -2.9741
  124OSM    C5F13244   6.888   3.177   7.193 -0.0382  0.8171 -0.2864
  124OSM    H5F13245   6.910   3.286   7.194 -2.6877  1.4431  1.3703
  124OSM    H5G13246   6.948   3.139   7.108 -0.5073 -0.3911 -0.0959
  124OSM    C6F13247   6.948   3.124   7.322 -0.1409  0.2893  0.9676
  124OSM    H6F13248   7.051   3.161   7.338  0.6635 -0.6474 -1.5426
  124OSM    H6G13249   6.953   3.013   7.314 -0.3079  0.0064  3.8615
  124OSM    C7F13250   6.850   3.163   7.436 -0.3231  0.0356 -0.5212
  124OSM    H7F13251   6.749   3.127   7.406 -1.3499  1.5719  0.8894
  124OSM    H7G13252   6.843   3.272   7.454 -0.1266 -0.0326 -0.0229
  124OSM    C8F13253   6.875   3.099   7.575  0.1417  0.6038  0.3906
  124OSM    H8F13254   6.859   2.991   7.556 -0.8286  1.3354 -3.8675
  124OSM    H8G13255   6.789   3.129   7.640 -1.8352 -1.2281 -1.2164
  124OSM    C9F13256   7.006   3.110   7.640  0.3197 -0.3855  0.1220
  124OSM    H9F13257   7.031   3.214   7.666  0.3225 -0.5710  0.8739
  124OSM   C10F13258   7.097   3.017   7.669 -0.0272  0.1429  0.6617
  124OSM   H10F13259   7.183   3.052   7.728 -0.8167 -0.6545  2.3878
  124OSM   C11F13260   7.088   2.870   7.639 -0.0654  0.8219 -0.3560
  124OSM   H11F13261   7.179   2.834   7.587  1.1270 -0.6661  2.5491
  124OSM   H11G13262   6.999   2.842   7.578 -0.6147  0.6199  0.5214
  124OSM   C12F13263   7.085   2.769   7.763  0.0721 -0.0201  0.3616
  124OSM   H12F13264   7.085   2.666   7.722 -0.1208  0.6719 -1.4448
  124OSM   H12G13265   6.983   2.779   7.806 -0.7178 -0.4540 -1.3178
  124OSM   C13F13266   7.195   2.804   7.857  0.4468  0.2961  0.6511
  124OSM   H13F13267   7.180   2.903   7.904  1.3144  1.9606 -2.3066
  124OSM   H13G13268   7.299   2.804   7.815  0.4751  1.2639  0.7085
  124OSM   C14F13269   7.214   2.700   7.968 -0.1716 -0.7590  0.2756
  124OSM   H14F13270   7.287   2.742   8.040 -2.1417  2.7971  0.4416
  124OSM   H14G13271   7.250   2.605   7.923  1.5639  0.1620 -0.3680
  124OSM   C15F13272   7.091   2.652   8.042  0.6163 -0.6549 -0.9435
  124OSM   H15F13273   7.033   2.587   7.973 -1.6857  1.6856 -1.3845
  124OSM   H15G13274   7.020   2.733   8.071  0.7276 -0.5791 -0.8829
  124OSM   C16F13275   7.133   2.561   8.156 -0.6311 -0.3735  1.0177
  124OSM   H16F13276   7.210   2.489   8.120 -1.0694  0.1917 -1.1896
  124OSM   H16G13277   7.048   2.497   8.186  0.5192 -1.8015  1.3569
  124OSM   C17F13278   7.178   2.646   8.274  0.7035 -0.5088  0.6367
  124OSM   H17F13279   7.102   2.720   8.305  0.2659  0.4885 -2.4154
  124OSM   H17G13280   7.266   2.707   8.242 -1.2281  1.4037 -1.4093
  124OSM   C18F13281   7.202   2.562   8.398 -0.2324  1.0158  0.0867
  124OSM   H18F13282   7.234   2.463   8.360 -0.6170  0.3975  1.3118
  124OSM   H18G13283   7.108   2.549   8.456  0.1767 -0.5129  0.4640
  124OSM   H18H13284   7.285   2.597   8.464 -0.1926 -1.2680  1.3538
  125OSM      N13285   6.022   5.009   6.003  0.2302  0.1821  0.5586
  125OSM    C1513286   5.981   4.869   5.967 -0.2883 -0.5466  0.2917
  125OSM   H15A13287   6.028   4.833   5.876  1.8471 -0.9583  1.4804
  125OSM   H15B13288   5.875   4.873   5.949 -0.2568  0.3405  0.2641
  125OSM   H15C13289   5.992   4.795   6.046 -2.3551 -0.1237  1.0427
  125OSM    C1413290   5.966   5.096   5.895 -0.4815 -1.0010 -0.0030
  125OSM   H14A13291   5.859   5.099   5.907 -0.4679  0.0031 -0.0579
  125OSM   H14B13292   5.986   5.054   5.797 -1.9434 -0.0843 -0.7322
  125OSM   H14C13293   6.009   5.194   5.910  1.3594 -2.0181  1.8479
  125OSM    C1313294   5.956   5.050   6.133  0.1223  0.5190  0.0751
  125OSM   H13A13295   5.992   4.977   6.204 -0.2894 -0.9316 -1.1438
  125OSM   H13B13296   5.850   5.031   6.132  0.2325 -0.1102 -0.1984
  125OSM   H13C13297   5.987   5.151   6.155  1.6867  0.0256  0.2641
  125OSM    C1213298   6.168   5.023   6.012 -0.0318  0.6073  0.1457
  125OSM   H12A13299   6.203   5.123   5.993  0.5792  0.1057 -1.6091
  125OSM   H12B13300   6.212   4.975   5.926  0.4002 -0.2769  0.8420
  125OSM    C1113301   6.239   4.961   6.135  0.2409 -0.4647 -0.0197
  125OSM   H11A13302   6.197   4.999   6.231 -1.3219 -0.3645 -0.7015
  125OSM   H11B13303   6.346   4.988   6.126 -0.2523  0.9271 -2.5089
  125OSM      P13304   6.317   4.736   6.226 -0.2917 -0.0139 -0.2629
  125OSM    O1313305   6.304   4.596   6.187 -0.0706 -0.0584 -0.3450
  125OSM    O1413306   6.452   4.785   6.217  0.2623 -0.0054 -0.1278
  125OSM    O1113307   6.255   4.766   6.370 -0.1173  0.0659 -0.4688
  125OSM    O1213308   6.219   4.823   6.132 -0.4313 -0.4295 -0.9337
  125OSM    C1S13309   6.183   4.660   6.438 -0.0096 -0.1469 -0.3553
  125OSM    H1S13310   6.225   4.563   6.406  0.4209 -0.6848  1.7114
  125OSM    H1T13311   6.076   4.660   6.409 -0.0869 -0.2809 -0.0771
  125OSM     NF13312   6.109   4.553   6.654  0.1826  0.1830 -0.5221
  125OSM    HNF13313   6.011   4.537   6.669  0.5860 -0.8922  1.2120
  125OSM    C2S13314   6.164   4.675   6.596 -0.9244  0.2411 -0.7587
  125OSM    H2S13315   6.260   4.697   6.648 -2.5972  3.1348  1.4244
  125OSM    C3S13316   6.077   4.803   6.626  0.1230  0.1595  0.2189
  125OSM    H3S13317   5.976   4.785   6.583  0.2897  1.2683 -0.6735
  125OSM     O313318   6.140   4.919   6.564 -0.6191  0.8782 -0.0057
  125OSM    HO313319   6.206   4.883   6.504 -0.0120  1.0134  0.5678
  125OSM    C4S13320   6.058   4.826   6.781  0.3105  0.2297  0.5747
  125OSM    H4S13321   5.975   4.764   6.818 -0.2694  1.3281  1.1623
  125OSM    C5S13322   6.137   4.888   6.874  0.3113  0.7485  0.2429
  125OSM    H5S13323   6.224   4.940   6.832  0.9274 -1.1548 -0.9547
  125OSM    C6S13324   6.123   4.890   7.025  0.0719 -0.2663 -0.1496
  125OSM    H6S13325   6.017   4.873   7.051 -0.0270  1.0237  0.3167
  125OSM    H6T13326   6.146   4.990   7.067  2.4372 -1.1651  0.8570
  125OSM    C7S13327   6.196   4.787   7.103 -0.6564  0.8139 -0.1735
  125OSM    H7S13328   6.306   4.804   7.093 -0.9506  2.2649 -1.4208
  125OSM    H7T13329   6.180   4.683   7.067  0.9585  0.1284  0.9384
  125OSM    C8S13330   6.160   4.794   7.251 -0.0121  0.4876  0.2628
  125OSM    H8S13331   6.083   4.874   7.257  0.1908  1.0538 -3.1289
  125OSM    H8T13332   6.251   4.832   7.302  1.7492 -0.0653 -2.2879
  125OSM    C9S13333   6.117   4.656   7.306  0.7935  0.9540  0.6625
  125OSM    H9S13334   6.188   4.579   7.270  0.3873  1.0924 -0.4998
  125OSM    H9T13335   6.017   4.623   7.271  0.9438 -0.7810  1.7622
  125OSM   C10S13336   6.126   4.656   7.455  0.4753  0.8789 -0.0179
  125OSM   H10S13337   6.050   4.730   7.490  0.6390 -0.1807  2.8466
  125OSM   H10T13338   6.225   4.676   7.502  0.1793  0.8507  0.6193
  125OSM   C11S13339   6.073   4.524   7.517 -0.1613  0.0238  0.0667
  125OSM   H11S13340   6.152   4.451   7.491 -1.6163 -0.3741 -4.0181
  125OSM   H11T13341   5.989   4.479   7.460  2.0611 -0.1619 -3.3393
  125OSM   C12S13342   6.042   4.536   7.666  0.1940 -0.5362 -0.0869
  125OSM   H12S13343   5.973   4.454   7.694 -1.6584  0.6988 -0.8453
  125OSM   H12T13344   5.981   4.628   7.680 -0.7577 -0.8421 -1.8175
  125OSM   C13S13345   6.171   4.541   7.746  0.0975  0.5668 -0.2899
  125OSM   H13S13346   6.216   4.640   7.723  1.0663 -0.1149 -1.4448
  125OSM   H13T13347   6.233   4.459   7.706  0.2452  0.1695  0.7284
  125OSM   C14S13348   6.138   4.541   7.890 -0.4154  0.0062 -0.7930
  125OSM   H14S13349   6.236   4.549   7.941 -1.0517  0.9214  0.3432
  125OSM   H14T13350   6.092   4.443   7.917 -0.8934 -0.0611 -1.8127
  125OSM   C15S13351   6.057   4.653   7.934 -0.8796  0.4392 -0.0792
  125OSM   H15S13352   5.953   4.654   7.894 -1.1341  2.0444  0.5198
  125OSM   H15T13353   6.114   4.746   7.910  0.9481 -0.4341  0.7201
  125OSM   C16S13354   6.041   4.644   8.084  0.0288 -0.4115 -0.0736
  125OSM   H16S13355   6.140   4.657   8.132 -0.3252 -0.5925  0.7104
  125OSM   H16T13356   6.007   4.539   8.098 -0.2217 -0.1295  1.5827
  125OSM   C17S13357   5.936   4.739   8.143 -0.2189 -0.1616  0.4322
  125OSM   H17S13358   5.834   4.742   8.100 -1.5709 -0.8781  3.3192
  125OSM   H17T13359   5.973   4.843   8.135  1.8768 -0.7583  1.5547
  125OSM   C18S13360   5.916   4.718   8.299  0.4748 -1.3000  0.3715
  125OSM   H18S13361   5.871   4.804   8.353 -1.0645 -0.9468 -1.3580
  125OSM   H18T13362   6.007   4.675   8.346  2.3740 -0.7058 -2.4894
  125OSM   H18U13363   5.834   4.648   8.325 -0.8184 -0.5864 -1.5892
  125OSM    C1F13364   6.189   4.448   6.664 -0.1155 -0.3693  0.1347
  125OSM     OF13365   6.303   4.451   6.629 -0.7221 -0.0985  0.1316
  125OSM    C2F13366   6.128   4.318   6.690 -0.2345 -0.2955 -0.1738
  125OSM    H2F13367   6.130   4.254   6.599  0.8075 -2.0892  1.0609
  125OSM    H2G13368   6.026   4.327   6.732 -0.0604  0.0823  0.1797
  125OSM    C3F13369   6.199   4.241   6.807 -0.7141  0.0563 -1.2557
  125OSM    H3F13370   6.310   4.235   6.799 -0.4564  1.5144  0.5084
  125OSM    H3G13371   6.172   4.134   6.796  0.5637 -0.2787 -1.3356
  125OSM    C4F13372   6.176   4.289   6.954  0.6199  0.7465 -0.8671
  125OSM    H4F13373   6.092   4.361   6.949  2.5919  3.2625  0.0175
  125OSM    H4G13374   6.265   4.332   7.004  0.5184  1.8125 -1.5792
  125OSM    C5F13375   6.127   4.166   7.041  0.1961 -0.4907  0.4799
  125OSM    H5F13376   6.207   4.089   7.032 -0.7294 -1.5576  1.1618
  125OSM    H5G13377   6.041   4.121   6.988  1.8341 -3.3474  0.0462
  125OSM    C6F13378   6.100   4.209   7.190  0.8037  0.0637 -0.2521
  125OSM    H6F13379   6.026   4.291   7.191  3.1081  2.2727  1.3816
  125OSM    H6G13380   6.190   4.260   7.229  0.4766  1.1305 -0.8686
  125OSM    C7F13381   6.054   4.083   7.268 -0.1971  0.3872 -0.1048
  125OSM    H7F13382   6.135   4.007   7.254 -0.3698  0.6472 -3.0347
  125OSM    H7G13383   5.961   4.033   7.234 -0.8960 -0.2322  2.4582
  125OSM    C8F13384   6.017   4.122   7.411  0.5130  0.3674 -0.0725
  125OSM    H8F13385   5.968   4.222   7.412 -1.1247 -0.3073 -2.2228
  125OSM    H8G13386   6.115   4.147   7.456  1.9582  0.4216 -2.9686
  125OSM    C9F13387   5.952   4.014   7.501  0.5612  0.1196  0.2922
  125OSM    H9F13388   5.897   3.941   7.440  0.1535 -0.3920  1.2472
  125OSM   C10F13389   5.936   4.000   7.636 -0.0482 -0.2993  0.5587
  125OSM   H10F13390   5.879   3.911   7.664  0.9995 -0.4161  2.5458
  125OSM   C11F13391   5.997   4.089   7.745  0.7428  0.1120  0.2619
  125OSM   H11F13392   5.914   4.146   7.791  0.9274  0.1129  0.5999
  125OSM   H11G13393   6.067   4.165   7.706 -0.9399  1.3323 -0.4996
  125OSM   C12F13394   6.059   4.010   7.859 -0.4170  0.6557  0.1157
  125OSM   H12F13395   6.151   3.966   7.815 -0.0740  2.2036 -0.7871
  125OSM   H12G13396   5.997   3.922   7.887  1.0514 -1.4269 -2.7508
  125OSM   C13F13397   6.091   4.096   7.974  0.6907  0.2333 -0.4684
  125OSM   H13F13398   5.994   4.139   8.005  0.0337 -1.6001  0.1419
  125OSM   H13G13399   6.151   4.183   7.939  2.2583 -0.0164  1.4851
  125OSM   C14F13400   6.169   4.045   8.093 -0.4189 -0.5702 -0.0150
  125OSM   H14F13401   6.276   4.049   8.065 -0.2810 -1.2904  0.3881
  125OSM   H14G13402   6.137   3.939   8.102 -0.6199 -0.4569  0.6668
  125OSM   C15F13403   6.145   4.115   8.229  0.0042 -0.9799  0.3077
  125OSM   H15F13404   6.196   4.056   8.308  1.0888 -0.2141  0.1961
  125OSM   H15G13405   6.037   4.119   8.257 -0.9332 -0.6617 -2.9346
  125OSM   C16F13406   6.184   4.262   8.236  0.3349 -0.3836 -0.4965
  125OSM   H16F13407   6.178   4.303   8.340  0.6284  1.8571 -1.3009
  125OSM   H16G13408   6.131   4.322   8.159  1.5022  0.9470 -0.3045
  125OSM   C17F13409   6.331   4.283   8.195 -0.1976 -0.4317  0.2478
  125OSM   H17F13410   6.355   4.239   8.097  1.0993 -1.3126  0.9372
  125OSM   H17G13411   6.388   4.221   8.268 -0.7641 -1.3470 -0.0772
  125OSM   C18F13412   6.380   4.430   8.195  0.3425  0.1973  0.2498
  125OSM   H18F13413   6.490   4.439   8.186  0.4066 -1.3500 -1.1071
  125OSM   H18G13414   6.348   4.482   8.288 -3.4749 -2.4623  0.6548
  125OSM   H18H13415   6.332   4.482   8.109 -2.3326 -0.4316  1.2528
  126OSM      N13416   4.261   3.804   6.290  0.3760  0.1538  0.1508
  126OSM    C1513417   4.180   3.873   6.396 -0.7102 -0.0947 -0.1480
  126OSM   H15A13418   4.162   3.811   6.482 -2.9050  1.5595  0.6896
  126OSM   H15B13419   4.090   3.925   6.367 -1.0591  0.5676  1.9329
  126OSM   H15C13420   4.242   3.947   6.446  0.1740 -0.7324 -0.2786
  126OSM    C1413421   4.164   3.695   6.251  0.2578  0.1907  0.0206
  126OSM   H14A13422   4.176   3.611   6.318 -1.3599  1.1904  1.6722
  126OSM   H14B13423   4.179   3.651   6.154 -1.8380 -1.3213  0.3105
  126OSM   H14C13424   4.062   3.730   6.244  0.8883  1.7257 -2.8348
  126OSM    C1313425   4.283   3.895   6.179  0.8888  0.0295  0.0127
  126OSM   H13A13426   4.191   3.951   6.166  0.7029 -0.2629  0.0639
  126OSM   H13B13427   4.304   3.836   6.092 -0.6056 -2.3994  1.1846
  126OSM   H13C13428   4.366   3.961   6.198  0.1838  0.9303  0.0418
  126OSM    C1213429   4.396   3.750   6.341  0.1924  0.2446 -0.5050
  126OSM   H12A13430   4.463   3.833   6.351 -1.3409  1.7426 -2.0240
  126OSM   H12B13431   4.440   3.693   6.260  1.6139  0.4711  0.0933
  126OSM    C1113432   4.396   3.681   6.475  0.0673  1.0044  0.3610
  126OSM   H11A13433   4.368   3.757   6.550 -0.0607  0.9485  0.3696
  126OSM   H11B13434   4.497   3.646   6.506 -0.2469 -0.4684 -0.2027
  126OSM      P13435   4.329   3.423   6.478 -0.3840 -0.0262 -0.2172
  126OSM    O1313436   4.209   3.341   6.451  0.4439 -0.6446 -0.0855
  126OSM    O1413437   4.439   3.419   6.380  0.7223 -0.5857  0.3545
  126OSM    O1113438   4.388   3.381   6.615 -0.0554 -0.3548  0.7834
  126OSM    O1213439   4.295   3.576   6.484  0.5155 -0.0485  0.4605
  126OSM    C1S13440   4.298   3.379   6.728 -0.0511  0.6147 -0.0827
  126OSM    H1S13441   4.205   3.319   6.714 -0.2116  1.3473 -2.7140
  126OSM    H1T13442   4.264   3.474   6.775 -0.0433  0.2496  0.6739
  126OSM     NF13443   4.258   3.269   6.950 -0.4562 -0.0057 -0.2080
  126OSM    HNF13444   4.240   3.340   7.018  1.5352  0.0939  0.2829
  126OSM    C2S13445   4.366   3.303   6.847  0.0991 -0.4452 -0.3279
  126OSM    H2S13446   4.419   3.216   6.804  0.9675 -0.5974  1.0090
  126OSM    C3S13447   4.472   3.402   6.906 -0.1742  0.1939 -0.3516
  126OSM    H3S13448   4.429   3.500   6.937 -0.0982  0.2594 -0.4556
  126OSM     O313449   4.581   3.448   6.823  0.7689  0.8975 -0.0986
  126OSM    HO313450   4.532   3.439   6.741 -1.2482  1.4496  0.9775
  126OSM    C4S13451   4.531   3.337   7.035  0.2331 -0.2730  0.2569
  126OSM    H4S13452   4.484   3.382   7.123  1.8209  0.3832  0.8131
  126OSM    C5S13453   4.632   3.244   7.042 -0.1559 -0.1634  0.7339
  126OSM    H5S13454   4.676   3.210   6.947  1.2057 -0.3057  1.3844
  126OSM    C6S13455   4.697   3.181   7.163 -0.2148 -0.3121 -0.5688
  126OSM    H6S13456   4.798   3.228   7.166  0.7954 -2.4297  1.0155
  126OSM    H6T13457   4.729   3.075   7.153  1.2983  0.1491 -0.8628
  126OSM    C7S13458   4.617   3.210   7.294 -0.1409 -0.5209  0.3952
  126OSM    H7S13459   4.517   3.162   7.287  1.1518 -3.6054  1.2933
  126OSM    H7T13460   4.601   3.319   7.304 -2.9096 -0.7145 -1.0190
  126OSM    C8S13461   4.681   3.151   7.420  0.0194 -0.8946 -0.7034
  126OSM    H8S13462   4.761   3.222   7.452 -0.6321 -0.6609  0.4578
  126OSM    H8T13463   4.728   3.051   7.408 -0.4596 -1.0309 -1.4794
  126OSM    C9S13464   4.586   3.138   7.537  0.4497  0.1322  0.8008
  126OSM    H9S13465   4.511   3.063   7.505 -0.2472  1.0310  0.2925
  126OSM    H9T13466   4.531   3.233   7.549 -0.4070 -0.5993  3.0419
  126OSM   C10S13467   4.654   3.095   7.658  0.4507  0.0347  0.2330
  126OSM   H10S13468   4.746   3.156   7.672  0.7114  0.3588 -2.4171
  126OSM   H10T13469   4.703   2.996   7.642  1.6586  0.8455 -1.3979
  126OSM   C11S13470   4.574   3.081   7.788  0.2084 -0.4841 -0.4817
  126OSM   H11S13471   4.496   3.002   7.786 -2.1428  1.6638  0.7353
  126OSM   H11T13472   4.523   3.177   7.808 -1.6094 -1.5398  0.1326
  126OSM   C12S13473   4.651   3.030   7.918 -0.0153 -0.1476  0.2645
  126OSM   H12S13474   4.726   3.107   7.947  2.1780 -2.4312  0.9805
  126OSM   H12T13475   4.709   2.942   7.882 -0.3898  1.2376 -4.5200
  126OSM   C13S13476   4.549   3.016   8.034 -0.3011 -0.1761 -0.3333
  126OSM   H13S13477   4.475   3.099   8.030  0.3937  0.5064  0.6857
  126OSM   H13T13478   4.608   3.030   8.127  1.2845 -3.3198 -0.7215
  126OSM   C14S13479   4.479   2.884   8.046  0.0930 -0.2513  0.1058
  126OSM   H14S13480   4.554   2.802   8.057 -0.4677 -1.3629 -3.1467
  126OSM   H14T13481   4.424   2.878   7.949  0.8671  1.2212 -0.4417
  126OSM   C15S13482   4.375   2.887   8.156  0.0010  0.3374 -0.0704
  126OSM   H15S13483   4.327   2.787   8.152  1.2485 -0.2468 -1.7247
  126OSM   H15T13484   4.303   2.970   8.138 -2.4536 -2.0303 -1.9783
  126OSM   C16S13485   4.430   2.884   8.296 -0.0166 -0.3876  0.8895
  126OSM   H16S13486   4.479   2.984   8.303 -2.3255  0.8206  0.6520
  126OSM   H16T13487   4.515   2.814   8.312  1.5238  1.0149 -0.6704
  126OSM   C17S13488   4.319   2.875   8.409 -0.2518 -0.4124 -0.1093
  126OSM   H17S13489   4.374   2.900   8.502  2.5614 -1.6828 -1.3221
  126OSM   H17T13490   4.283   2.770   8.416  0.0925 -0.4982  0.4093
  126OSM   C18S13491   4.208   2.969   8.404 -0.0078 -0.0606 -0.3530
  126OSM   H18S13492   4.248   3.069   8.378  0.1706 -0.1626 -0.4794
  126OSM   H18T13493   4.156   2.979   8.502  1.2706 -0.3009  0.3710
  126OSM   H18U13494   4.140   2.951   8.318  0.9952  1.6704 -1.5880
  126OSM    C1F13495   4.170   3.176   6.924 -0.2619  0.5099 -0.4340
  126OSM     OF13496   4.189   3.086   6.844 -0.4644  0.7931 -0.1559
  126OSM    C2F13497   4.045   3.174   7.006 -0.2052 -0.7056  0.1337
  126OSM    H2F13498   3.966   3.226   6.947  0.2436 -0.5326 -0.3157
  126OSM    H2G13499   4.074   3.220   7.103 -0.5445 -0.7098  0.2384
  126OSM    C3F13500   4.003   3.032   7.031 -0.8478  0.1308  0.3657
  126OSM    H3F13501   4.087   2.964   7.056 -0.5503 -0.3100 -1.6363
  126OSM    H3G13502   3.944   3.000   6.943  0.8365 -0.3270 -0.6503
  126OSM    C4F13503   3.901   3.019   7.145 -0.2584 -0.0549 -0.2759
  126OSM    H4F13504   3.802   3.055   7.111  0.2903  1.6965 -0.1424
  126OSM    H4G13505   3.928   3.084   7.231 -0.1042 -1.0029  0.4085
  126OSM    C5F13506   3.890   2.880   7.202  0.1044 -0.3508  0.2894
  126OSM    H5F13507   3.985   2.853   7.252 -0.6594 -0.4612  1.7375
  126OSM    H5G13508   3.875   2.802   7.124  1.0211 -1.8688  1.5745
  126OSM    C6F13509   3.779   2.876   7.309  0.3346 -0.4763 -0.0339
  126OSM    H6F13510   3.671   2.870   7.282  0.1976 -0.8538  0.5898
  126OSM    H6G13511   3.781   2.972   7.366  0.0670 -1.3858  1.5417
  126OSM    C7F13512   3.793   2.778   7.420  0.5700  0.6297 -0.0960
  126OSM    H7F13513   3.710   2.782   7.495 -0.4998 -3.0833 -0.8818
  126OSM    H7G13514   3.877   2.797   7.490 -0.2663  0.2577  1.0460
  126OSM    C8F13515   3.811   2.633   7.366  0.2545  0.2192 -0.1374
  126OSM    H8F13516   3.850   2.560   7.440  3.0030  1.5984 -0.1104
  126OSM    H8G13517   3.898   2.645   7.299  2.3093  3.0627  2.7226
  126OSM    C9F13518   3.691   2.583   7.287 -0.4068 -0.3009 -0.5045
  126OSM    H9F13519   3.713   2.600   7.181 -1.2215 -1.1359 -0.8188
  126OSM   C10F13520   3.582   2.521   7.340  0.5604 -0.4462 -0.3328
  126OSM   H10F13521   3.501   2.492   7.271  0.7085  0.8260 -1.0688
  126OSM   C11F13522   3.552   2.502   7.483  0.0669  0.1899 -0.0861
  126OSM   H11F13523   3.633   2.526   7.556 -0.1593  0.4737  0.0748
  126OSM   H11G13524   3.529   2.396   7.503 -2.7572  0.5467 -1.0837
  126OSM   C12F13525   3.433   2.602   7.525  0.0338  0.3731  0.4091
  126OSM   H12F13526   3.357   2.605   7.444 -1.0100 -0.4484  1.3313
  126OSM   H12G13527   3.476   2.705   7.527  1.7634 -0.2498 -1.3475
  126OSM   C13F13528   3.366   2.580   7.656 -0.2117  0.1963 -0.1739
  126OSM   H13F13529   3.310   2.484   7.651 -1.4377  0.7362  1.7410
  126OSM   H13G13530   3.292   2.661   7.673 -2.0028 -0.4928 -3.8127
  126OSM   C14F13531   3.459   2.558   7.773 -0.7600  0.5230 -0.2831
  126OSM   H14F13532   3.533   2.640   7.758 -2.6825  2.4747  0.4378
  126OSM   H14G13533   3.501   2.456   7.762  0.5346  0.9609  0.3831
  126OSM   C15F13534   3.397   2.584   7.907  0.4481  0.5592 -0.0908
  126OSM   H15F13535   3.308   2.519   7.926  0.6938  0.6334  1.4394
  126OSM   H15G13536   3.357   2.688   7.899 -3.7575 -0.9269 -1.0280
  126OSM   C16F13537   3.497   2.559   8.023  0.5233 -1.1721 -0.3364
  126OSM   H16F13538   3.587   2.624   8.013 -1.3896  1.8773  0.8261
  126OSM   H16G13539   3.526   2.454   8.001 -0.5059 -1.2725 -1.2778
  126OSM   C17F13540   3.457   2.584   8.170 -0.1945 -0.0860  0.3183
  126OSM   H17F13541   3.447   2.694   8.177  1.7449  0.1426  0.1010
  126OSM   H17G13542   3.547   2.570   8.233 -0.0144  2.7809  0.8179
  126OSM   C18F13543   3.341   2.497   8.233  0.1306  0.1894 -0.7623
  126OSM   H18F13544   3.313   2.547   8.329  0.1666 -2.2681  0.6063
  126OSM   H18G13545   3.383   2.395   8.245  2.9506  1.4416  1.0997
  126OSM   H18H13546   3.247   2.485   8.174 -1.8289 -1.5033  2.3956
  127OSM      N13547   5.264   1.771   6.145  0.8304 -0.3275  0.4309
  127OSM    C1513548   5.163   1.667   6.117  0.2299 -0.0546  0.0670
  127OSM   H15A13549   5.196   1.568   6.143  0.3518 -0.7637 -2.5044
  127OSM   H15B13550   5.141   1.659   6.012 -1.7915 -0.5847  0.4859
  127OSM   H15C13551   5.070   1.692   6.165  0.7670 -0.0777  1.1473
  127OSM    C1413552   5.233   1.898   6.073 -0.4359  0.3023  0.2141
  127OSM   H14A13553   5.235   1.882   5.966 -2.0302 -0.2908  0.2585
  127OSM   H14B13554   5.300   1.975   6.109 -3.4565  2.3283  1.8910
  127OSM   H14C13555   5.137   1.943   6.092  0.5378  2.9255 -0.5858
  127OSM    C1313556   5.259   1.821   6.286  0.1280 -0.4000 -0.6357
  127OSM   H13A13557   5.341   1.891   6.287  0.3946 -0.6953  1.6299
  127OSM   H13B13558   5.289   1.743   6.354  3.1992  0.8744 -0.3834
  127OSM   H13C13559   5.167   1.863   6.324  1.2150  1.0281  0.5304
  127OSM    C1213560   5.401   1.712   6.111  0.9506 -0.5855  1.1001
  127OSM   H12A13561   5.409   1.724   6.004 -1.6734  1.5857  1.0300
  127OSM   H12B13562   5.407   1.604   6.111 -1.9239 -0.8308  0.8548
  127OSM    C1113563   5.524   1.776   6.183  0.0825 -0.3771 -0.1752
  127OSM   H11A13564   5.621   1.735   6.147  0.2283 -1.2950  1.1924
  127OSM   H11B13565   5.517   1.748   6.290 -0.7852 -1.0509 -0.3942
  127OSM      P13566   5.582   2.027   6.265 -0.1687 -0.2431  0.4741
  127OSM    O1313567   5.649   2.139   6.189  0.1532 -0.2369 -0.5893
  127OSM    O1413568   5.466   2.065   6.343  0.5333 -0.3771 -0.1041
  127OSM    O1113569   5.683   1.952   6.358 -0.1375  0.3519 -0.1636
  127OSM    O1213570   5.529   1.915   6.161 -0.4910  0.3224  0.3784
  127OSM    C1S13571   5.740   2.000   6.476  0.0285  0.3420  0.6091
  127OSM    H1S13572   5.683   2.076   6.533  0.6952  0.3550  1.2847
  127OSM    H1T13573   5.829   2.059   6.445 -1.9176  3.2067  0.0660
  127OSM     NF13574   5.820   1.953   6.707  0.4864  0.0125  0.4153
  127OSM    HNF13575   5.913   1.981   6.725  1.1527 -0.7527 -1.5270
  127OSM    C2S13576   5.793   1.886   6.570  0.5571 -0.9360 -0.2932
  127OSM    H2S13577   5.707   1.818   6.585 -0.6284  0.9320  1.9810
  127OSM    C3S13578   5.912   1.814   6.498  0.8628  0.2626 -0.2686
  127OSM    H3S13579   5.974   1.898   6.461 -0.2436  0.3990 -1.8864
  127OSM     O313580   5.880   1.733   6.380 -0.6715 -0.1168  0.0083
  127OSM    HO313581   5.804   1.779   6.345 -0.4147 -0.4000 -0.9469
  127OSM    C4S13582   6.003   1.733   6.588 -0.1874  0.7570 -0.6149
  127OSM    H4S13583   6.085   1.786   6.639  3.0714 -2.4634 -2.0789
  127OSM    C5S13584   5.983   1.604   6.619 -0.3436 -0.1888  0.4570
  127OSM    H5S13585   5.890   1.559   6.582  0.0598 -0.3628 -0.3528
  127OSM    C6S13586   6.073   1.523   6.709 -0.1929  0.7097 -0.3605
  127OSM    H6S13587   6.175   1.565   6.725  0.3732 -1.0087  0.8990
  127OSM    H6T13588   6.078   1.420   6.667 -0.0496  0.3951  0.4154
  127OSM    C7S13589   6.009   1.495   6.850  0.6262 -0.3985  0.1211
  127OSM    H7S13590   5.910   1.448   6.830 -0.0092  1.2241 -0.7818
  127OSM    H7T13591   5.985   1.596   6.892  0.7540 -0.2738 -0.1016
  127OSM    C8S13592   6.092   1.414   6.948 -0.2709  0.0010 -0.1719
  127OSM    H8S13593   6.186   1.472   6.965 -0.2619 -0.3295  0.9732
  127OSM    H8T13594   6.122   1.317   6.904 -0.4373  0.5713 -1.5914
  127OSM    C9S13595   6.025   1.405   7.085  0.8390  0.7553 -0.1361
  127OSM    H9S13596   5.925   1.357   7.074  0.4745  1.2086  0.9740
  127OSM    H9T13597   6.008   1.511   7.116  2.8942  0.6073  1.7983
  127OSM   C10S13598   6.109   1.322   7.176  0.7556  0.3244  1.0142
  127OSM   H10S13599   6.212   1.361   7.183  1.5004 -0.5161 -2.9000
  127OSM   H10T13600   6.114   1.216   7.144 -2.8322 -0.8055  3.4426
  127OSM   C11S13601   6.067   1.324   7.322 -0.4971 -0.6850 -0.2798
  127OSM   H11S13602   5.965   1.279   7.323 -0.3626 -0.9860  0.1120
  127OSM   H11T13603   6.066   1.431   7.350 -0.6290 -0.3779 -1.3977
  127OSM   C12S13604   6.155   1.246   7.421  0.0057  0.2318 -0.2670
  127OSM   H12S13605   6.260   1.281   7.422  0.4342 -0.9933 -0.2597
  127OSM   H12T13606   6.152   1.135   7.414 -0.3723  0.2291 -0.1199
  127OSM   C13S13607   6.121   1.264   7.570  0.1153  0.1040 -0.4308
  127OSM   H13S13608   6.012   1.242   7.569  0.2830 -0.7697 -0.3531
  127OSM   H13T13609   6.139   1.373   7.585  1.4711 -0.1348 -0.1927
  127OSM   C14S13610   6.196   1.176   7.666  0.0348 -0.4176 -0.2548
  127OSM   H14S13611   6.306   1.188   7.662  0.0617 -0.8507 -4.1165
  127OSM   H14T13612   6.181   1.068   7.647 -0.5789 -0.2522 -0.7435
  127OSM   C15S13613   6.161   1.212   7.814 -0.6510 -0.1050 -0.5325
  127OSM   H15S13614   6.051   1.203   7.827 -0.3984  0.0780  2.2974
  127OSM   H15T13615   6.193   1.315   7.842  0.6236  0.2498 -3.0115
  127OSM   C16S13616   6.215   1.107   7.921  0.1444 -0.0603 -0.2016
  127OSM   H16S13617   6.325   1.121   7.915  0.1248  0.3756  0.4650
  127OSM   H16T13618   6.190   1.003   7.889 -2.6679 -0.1797  2.0010
  127OSM   C17S13619   6.168   1.105   8.068  0.4299  0.9839  0.7400
  127OSM   H17S13620   6.220   1.020   8.117  1.9078 -0.5721 -3.1434
  127OSM   H17T13621   6.057   1.093   8.073  0.3587  1.2343 -0.1629
  127OSM   C18S13622   6.202   1.231   8.140 -0.8218 -0.3227  0.3904
  127OSM   H18S13623   6.309   1.254   8.124 -0.5777 -0.5272  1.5985
  127OSM   H18T13624   6.185   1.227   8.250 -0.2215 -1.7214  0.4516
  127OSM   H18U13625   6.148   1.314   8.090 -2.1045 -0.5896  1.2569
  127OSM    C1F13626   5.727   1.995   6.787  0.8078 -0.2540 -0.1340
  127OSM     OF13627   5.605   2.004   6.750 -0.2357 -0.2858 -0.0257
  127OSM    C2F13628   5.768   2.026   6.931  0.0687 -0.6508  1.3455
  127OSM    H2F13629   5.859   2.087   6.911 -0.4218 -0.4168 -0.3390
  127OSM    H2G13630   5.793   1.927   6.974  1.2189 -1.0835 -0.2130
  127OSM    C3F13631   5.660   2.103   7.000  0.1462 -0.4199 -0.0181
  127OSM    H3F13632   5.574   2.036   7.019 -1.0105  0.7195 -1.0753
  127OSM    H3G13633   5.626   2.190   6.941 -0.3723  0.2936  1.2833
  127OSM    C4F13634   5.713   2.149   7.142 -0.0075  0.5659 -0.2771
  127OSM    H4F13635   5.629   2.213   7.177 -0.8906 -0.5485 -0.2968
  127OSM    H4G13636   5.800   2.217   7.132 -0.4801  1.2697  0.2526
  127OSM    C5F13637   5.749   2.025   7.233  0.4272  0.0233 -0.1915
  127OSM    H5F13638   5.844   1.982   7.193  0.7683 -1.6457  2.2280
  127OSM    H5G13639   5.672   1.946   7.216  2.2148 -2.4424  2.2147
  127OSM    C6F13640   5.769   2.054   7.385 -0.3343 -0.5957  0.1637
  127OSM    H6F13641   5.675   2.102   7.421 -0.0588 -1.7604  2.6343
  127OSM    H6G13642   5.850   2.129   7.392  0.5135 -0.8964 -3.9308
  127OSM    C7F13643   5.801   1.929   7.467  0.2259  0.2188  0.5441
  127OSM    H7F13644   5.854   1.854   7.405  1.4848 -0.8430  2.8041
  127OSM    H7G13645   5.704   1.877   7.481  1.1846 -1.2098  2.1877
  127OSM    C8F13646   5.867   1.962   7.598 -0.2242 -0.5077 -0.0681
  127OSM    H8F13647   5.963   2.006   7.565 -0.8804  0.4157 -0.7906
  127OSM    H8G13648   5.881   1.863   7.647  1.2817  0.3813  1.3914
  127OSM    C9F13649   5.788   2.066   7.677  0.1700  0.6134  0.3976
  127OSM    H9F13650   5.748   2.147   7.615  0.2741  0.5061  0.1909
  127OSM   C10F13651   5.763   2.054   7.806 -0.3800 -0.6904 -0.0919
  127OSM   H10F13652   5.700   2.127   7.860  0.3022  0.0454 -0.2800
  127OSM   C11F13653   5.817   1.944   7.896 -0.3584  0.2464  0.1155
  127OSM   H11F13654   5.920   1.955   7.936 -0.0408  2.3634 -1.1775
  127OSM   H11G13655   5.823   1.851   7.835  2.0668  0.4352 -0.0186
  127OSM   C12F13656   5.723   1.909   8.012 -0.3545 -0.0538 -0.1171
  127OSM   H12F13657   5.723   1.800   8.035  2.0061  0.0220  0.4804
  127OSM   H12G13658   5.616   1.931   7.990 -0.2857 -0.5178 -0.9603
  127OSM   C13F13659   5.756   1.986   8.136  0.7250 -0.0513 -0.2874
  127OSM   H13F13660   5.728   2.093   8.122 -0.6201 -0.2210  0.9173
  127OSM   H13G13661   5.861   1.987   8.172  0.9721  4.8939 -0.3469
  127OSM   C14F13662   5.675   1.946   8.265  0.2325 -0.0210  1.0189
  127OSM   H14F13663   5.659   1.838   8.288 -0.4519 -0.0385  0.4771
  127OSM   H14G13664   5.579   2.001   8.262  1.0727  1.5087 -2.2564
  127OSM   C15F13665   5.742   2.005   8.400 -0.9290  0.7036 -0.1928
  127OSM   H15F13666   5.661   1.988   8.474 -0.2081 -0.0783  0.4287
  127OSM   H15G13667   5.754   2.112   8.374 -1.4040  0.8800  0.3129
  127OSM   C16F13668   5.859   1.925   8.443  0.4750 -0.0005  0.5187
  127OSM   H16F13669   5.941   1.918   8.367  1.8742 -0.0924  1.9781
  127OSM   H16G13670   5.830   1.819   8.460  1.3365 -0.5653 -1.2502
  127OSM   C17F13671   5.922   1.977   8.568 -0.7865  0.1309  0.2804
  127OSM   H17F13672   5.985   1.898   8.612 -0.0462  0.6175  0.1108
  127OSM   H17G13673   5.844   1.996   8.645 -1.3330  2.3248 -0.7224
  127OSM   C18F13674   6.011   2.107   8.547  0.6402  0.2196  1.1127
  127OSM   H18F13675   6.081   2.087   8.463 -0.0499 -2.6300  1.1131
  127OSM   H18G13676   6.053   2.130   8.647  0.1198  0.4313  1.2861
  127OSM   H18H13677   5.938   2.182   8.509 -0.7505 -2.3026 -1.6225
  128OSM      N13678   6.668   4.902   6.428  0.1147 -0.4193  0.0911
  128OSM    C1513679   6.719   4.763   6.461  0.0349 -0.3331 -0.2136
  128OSM   H15A13680   6.687   4.689   6.389  2.8382 -1.9527  0.0818
  128OSM   H15B13681   6.695   4.741   6.564  2.8194 -1.9625  0.1977
  128OSM   H15C13682   6.827   4.762   6.463  0.1007  1.6251 -0.8349
  128OSM    C1413683   6.521   4.909   6.469 -0.3519  0.2914  0.2243
  128OSM   H14A13684   6.503   4.867   6.567 -3.5441  0.8670 -0.0106
  128OSM   H14B13685   6.459   4.851   6.402 -0.0749  0.1729  0.0707
  128OSM   H14C13686   6.477   5.007   6.454  0.9429  1.0473  1.1932
  128OSM    C1313687   6.747   5.004   6.508  0.1500 -0.3179  0.5079
  128OSM   H13A13688   6.682   5.090   6.520 -0.2144 -0.4154 -0.5880
  128OSM   H13B13689   6.844   5.017   6.462 -0.9036  2.3781 -1.2371
  128OSM   H13C13690   6.751   4.970   6.610  0.5487  1.0352  0.9606
  128OSM    C1213691   6.686   4.919   6.276  0.3323 -0.0462 -0.2051
  128OSM   H12A13692   6.652   5.020   6.260  0.3753  0.2246  1.2587
  128OSM   H12B13693   6.629   4.845   6.221 -1.6005  0.1773  1.3799
  128OSM    C1113694   6.827   4.913   6.209  0.7582  0.1423  0.1172
  128OSM   H11A13695   6.808   4.921   6.100  1.5860 -0.2651 -0.0645
  128OSM   H11B13696   6.868   4.809   6.218 -0.5386 -0.6232 -2.0423
  128OSM      P13697   7.065   4.988   6.273 -0.0646  0.0230  0.3163
  128OSM    O1313698   7.108   4.963   6.135  0.3457 -0.9431 -0.3341
  128OSM    O1413699   7.127   5.099   6.356 -0.6849  0.3053 -0.0176
  128OSM    O1113700   7.076   4.858   6.359  0.0821 -0.9154  0.5993
  128OSM    O1213701   6.913   5.012   6.271  0.2079 -0.2440 -0.0503
  128OSM    C1S13702   7.076   4.864   6.503  0.6653 -0.3705  1.2834
  128OSM    H1S13703   6.970   4.868   6.535  0.2370 -2.5192  0.2983
  128OSM    H1T13704   7.134   4.948   6.547  1.5997  0.0801 -0.7256
  128OSM     NF13705   7.120   4.751   6.704  0.7713  0.0174 -0.6025
  128OSM    HNF13706   7.188   4.811   6.746 -0.1381  1.1245 -0.6755
  128OSM    C2S13707   7.133   4.734   6.565  0.1874  0.0425 -0.5998
  128OSM    H2S13708   7.077   4.645   6.529 -0.8859  0.2983  0.3922
  128OSM    C3S13709   7.278   4.722   6.514 -0.1805 -0.1916 -0.4629
  128OSM    H3S13710   7.338   4.807   6.554 -2.5782  1.6759 -0.5683
  128OSM     O313711   7.291   4.719   6.375 -0.6601 -0.2420  0.5495
  128OSM    HO313712   7.205   4.749   6.344  0.7779  2.1995 -1.4422
  128OSM    C4S13713   7.339   4.593   6.561 -0.9031 -0.2785 -0.1168
  128OSM    H4S13714   7.288   4.500   6.533 -2.1687 -0.0099  1.1818
  128OSM    C5S13715   7.441   4.587   6.644 -0.0643 -0.0517  0.7805
  128OSM    H5S13716   7.492   4.681   6.668 -1.7417  0.9024  0.7986
  128OSM    C6S13717   7.495   4.458   6.699  0.0448  0.0471  0.8016
  128OSM    H6S13718   7.599   4.442   6.665 -0.5670 -1.7886 -0.3144
  128OSM    H6T13719   7.432   4.371   6.670  1.3979 -0.7606  0.2167
  128OSM    C7S13720   7.504   4.455   6.848 -0.6016 -0.5109 -0.0124
  128OSM    H7S13721   7.521   4.353   6.888 -1.3851 -0.1692  1.2649
  128OSM    H7T13722   7.410   4.496   6.893 -0.1642  0.1724  0.2982
  128OSM    C8S13723   7.614   4.543   6.915  0.2295  0.6783  0.6279
  128OSM    H8S13724   7.585   4.641   6.870  0.6464  0.5206 -0.0024
  128OSM    H8T13725   7.719   4.514   6.895  0.0222 -0.0493  0.5613
  128OSM    C9S13726   7.592   4.563   7.066 -0.3800  0.4553 -0.4212
  128OSM    H9S13727   7.486   4.587   7.092 -0.4127  0.9361 -0.9843
  128OSM    H9T13728   7.653   4.651   7.094 -0.8588  0.3511  1.0067
  128OSM   C10S13729   7.629   4.443   7.153  0.0925 -0.2048 -1.0852
  128OSM   H10S13730   7.736   4.427   7.128  0.8012  2.0303  0.2204
  128OSM   H10T13731   7.574   4.350   7.126  0.8438 -1.2257  0.7455
  128OSM   C11S13732   7.609   4.474   7.305  0.0249 -0.0450  0.4823
  128OSM   H11S13733   7.505   4.509   7.321 -0.3529 -0.7769 -0.2983
  128OSM   H11T13734   7.670   4.565   7.324  0.5549 -0.5034  1.0025
  128OSM   C12S13735   7.638   4.353   7.397 -0.0469  0.2585  0.2696
  128OSM   H12S13736   7.744   4.320   7.402 -0.2481 -0.3970  0.3984
  128OSM   H12T13737   7.576   4.265   7.369 -0.4083  1.0844 -1.6743
  128OSM   C13S13738   7.595   4.381   7.537  0.4870  0.6112 -1.3145
  128OSM   H13S13739   7.492   4.422   7.545  0.1872 -0.3944  0.4956
  128OSM   H13T13740   7.667   4.455   7.577 -0.6584  0.5702  0.9673
  128OSM   C14S13741   7.600   4.252   7.618  1.0738  0.2887 -0.2573
  128OSM   H14S13742   7.681   4.179   7.593 -0.6259 -2.3927  1.5601
  128OSM   H14T13743   7.511   4.190   7.594  0.9807  0.3346 -0.0330
  128OSM   C15S13744   7.595   4.273   7.769  0.7237 -0.5622 -0.2687
  128OSM   H15S13745   7.529   4.358   7.794  2.3266  0.4543  0.7310
  128OSM   H15T13746   7.696   4.312   7.796  0.7361 -0.7607 -0.0255
  128OSM   C16S13747   7.562   4.144   7.858  0.3005 -0.1035  0.1709
  128OSM   H16S13748   7.651   4.077   7.860 -0.9024 -1.8219  2.8903
  128OSM   H16T13749   7.490   4.083   7.800  0.2538  0.3897 -0.2909
  128OSM   C17S13750   7.525   4.169   8.002  0.6586 -0.3134  0.0281
  128OSM   H17S13751   7.422   4.210   8.008  1.2751  1.5382 -1.1042
  128OSM   H17T13752   7.583   4.259   8.035 -1.3370  1.2513 -0.5281
  128OSM   C18S13753   7.549   4.042   8.084  0.9174  0.4379  0.5295
  128OSM   H18S13754   7.659   4.024   8.085  0.7677 -0.6082 -0.1480
  128OSM   H18T13755   7.508   3.953   8.032  0.8546  0.2858  0.8337
  128OSM   H18U13756   7.507   4.060   8.186  1.5490 -0.8331  1.0408
  128OSM    C1F13757   7.013   4.715   6.771  0.3869 -0.1685  0.1028
  128OSM     OF13758   6.916   4.660   6.720 -0.0054 -0.2147 -0.2661
  128OSM    C2F13759   7.008   4.763   6.916  0.0042 -0.2922 -0.3115
  128OSM    H2F13760   6.901   4.760   6.945 -0.0796 -3.3945 -0.6016
  128OSM    H2G13761   7.041   4.869   6.913  0.5543 -0.4540  0.0949
  128OSM    C3F13762   7.086   4.665   7.002 -0.1489 -0.1124 -0.0035
  128OSM    H3F13763   7.192   4.664   6.969 -0.2426  0.8608 -0.3437
  128OSM    H3G13764   7.039   4.564   7.003 -1.8367  0.6113  1.8726
  128OSM    C4F13765   7.086   4.707   7.150 -0.6427 -0.2229  0.6658
  128OSM    H4F13766   6.979   4.704   7.177 -1.4604 -0.2342 -2.1722
  128OSM    H4G13767   7.122   4.812   7.159  0.6118 -0.5485 -0.3184
  128OSM    C5F13768   7.178   4.624   7.249 -0.1945  0.0023 -0.8556
  128OSM    H5F13769   7.281   4.599   7.214 -0.2667  1.0486 -1.8631
  128OSM    H5G13770   7.128   4.526   7.259 -0.8712  0.5184  1.4793
  128OSM    C6F13771   7.185   4.691   7.380  0.1328 -0.6912  0.6034
  128OSM    H6F13772   7.089   4.745   7.397  0.7102  1.2749 -1.7541
  128OSM    H6G13773   7.265   4.768   7.387 -3.0316  2.8720  1.1615
  128OSM    C7F13774   7.191   4.588   7.497  0.0667 -0.3153 -0.5422
  128OSM    H7F13775   7.269   4.515   7.467  0.9831  1.3357 -2.4334
  128OSM    H7G13776   7.097   4.528   7.505 -0.9034  1.3723  1.8918
  128OSM    C8F13777   7.230   4.644   7.637  0.1780  0.2529 -0.8313
  128OSM    H8F13778   7.139   4.701   7.667  0.4859  2.2273 -3.3378
  128OSM    H8G13779   7.308   4.716   7.604  1.8927 -1.3116 -0.3665
  128OSM    C9F13780   7.296   4.563   7.748 -0.0888 -0.4949 -0.5010
  128OSM    H9F13781   7.387   4.511   7.715  0.4029 -0.2906  0.5078
  128OSM   C10F13782   7.250   4.544   7.874 -0.2268 -0.1097 -0.0879
  128OSM   H10F13783   7.315   4.483   7.938 -0.5631  0.5985  0.9538
  128OSM   C11F13784   7.127   4.600   7.943 -0.6423 -0.6135  0.1805
  128OSM   H11F13785   7.066   4.664   7.875 -0.9080 -0.0307  0.9518
  128OSM   H11G13786   7.147   4.658   8.035 -1.8969  0.3705 -0.1248
  128OSM   C12F13787   7.047   4.482   8.006  0.1250  1.0815  0.5375
  128OSM   H12F13788   7.111   4.408   8.058 -0.0232  1.7366  1.6830
  128OSM   H12G13789   6.985   4.438   7.925  1.5122  0.5147 -0.2525
  128OSM   C13F13790   6.952   4.538   8.118  0.1967 -0.2576  0.0325
  128OSM   H13F13791   6.889   4.619   8.075  1.1679 -0.1945 -1.3229
  128OSM   H13G13792   7.011   4.574   8.204 -0.6152  1.0143  0.0823
  128OSM   C14F13793   6.860   4.424   8.170  1.2547  0.1571  0.1950
  128OSM   H14F13794   6.920   4.338   8.204 -2.1705 -1.7300  1.9555
  128OSM   H14G13795   6.798   4.399   8.082 -1.0608 -1.1912  2.1133
  128OSM   C15F13796   6.770   4.474   8.283 -0.2736 -0.5694  0.3209
  128OSM   H15F13797   6.707   4.544   8.224  2.2302  0.2140 -1.6145
  128OSM   H15G13798   6.816   4.538   8.362 -0.6264 -0.1221  0.1667
  128OSM   C16F13799   6.689   4.365   8.354 -0.9820  0.1067 -0.4044
  128OSM   H16F13800   6.629   4.308   8.280  0.9694  0.5256 -2.4102
  128OSM   H16G13801   6.624   4.418   8.427  0.0832  0.5420  0.2538
  128OSM   C17F13802   6.770   4.272   8.450  0.0099  0.8734 -0.5398
  128OSM   H17F13803   6.814   4.345   8.521  1.5899 -0.8768  0.3400
  128OSM   H17G13804   6.852   4.214   8.403 -0.7867 -1.6209  0.9774
  128OSM   C18F13805   6.674   4.188   8.542  0.1881 -0.0485  0.1906
  128OSM   H18F13806   6.666   4.085   8.501 -2.9022 -0.5235  1.7508
  128OSM   H18G13807   6.572   4.232   8.537  0.9062  1.5845 -1.2532
  128OSM   H18H13808   6.712   4.187   8.646 -1.9830  0.1045  1.0281
  129OSM      N13809   5.009   1.198   6.042 -0.3915 -0.4732  0.4318
  129OSM    C1513810   5.032   1.054   6.037 -0.2036 -0.0204 -0.0629
  129OSM   H15A13811   5.135   1.030   6.058 -0.1900  1.1415  1.3629
  129OSM   H15B13812   5.003   1.016   5.940 -0.2968 -1.0834  0.3753
  129OSM   H15C13813   4.963   1.002   6.102 -1.3180 -2.8824 -3.2735
  129OSM    C1413814   5.102   1.281   5.958  0.5313  0.2566 -0.2726
  129OSM   H14A13815   5.202   1.263   5.995  1.1577  0.4387 -1.7961
  129OSM   H14B13816   5.078   1.386   5.959 -0.2480  0.0863  0.7486
  129OSM   H14C13817   5.094   1.252   5.854  0.1674  1.4058 -0.5791
  129OSM    C1313818   4.873   1.212   5.988 -0.1512 -0.3916 -0.0333
  129OSM   H13A13819   4.838   1.315   5.981 -2.4283 -1.1883 -1.5721
  129OSM   H13B13820   4.805   1.155   6.049  0.7235  0.2446  1.6122
  129OSM   H13C13821   4.867   1.178   5.886 -0.8710 -0.5148  0.0469
  129OSM    C1213822   5.019   1.237   6.187 -0.1576 -0.4570  0.1037
  129OSM   H12A13823   4.945   1.188   6.249  0.2031 -0.9044  0.1836
  129OSM   H12B13824   4.993   1.342   6.190 -0.3046 -0.5176  1.1677
  129OSM    C1113825   5.164   1.216   6.251  0.3448  0.6576  0.0771
  129OSM   H11A13826   5.195   1.109   6.251 -2.2552 -0.3183  4.5977
  129OSM   H11B13827   5.167   1.241   6.359 -1.1621 -0.2510  0.3503
  129OSM      P13828   5.415   1.301   6.243 -0.0759  0.6304 -0.0522
  129OSM    O1313829   5.468   1.161   6.259 -0.3450  0.1029 -0.2154
  129OSM    O1413830   5.484   1.401   6.158 -0.2761  0.7762 -0.2594
  129OSM    O1113831   5.402   1.356   6.388  0.9338 -0.2480  0.2081
  129OSM    O1213832   5.267   1.290   6.190 -0.6676  0.2609 -0.2421
  129OSM    C1S13833   5.335   1.479   6.426 -0.2363 -0.6163  0.0555
  129OSM    H1S13834   5.225   1.462   6.423 -0.6939  1.8552  0.5520
  129OSM    H1T13835   5.359   1.549   6.343  1.0347 -0.7296  0.3151
  129OSM     NF13836   5.300   1.644   6.596  0.0533 -0.1257  0.6737
  129OSM    HNF13837   5.325   1.741   6.587 -0.1236 -0.2124 -1.0459
  129OSM    C2S13838   5.386   1.538   6.560  0.0520  0.4675 -0.5715
  129OSM    H2S13839   5.374   1.454   6.632 -2.1512  1.5555  0.4175
  129OSM    C3S13840   5.546   1.567   6.559  0.4601  0.2908 -0.1210
  129OSM    H3S13841   5.556   1.657   6.494  0.5244 -0.1714 -0.7583
  129OSM     O313842   5.627   1.460   6.507  0.1368 -0.4711 -0.3550
  129OSM    HO313843   5.566   1.398   6.467  0.0935 -0.1041 -0.8630
  129OSM    C4S13844   5.574   1.608   6.701 -0.7947 -0.4887  0.2644
  129OSM    H4S13845   5.525   1.702   6.729  2.4599  0.6284  2.8776
  129OSM    C5S13846   5.652   1.548   6.794  0.6125 -0.0723  0.3171
  129OSM    H5S13847   5.689   1.448   6.769 -0.8892 -1.3713  2.8366
  129OSM    C6S13848   5.675   1.606   6.933 -0.1981 -0.4505 -0.2114
  129OSM    H6S13849   5.688   1.716   6.939 -0.8655 -0.4313  1.3119
  129OSM    H6T13850   5.757   1.553   6.986  0.7729  0.3281 -0.9084
  129OSM    C7S13851   5.546   1.568   7.020 -0.0345 -0.7336 -0.4707
  129OSM    H7S13852   5.524   1.459   7.012 -1.9734 -0.3124 -1.5895
  129OSM    H7T13853   5.457   1.626   6.989  0.9968  1.1560 -0.0442
  129OSM    C8S13854   5.565   1.589   7.171  0.2661  0.0575 -0.1824
  129OSM    H8S13855   5.466   1.560   7.210 -0.8237 -0.9051 -3.3667
  129OSM    H8T13856   5.575   1.696   7.200 -3.3226  0.0847  1.4603
  129OSM    C9S13857   5.661   1.504   7.248  0.4114  0.0168  0.7405
  129OSM    H9S13858   5.764   1.520   7.209  0.1845 -2.3582 -1.0629
  129OSM    H9T13859   5.636   1.395   7.248  1.7109 -0.3203  1.7719
  129OSM   C10S13860   5.652   1.551   7.399  0.1829  0.6037  0.2365
  129OSM   H10S13861   5.557   1.529   7.452  0.7917  0.9501  1.5045
  129OSM   H10T13862   5.650   1.661   7.409 -2.3732  0.6644 -0.1465
  129OSM   C11S13863   5.760   1.478   7.483  0.2758 -0.4250  0.7873
  129OSM   H11S13864   5.865   1.495   7.452 -0.0287 -0.0188 -0.0446
  129OSM   H11T13865   5.750   1.367   7.475  0.9300 -0.5975  2.1196
  129OSM   C12S13866   5.751   1.533   7.627 -0.9660  0.5306 -0.2982
  129OSM   H12S13867   5.644   1.528   7.658 -0.9602 -0.8136 -0.4351
  129OSM   H12T13868   5.782   1.639   7.629  1.3165  0.0065 -2.4056
  129OSM   C13S13869   5.843   1.460   7.733  0.2851  0.4735  0.4800
  129OSM   H13S13870   5.945   1.492   7.700 -1.0350  2.8424 -1.7131
  129OSM   H13T13871   5.844   1.351   7.714  0.7092  0.6875 -0.8468
  129OSM   C14S13872   5.801   1.505   7.875 -0.6605  0.0448  0.0737
  129OSM   H14S13873   5.708   1.566   7.874 -0.0199  1.0750 -2.1327
  129OSM   H14T13874   5.884   1.568   7.911 -1.3069  0.1299  1.4712
  129OSM   C15S13875   5.810   1.387   7.972  0.3873 -0.0094  1.1098
  129OSM   H15S13876   5.908   1.342   7.947 -0.1215 -0.0760 -1.0046
  129OSM   H15T13877   5.728   1.320   7.939  1.1396 -0.3515 -0.1319
  129OSM   C16S13878   5.819   1.432   8.118 -0.0985  0.7761 -0.4156
  129OSM   H16S13879   5.905   1.500   8.133 -0.4041  0.9940  0.3985
  129OSM   H16T13880   5.831   1.346   8.187  0.7754  1.7460  0.6858
  129OSM   C17S13881   5.692   1.502   8.162  0.2645 -0.2579  0.1682
  129OSM   H17S13882   5.610   1.429   8.149 -0.9411  1.1409 -0.3208
  129OSM   H17T13883   5.673   1.597   8.108 -2.4498 -1.4370 -1.1458
  129OSM   C18S13884   5.688   1.533   8.314 -0.0610 -0.0372  0.2006
  129OSM   H18S13885   5.771   1.606   8.331  2.2324 -2.3946 -0.2091
  129OSM   H18T13886   5.702   1.443   8.377  0.7276  0.1066  0.2459
  129OSM   H18U13887   5.596   1.586   8.345  1.2372  2.5795 -0.0940
  129OSM    C1F13888   5.178   1.616   6.629 -0.3904 -0.9670  0.3648
  129OSM     OF13889   5.139   1.505   6.646 -0.8588 -0.0065  0.2496
  129OSM    C2F13890   5.082   1.737   6.651 -0.5772 -0.0274  0.0359
  129OSM    H2F13891   5.001   1.726   6.576  0.5576  2.0120 -1.5934
  129OSM    H2G13892   5.141   1.831   6.645  1.4649 -1.3004 -1.2401
  129OSM    C3F13893   5.030   1.737   6.801  0.2177  1.3201 -0.4863
  129OSM    H3F13894   4.970   1.645   6.815 -0.2515  1.5646 -0.8249
  129OSM    H3G13895   4.960   1.823   6.813 -1.2888  0.2078 -0.9257
  129OSM    C4F13896   5.141   1.757   6.902 -0.9141 -0.4699 -0.4997
  129OSM    H4F13897   5.224   1.683   6.901 -0.4187  0.0792 -0.7252
  129OSM    H4G13898   5.090   1.732   6.998 -0.2605  0.9794  0.2541
  129OSM    C5F13899   5.193   1.902   6.915 -0.2871 -0.5187  0.1353
  129OSM    H5F13900   5.112   1.970   6.949 -1.9166 -2.1755 -0.2818
  129OSM    H5G13901   5.232   1.944   6.820  1.6815  2.4251  2.0735
  129OSM    C6F13902   5.305   1.922   7.029  0.3810  0.7265  0.2578
  129OSM    H6F13903   5.343   2.027   7.027  0.6324  0.6251 -0.8210
  129OSM    H6G13904   5.389   1.854   7.006 -0.0174  0.1854  0.3827
  129OSM    C7F13905   5.253   1.894   7.168  0.2027  0.1060  0.3392
  129OSM    H7F13906   5.248   1.785   7.186 -3.4142  0.2899  1.0334
  129OSM    H7G13907   5.148   1.927   7.164  0.0110 -0.5868 -2.0668
  129OSM    C8F13908   5.315   1.967   7.293 -0.7812 -0.3341  0.4653
  129OSM    H8F13909   5.325   2.075   7.269  1.7255 -0.6289 -0.0590
  129OSM    H8G13910   5.418   1.926   7.291 -0.8756 -0.6871  2.1041
  129OSM    C9F13911   5.230   1.954   7.412 -0.0666  0.7914 -0.2577
  129OSM    H9F13912   5.145   2.023   7.421  0.2661  0.9963  1.5165
  129OSM   C10F13913   5.243   1.864   7.506 -0.2634  0.5717 -1.0969
  129OSM   H10F13914   5.170   1.858   7.587 -0.8836 -0.1915 -1.6892
  129OSM   C11F13915   5.355   1.765   7.524 -0.0060 -0.2140 -0.5595
  129OSM   H11F13916   5.413   1.759   7.429  1.2173  1.5932  0.0155
  129OSM   H11G13917   5.307   1.665   7.537  1.2356 -1.1237 -2.4438
  129OSM   C12F13918   5.444   1.803   7.639 -0.5749  0.2379  0.1778
  129OSM   H12F13919   5.482   1.906   7.621 -2.7985  0.7712 -2.0385
  129OSM   H12G13920   5.524   1.731   7.615  0.1403  1.1652 -0.2930
  129OSM   C13F13921   5.413   1.778   7.791  1.0213 -0.3597  0.5309
  129OSM   H13F13922   5.337   1.853   7.822  1.1608 -0.0789  0.2093
  129OSM   H13G13923   5.503   1.781   7.857  0.2924  1.1061  1.4971
  129OSM   C14F13924   5.350   1.641   7.803 -0.3717 -0.0767  0.1195
  129OSM   H14F13925   5.403   1.567   7.739 -0.0224 -0.4709  0.8445
  129OSM   H14G13926   5.247   1.648   7.763 -0.9701 -0.0689  1.5964
  129OSM   C15F13927   5.341   1.585   7.947  0.0221  0.3586 -0.4374
  129OSM   H15F13928   5.443   1.556   7.982  0.1153 -0.0970 -1.0844
  129OSM   H15G13929   5.278   1.494   7.946 -2.1754  1.8005 -2.2539
  129OSM   C16F13930   5.286   1.684   8.059  0.3939  0.8999  0.1674
  129OSM   H16F13931   5.178   1.699   8.041  0.5490 -0.3874 -2.3041
  129OSM   H16G13932   5.340   1.780   8.042  0.2317  0.7832 -1.0903
  129OSM   C17F13933   5.296   1.642   8.203 -0.0773  0.4759  0.0815
  129OSM   H17F13934   5.239   1.719   8.259 -0.9317  0.5124 -0.8174
  129OSM   H17G13935   5.403   1.661   8.229  0.9812 -0.5644 -3.0006
  129OSM   C18F13936   5.241   1.499   8.233 -0.1433  0.1515 -0.0167
  129OSM   H18F13937   5.258   1.480   8.341  2.5427  3.4234  0.3229
  129OSM   H18G13938   5.294   1.419   8.176 -0.6783 -0.6992  0.6629
  129OSM   H18H13939   5.133   1.501   8.209 -0.6672  1.0611  2.1816
  130OSM      N13940   1.472   3.444   6.196  0.1560  0.2654  0.2221
  130OSM    C1513941   1.364   3.469   6.094  0.1060  0.3133  0.6002
  130OSM   H15A13942   1.265   3.496   6.126 -0.4894 -0.4060 -0.5861
  130OSM   H15B13943   1.356   3.385   6.026  1.1977 -1.0993  2.1311
  130OSM   H15C13944   1.399   3.547   6.028  2.3357 -0.5703  0.6481
  130OSM    C1413945   1.434   3.328   6.280  0.2660 -0.0625 -0.3735
  130OSM   H14A13946   1.415   3.245   6.215 -2.9696  0.9903 -0.9430
  130OSM   H14B13947   1.349   3.340   6.345  0.4799 -3.2643  0.6900
  130OSM   H14C13948   1.510   3.309   6.355  0.5942  2.1899 -0.0584
  130OSM    C1313949   1.605   3.411   6.141  0.2030  0.5171  0.4376
  130OSM   H13A13950   1.598   3.319   6.085 -2.3926  1.1596 -0.4445
  130OSM   H13B13951   1.676   3.379   6.216 -0.7528  0.0938  1.1873
  130OSM   H13C13952   1.638   3.486   6.071  0.7523 -0.7756 -0.7181
  130OSM    C1213953   1.475   3.565   6.285 -0.5678  0.8228  0.3668
  130OSM   H12A13954   1.524   3.648   6.236  2.6212 -1.1175 -0.0129
  130OSM   H12B13955   1.545   3.526   6.358 -2.3912  0.1673  1.8496
  130OSM    C1113956   1.352   3.620   6.353  0.2252 -0.4219 -0.0494
  130OSM   H11A13957   1.393   3.712   6.400 -1.5841  0.5002 -0.2276
  130OSM   H11B13958   1.308   3.561   6.436  0.8434 -0.1074  0.5143
  130OSM      P13959   1.111   3.691   6.289 -0.2977 -0.0768  0.4311
  130OSM    O1313960   1.050   3.812   6.232  0.2792  0.1192  0.1025
  130OSM    O1413961   1.041   3.567   6.241  0.4310  0.1725  0.6872
  130OSM    O1113962   1.100   3.696   6.444 -0.3648 -0.6640 -0.4892
  130OSM    O1213963   1.264   3.675   6.257  0.1557  0.0746 -0.1025
  130OSM    C1S13964   1.073   3.819   6.512 -0.7236  0.6312  0.5187
  130OSM    H1S13965   0.992   3.884   6.474 -0.1557 -0.2167 -2.3350
  130OSM    H1T13966   1.169   3.875   6.516 -0.4673  0.1614  1.4410
  130OSM     NF13967   1.013   3.917   6.723 -0.0862 -0.3781  0.3568
  130OSM    HNF13968   1.085   3.961   6.776  1.1332 -0.1486 -1.4362
  130OSM    C2S13969   1.041   3.792   6.660  0.3330 -0.3691  0.0320
  130OSM    H2S13970   0.946   3.739   6.684 -1.1188  0.7176 -2.8562
  130OSM    C3S13971   1.150   3.707   6.725  0.1373  0.6830  0.4269
  130OSM    H3S13972   1.245   3.759   6.698  0.0484  0.5873 -0.0844
  130OSM     O313973   1.159   3.572   6.672 -0.4244 -0.4262 -0.2289
  130OSM    HO313974   1.124   3.574   6.583 -2.3782 -1.0142  0.4765
  130OSM    C4S13975   1.130   3.699   6.871 -0.0134  0.0132  0.7281
  130OSM    H4S13976   1.029   3.658   6.888 -0.0005 -1.5174 -2.1168
  130OSM    C5S13977   1.207   3.758   6.963  0.1994  0.1454  0.1628
  130OSM    H5S13978   1.298   3.807   6.925  0.2385 -0.9004 -1.1727
  130OSM    C6S13979   1.174   3.768   7.113  0.4023  0.7253  0.4355
  130OSM    H6S13980   1.094   3.697   7.144 -0.2178  1.0977 -0.2715
  130OSM    H6T13981   1.129   3.868   7.130 -0.1479  0.2092  2.2794
  130OSM    C7S13982   1.294   3.741   7.203 -0.4970 -0.2309  0.2521
  130OSM    H7S13983   1.377   3.815   7.197 -1.0725  0.9583  4.0011
  130OSM    H7T13984   1.342   3.646   7.170  0.3010  0.0445  0.5889
  130OSM    C8S13985   1.265   3.735   7.356 -0.3837  0.2417 -0.2998
  130OSM    H8S13986   1.182   3.664   7.375  1.9206 -3.0395 -1.4618
  130OSM    H8T13987   1.237   3.838   7.387 -2.0906  0.2406 -1.6766
  130OSM    C9S13988   1.388   3.686   7.435 -0.6754 -0.4826 -0.5282
  130OSM    H9S13989   1.469   3.753   7.400  0.0754 -1.0164  0.1490
  130OSM    H9T13990   1.404   3.586   7.389 -1.6013 -0.3949 -1.0631
  130OSM   C10S13991   1.372   3.700   7.583 -0.7526  0.2811 -0.1445
  130OSM   H10S13992   1.283   3.643   7.616 -0.2149  0.7416  2.2736
  130OSM   H10T13993   1.371   3.804   7.623  0.1299  0.3960 -0.4067
  130OSM   C11S13994   1.493   3.638   7.659 -0.3519 -0.0140 -0.9600
  130OSM   H11S13995   1.577   3.707   7.637 -0.2179 -0.6759 -2.6470
  130OSM   H11T13996   1.502   3.529   7.636 -1.2420 -0.8370  2.1242
  130OSM   C12S13997   1.483   3.641   7.814  0.5235 -1.0413  0.2440
  130OSM   H12S13998   1.488   3.749   7.840  1.4861 -0.4292 -2.2821
  130OSM   H12T13999   1.577   3.594   7.849  1.1375 -0.5658 -0.7501
  130OSM   C13S14000   1.363   3.567   7.873  0.2511  0.3339 -0.2146
  130OSM   H13S14001   1.344   3.464   7.836 -0.8519  0.7011 -0.7228
  130OSM   H13T14002   1.268   3.619   7.851  0.2957  0.2518 -0.6043
  130OSM   C14S14003   1.375   3.539   8.019 -0.2568 -0.3510  0.7681
  130OSM   H14S14004   1.395   3.634   8.073 -1.6740 -0.2461  1.1536
  130OSM   H14T14005   1.459   3.469   8.035 -1.4192 -1.9013  0.3444
  130OSM   C15S14006   1.250   3.472   8.088  0.1190 -0.2491 -0.4243
  130OSM   H15S14007   1.232   3.365   8.064 -1.1263 -0.1418 -0.0283
  130OSM   H15T14008   1.160   3.518   8.041  1.0530  1.3295 -0.7407
  130OSM   C16S14009   1.239   3.482   8.239  0.1786 -0.2750  0.2873
  130OSM   H16S14010   1.208   3.585   8.268 -1.7127  0.2312 -3.0474
  130OSM   H16T14011   1.344   3.462   8.270  0.7011 -2.3810 -2.4577
  130OSM   C17S14012   1.139   3.386   8.306 -0.3744 -0.5263  0.2738
  130OSM   H17S14013   1.147   3.289   8.254 -0.6212 -0.8887  0.9045
  130OSM   H17T14014   1.029   3.400   8.299 -0.5855 -2.7734 -2.3656
  130OSM   C18S14015   1.163   3.353   8.456  0.1570  0.1579  0.0867
  130OSM   H18S14016   1.272   3.354   8.475  0.5385 -4.4597 -0.7285
  130OSM   H18T14017   1.134   3.250   8.485  2.0737 -0.1211  1.1290
  130OSM   H18U14018   1.112   3.417   8.530 -1.3956  0.4043 -1.1349
  130OSM    C1F14019   0.906   3.989   6.706  0.7924 -0.3307  0.9597
  130OSM     OF14020   0.810   3.940   6.654  0.4838 -0.0461  0.0072
  130OSM    C2F14021   0.919   4.128   6.737  0.1637  0.4679 -0.1079
  130OSM    H2F14022   0.836   4.191   6.700 -0.8305 -0.0183  1.2380
  130OSM    H2G14023   1.018   4.159   6.696  0.2274 -0.6992 -0.8872
  130OSM    C3F14024   0.944   4.138   6.895 -0.0489 -1.1428 -0.3367
  130OSM    H3F14025   0.983   4.241   6.910 -1.6196 -0.6011  0.1980
  130OSM    H3G14026   1.021   4.072   6.940 -0.4883 -0.4935  1.4496
  130OSM    C4F14027   0.814   4.104   6.977 -0.1825 -0.3078  0.0621
  130OSM    H4F14028   0.735   4.143   6.909  0.2860  2.6525  1.0831
  130OSM    H4G14029   0.817   4.152   7.077 -3.3739 -0.6025  0.3918
  130OSM    C5F14030   0.805   3.951   7.014 -0.0408 -1.0102 -0.6947
  130OSM    H5F14031   0.877   3.891   6.955  0.2519 -2.4603  1.0496
  130OSM    H5G14032   0.701   3.934   6.979 -0.4546 -1.6118  0.7576
  130OSM    C6F14033   0.834   3.909   7.159 -0.3443 -0.3163  0.6984
  130OSM    H6F14034   0.761   3.966   7.221 -3.3360 -0.4871 -2.4030
  130OSM    H6G14035   0.933   3.952   7.184 -0.2450  0.3399 -0.7394
  130OSM    C7F14036   0.823   3.770   7.183  0.4065  0.1623  0.0367
  130OSM    H7F14037   0.865   3.700   7.108  0.0553  1.5640 -1.5335
  130OSM    H7G14038   0.714   3.755   7.165  0.7039  0.5783 -2.4330
  130OSM    C8F14039   0.868   3.712   7.323  0.4362 -0.3297 -0.3603
  130OSM    H8F14040   0.978   3.709   7.335  0.3692  2.5654  2.3174
  130OSM    H8G14041   0.819   3.613   7.336  1.3239 -0.6883  0.4228
  130OSM    C9F14042   0.822   3.800   7.435 -0.0633  0.5611 -0.0227
  130OSM    H9F14043   0.769   3.895   7.414  0.4712  1.5976  2.8776
  130OSM   C10F14044   0.842   3.767   7.561 -0.0202  0.1495 -0.4166
  130OSM   H10F14045   0.811   3.840   7.637  0.0483  1.1607 -1.3307
  130OSM   C11F14046   0.914   3.646   7.620  0.0013 -0.2596  0.2721
  130OSM   H11F14047   1.007   3.624   7.562 -0.8676 -0.1332 -1.2107
  130OSM   H11G14048   0.859   3.550   7.627 -0.3813  0.0497  1.8172
  130OSM   C12F14049   0.938   3.683   7.765  0.1572  0.4922  0.2064
  130OSM   H12F14050   0.991   3.780   7.776  2.1510 -0.2688 -1.9428
  130OSM   H12G14051   1.000   3.599   7.801  0.6753 -0.9849 -3.5865
  130OSM   C13F14052   0.813   3.693   7.852 -0.0545  0.4520 -0.3130
  130OSM   H13F14053   0.741   3.773   7.826  0.8469  1.5810  0.5199
  130OSM   H13G14054   0.851   3.719   7.953  0.4389  0.2053 -0.4314
  130OSM   C14F14055   0.741   3.559   7.873  0.4559  0.2532 -0.4940
  130OSM   H14F14056   0.818   3.483   7.897  0.4984  0.8359  1.4721
  130OSM   H14G14057   0.687   3.532   7.780 -0.6287  1.6910 -0.3303
  130OSM   C15F14058   0.638   3.559   7.993 -0.3467 -0.3050  0.4968
  130OSM   H15F14059   0.553   3.629   7.981 -0.9076 -0.9802  0.4537
  130OSM   H15G14060   0.687   3.601   8.083  0.8082 -0.6295  0.0392
  130OSM   C16F14061   0.594   3.415   8.028  0.5119 -0.2934 -0.2520
  130OSM   H16F14062   0.536   3.417   8.123  0.0969 -0.9688 -0.4880
  130OSM   H16G14063   0.679   3.343   8.035  0.7109  0.0836  1.8867
  130OSM   C17F14064   0.495   3.362   7.922 -0.8044 -0.1544 -0.0910
  130OSM   H17F14065   0.553   3.339   7.830  1.2718  0.3604  1.0206
  130OSM   H17G14066   0.415   3.432   7.890 -0.5962 -0.5623 -1.5700
  130OSM   C18F14067   0.434   3.229   7.966 -0.3561  0.1815  0.5008
  130OSM   H18F14068   0.367   3.185   7.890 -2.5155 -1.4755  3.2128
  130OSM   H18G14069   0.371   3.246   8.055 -1.5198 -1.3256 -0.0053
  130OSM   H18H14070   0.512   3.157   7.999 -0.3899 -0.2177 -0.2721
  131OSM      N14071   4.373   0.868   6.198 -0.0031  0.5507 -0.2559
  131OSM    C1514072   4.404   0.725   6.158  0.3621  0.8202 -0.7490
  131OSM   H15A14073   4.502   0.722   6.112  0.4467  0.1156 -0.5377
  131OSM   H15B14074   4.336   0.698   6.078  1.8322 -0.3345 -1.6516
  131OSM   H15C14075   4.374   0.660   6.239 -0.8755  0.4503 -1.4761
  131OSM    C1414076   4.225   0.886   6.202 -0.0439 -0.0974  0.1568
  131OSM   H14A14077   4.186   0.870   6.103 -1.2998 -0.3475  0.6676
  131OSM   H14B14078   4.204   0.989   6.228  0.0345  0.5016 -1.9833
  131OSM   H14C14079   4.179   0.823   6.277  0.0206  0.0401  0.3144
  131OSM    C1314080   4.426   0.880   6.343  0.0838  0.5810  0.3314
  131OSM   H13A14081   4.367   0.818   6.407  1.4176 -0.2985  0.7412
  131OSM   H13B14082   4.410   0.982   6.375 -2.9115  0.3206 -0.1026
  131OSM   H13C14083   4.530   0.852   6.355 -0.1156 -0.6863 -0.7083
  131OSM    C1214084   4.446   0.972   6.120 -0.3966  0.8152  0.1861
  131OSM   H12A14085   4.419   1.064   6.171 -0.9878  0.0729  1.2509
  131OSM   H12B14086   4.409   0.988   6.020  2.3422  0.5133 -0.9818
  131OSM    C1114087   4.603   0.964   6.113 -0.1878  0.1300 -0.6519
  131OSM   H11A14088   4.645   0.965   6.216 -1.8697 -2.0844  0.1338
  131OSM   H11B14089   4.642   1.059   6.071 -0.0823 -0.2723 -1.4791
  131OSM      P14090   4.775   0.765   6.062  0.4071  0.2252 -0.5321
  131OSM    O1314091   4.738   0.646   6.144 -0.5108 -0.1495  0.3190
  131OSM    O1414092   4.822   0.731   5.926  0.2700  0.2576 -1.2761
  131OSM    O1114093   4.886   0.848   6.139  0.7510 -0.5011 -0.1392
  131OSM    O1214094   4.639   0.856   6.030 -0.4858  0.2550  0.2424
  131OSM    C1S14095   4.878   0.855   6.282 -0.3778  0.5261 -0.2942
  131OSM    H1S14096   4.785   0.812   6.326  0.1695 -0.7252 -0.2970
  131OSM    H1T14097   4.894   0.959   6.315  0.5724  0.2270  0.2389
  131OSM     NF14098   5.000   0.790   6.489  0.0150 -0.6520  0.1281
  131OSM    HNF14099   5.070   0.859   6.503 -1.8897  1.5117 -0.3589
  131OSM    C2S14100   4.994   0.766   6.349 -0.6737 -1.1999  0.6320
  131OSM    H2S14101   4.961   0.661   6.337 -2.7995 -0.7398  1.9151
  131OSM    C3S14102   5.134   0.774   6.282 -0.4621 -0.0847 -0.7909
  131OSM    H3S14103   5.170   0.879   6.295 -0.3901 -0.1044 -0.8321
  131OSM     O314104   5.145   0.765   6.141  0.1734 -0.8679 -0.2372
  131OSM    HO314105   5.053   0.783   6.124  0.2332  1.3515  1.3511
  131OSM    C4S14106   5.222   0.669   6.346  0.6261  0.1797  0.1088
  131OSM    H4S14107   5.170   0.578   6.380  1.8501  0.0014  1.5929
  131OSM    C5S14108   5.354   0.689   6.378 -0.0485 -0.1056  0.5938
  131OSM    H5S14109   5.412   0.776   6.345  3.4504 -2.7645 -0.8693
  131OSM    C6S14110   5.434   0.582   6.441 -0.4515  0.0642  0.9896
  131OSM    H6S14111   5.544   0.597   6.436 -0.4591  0.3787  1.6727
  131OSM    H6T14112   5.409   0.483   6.396 -1.4287 -0.1170  1.8833
  131OSM    C7S14113   5.396   0.565   6.591  0.0862 -0.0187  0.0577
  131OSM    H7S14114   5.439   0.472   6.635 -0.6467 -0.5961 -0.4045
  131OSM    H7T14115   5.286   0.549   6.586  0.1028  0.2380 -1.8329
  131OSM    C8S14116   5.441   0.688   6.671 -0.2860  0.3859  0.2455
  131OSM    H8S14117   5.403   0.780   6.623 -0.2505  0.9523  1.2597
  131OSM    H8T14118   5.550   0.708   6.682 -0.5225  0.9784  1.7306
  131OSM    C9S14119   5.385   0.683   6.815 -0.7186  0.5235  0.7085
  131OSM    H9S14120   5.433   0.599   6.870  1.0322  1.2088  0.2998
  131OSM    H9T14121   5.280   0.651   6.795 -0.3329 -2.0130  2.2654
  131OSM   C10S14122   5.394   0.818   6.882 -0.2729 -0.3965 -0.1038
  131OSM   H10S14123   5.351   0.895   6.815  0.6538 -0.2637 -0.5517
  131OSM   H10T14124   5.496   0.847   6.915 -0.0766 -0.8108 -0.3338
  131OSM   C11S14125   5.305   0.815   7.006  0.4316 -0.3054  0.4802
  131OSM   H11S14126   5.223   0.743   6.988 -0.5426  1.3808 -2.6033
  131OSM   H11T14127   5.255   0.913   7.019 -2.8631 -1.8986  0.8050
  131OSM   C12S14128   5.388   0.777   7.130 -0.5866  0.7634  0.6658
  131OSM   H12S14129   5.460   0.860   7.146 -0.1887  0.8003 -1.1868
  131OSM   H12T14130   5.450   0.686   7.113  0.0188  1.5895 -1.9754
  131OSM   C13S14131   5.305   0.774   7.259 -0.5263  0.5592 -0.2129
  131OSM   H13S14132   5.234   0.688   7.255 -2.1275  1.7647  0.9526
  131OSM   H13T14133   5.240   0.862   7.240  0.2154  0.8420 -1.5369
  131OSM   C14S14134   5.385   0.770   7.391  0.1539 -0.0718 -1.4516
  131OSM   H14S14135   5.433   0.865   7.425 -0.8934  0.2790 -0.9069
  131OSM   H14T14136   5.462   0.690   7.381 -0.4626 -0.8895  0.0649
  131OSM   C15S14137   5.310   0.733   7.522  0.4919  0.3464  0.3157
  131OSM   H15S14138   5.266   0.633   7.502  1.2732  0.2183 -0.8358
  131OSM   H15T14139   5.226   0.804   7.543 -1.1905 -1.5984  0.4505
  131OSM   C16S14140   5.392   0.694   7.649  0.5794  0.2403 -0.5561
  131OSM   H16S14141   5.469   0.773   7.664  1.0154 -0.3369  0.2853
  131OSM   H16T14142   5.444   0.597   7.636 -0.4204 -0.3965  0.0452
  131OSM   C17S14143   5.309   0.690   7.778 -0.1628 -0.0738 -0.4885
  131OSM   H17S14144   5.274   0.794   7.797 -2.6714 -1.2144  1.8847
  131OSM   H17T14145   5.382   0.651   7.853  0.3793 -2.6767 -2.2763
  131OSM   C18S14146   5.187   0.602   7.777 -0.4797 -0.6657  0.5941
  131OSM   H18S14147   5.220   0.500   7.750  2.0512  0.3852 -0.6005
  131OSM   H18T14148   5.115   0.627   7.696 -2.4038  0.5782  2.5660
  131OSM   H18U14149   5.135   0.606   7.875 -2.9797  1.9757 -0.6872
  131OSM    C1F14150   4.902   0.769   6.579 -0.3532 -0.8607 -0.2543
  131OSM     OF14151   4.806   0.702   6.549  0.0166  0.3692 -0.2763
  131OSM    C2F14152   4.918   0.837   6.708  0.2421  0.2450  0.0405
  131OSM    H2F14153   4.896   0.945   6.693  0.1295  0.0461 -1.3294
  131OSM    H2G14154   5.024   0.831   6.743 -1.1376 -0.6084  4.8147
  131OSM    C3F14155   4.830   0.765   6.810 -0.6564 -0.3475 -0.2692
  131OSM    H3F14156   4.826   0.655   6.796 -3.4779 -0.3445  0.0433
  131OSM    H3G14157   4.721   0.784   6.813 -0.3775  1.2798  0.5115
  131OSM    C4F14158   4.861   0.796   6.962 -0.9289 -0.4810  0.1196
  131OSM    H4F14159   4.819   0.894   6.993  1.6849  0.6278  0.4772
  131OSM    H4G14160   4.968   0.826   6.967 -1.8548  3.3909 -0.1037
  131OSM    C5F14161   4.831   0.678   7.054  0.3227  0.0865 -0.1397
  131OSM    H5F14162   4.863   0.583   7.007 -0.2848  0.0682 -0.5289
  131OSM    H5G14163   4.720   0.674   7.056  0.2761 -0.4254 -1.7784
  131OSM    C6F14164   4.894   0.701   7.186  0.6530 -0.0769  0.2453
  131OSM    H6F14165   4.847   0.787   7.238  1.2581 -0.6662  1.8295
  131OSM    H6G14166   5.000   0.732   7.181  0.4725  0.6174  0.5691
  131OSM    C7F14167   4.879   0.562   7.258 -0.6211 -0.1846 -0.6140
  131OSM    H7F14168   4.920   0.485   7.188 -0.9555  0.6915 -1.8091
  131OSM    H7G14169   4.775   0.539   7.289 -0.4368 -1.6297 -0.9843
  131OSM    C8F14170   4.966   0.544   7.385  0.8773 -0.0381 -0.3662
  131OSM    H8F14171   4.920   0.620   7.452  0.1951  0.1786 -1.0659
  131OSM    H8G14172   5.070   0.577   7.366  1.5298 -1.0039  1.3713
  131OSM    C9F14173   4.967   0.410   7.444  0.5493 -0.4388  0.5305
  131OSM    H9F14174   4.998   0.331   7.374  0.0036  0.9999 -1.4350
  131OSM   C10F14175   4.914   0.374   7.562  0.5763  0.3509  0.3450
  131OSM   H10F14176   4.926   0.265   7.573  0.9254  0.4134  0.6090
  131OSM   C11F14177   4.840   0.445   7.679 -0.4984 -0.3508  0.2898
  131OSM   H11F14178   4.821   0.550   7.648 -2.8281 -0.9876 -0.6124
  131OSM   H11G14179   4.910   0.462   7.764  0.7137 -0.1029 -0.7380
  131OSM   C12F14180   4.712   0.384   7.738 -0.4146  0.5808 -0.3491
  131OSM   H12F14181   4.739   0.287   7.786  1.5396  0.8279 -0.8646
  131OSM   H12G14182   4.643   0.361   7.655 -1.0720 -1.4569  0.6848
  131OSM   C13F14183   4.642   0.465   7.850 -0.5790  0.1199 -0.3093
  131OSM   H13F14184   4.639   0.569   7.811  0.5266 -0.1006 -1.0167
  131OSM   H13G14185   4.711   0.470   7.937 -1.0668  1.1622  0.0445
  131OSM   C14F14186   4.505   0.408   7.891  0.1144 -0.5744 -0.0857
  131OSM   H14F14187   4.443   0.375   7.805 -1.7451  0.6965  0.6906
  131OSM   H14G14188   4.444   0.490   7.934 -1.9712 -1.0434 -1.9388
  131OSM   C15F14189   4.510   0.285   7.985 -0.5484 -0.0378 -0.0236
  131OSM   H15F14190   4.612   0.243   7.970  1.4389  3.4186  2.3744
  131OSM   H15G14191   4.425   0.215   7.970 -1.1305  0.6527 -0.0037
  131OSM   C16F14192   4.505   0.332   8.138  0.9077 -0.6320  0.2547
  131OSM   H16F14193   4.404   0.372   8.160  0.8648 -0.5763 -0.0390
  131OSM   H16G14194   4.561   0.429   8.137 -0.1099 -0.0238 -1.3872
  131OSM   C17F14195   4.537   0.235   8.249  0.5708  0.7106  0.4032
  131OSM   H17F14196   4.533   0.298   8.341  1.2595  0.7294  0.4230
  131OSM   H17G14197   4.639   0.195   8.230 -0.3324 -1.3683 -0.3447
  131OSM   C18F14198   4.434   0.122   8.255 -0.0985  0.1401  0.0348
  131OSM   H18F14199   4.468   0.048   8.331  0.9347  0.6761  0.1161
  131OSM   H18G14200   4.424   0.075   8.155 -1.2453  1.1083 -0.3271
  131OSM   H18H14201   4.336   0.166   8.283 -1.2970 -2.0823 -0.4614
  132OSM      N14202   1.013   0.552   6.266 -0.5859  0.4150  0.0162
  132OSM    C1514203   1.097   0.635   6.170 -0.5472 -0.0574  0.3331
  132OSM   H15A14204   1.060   0.653   6.071  2.0438  0.5951 -0.5974
  132OSM   H15B14205   1.194   0.587   6.161 -0.9084 -0.4780 -1.9469
  132OSM   H15C14206   1.103   0.734   6.212  2.1270 -0.3527  0.8583
  132OSM    C1414207   0.942   0.442   6.188  0.6538  0.3208  0.4779
  132OSM   H14A14208   0.997   0.350   6.179  0.1576  0.1848 -2.1550
  132OSM   H14B14209   0.908   0.482   6.093  1.3375 -0.0179  0.0847
  132OSM   H14C14210   0.859   0.411   6.251  0.8848  0.3882  0.8169
  132OSM    C1314211   1.106   0.492   6.365  0.8400  0.2787  0.0182
  132OSM   H13A14212   1.173   0.568   6.403 -0.0338  1.1372 -0.1183
  132OSM   H13B14213   1.169   0.416   6.322  0.1396 -0.7214  0.7181
  132OSM   H13C14214   1.059   0.440   6.447  1.2197 -0.8985 -0.4848
  132OSM    C1214215   0.911   0.637   6.339 -0.3072  0.0717  0.4282
  132OSM   H12A14216   0.855   0.585   6.415  0.1218 -1.2491 -0.1265
  132OSM   H12B14217   0.825   0.671   6.282  0.8316 -0.0064 -1.4364
  132OSM    C1114218   0.968   0.757   6.415  0.0023  0.6216  0.3794
  132OSM   H11A14219   1.073   0.746   6.450  0.9523  0.6089 -2.2728
  132OSM   H11B14220   0.901   0.796   6.495  0.9211  2.0502  0.4929
  132OSM      P14221   0.851   0.947   6.261  0.3336  0.0029 -0.2137
  132OSM    O1314222   0.896   1.005   6.133  0.7402 -0.2262  0.3817
  132OSM    O1414223   0.737   0.856   6.262  0.9881  0.8497 -0.1346
  132OSM    O1114224   0.819   1.063   6.365  0.4360 -0.1254  0.5997
  132OSM    O1214225   0.973   0.875   6.329 -0.3092 -0.1523  0.0192
  132OSM    C1S14226   0.695   1.088   6.427  0.1709 -0.2211  0.4619
  132OSM    H1S14227   0.607   1.037   6.383 -0.3033  1.1948 -0.3004
  132OSM    H1T14228   0.669   1.196   6.420  2.3191  0.3250  0.2747
  132OSM     NF14229   0.557   1.056   6.632 -0.3719 -0.5438  0.4897
  132OSM    HNF14230   0.536   1.132   6.693 -0.5843 -0.2308  0.0304
  132OSM    C2S14231   0.697   1.059   6.584 -0.5006  0.3508 -0.3994
  132OSM    H2S14232   0.754   0.969   6.614 -0.8317  0.0671 -0.6196
  132OSM    C3S14233   0.783   1.177   6.649 -0.1186 -0.4825  0.0416
  132OSM    H3S14234   0.735   1.277   6.649 -1.8690 -1.2836 -1.1561
  132OSM     O314235   0.918   1.183   6.583  0.4205 -0.4677  0.3426
  132OSM    HO314236   0.916   1.123   6.508 -0.4204 -0.3204  0.2418
  132OSM    C4S14237   0.800   1.142   6.800 -0.4249  0.1284  0.0656
  132OSM    H4S14238   0.864   1.054   6.812 -1.3058 -0.8044 -1.6718
  132OSM    C5S14239   0.750   1.197   6.915  0.7270  0.7224 -0.1729
  132OSM    H5S14240   0.689   1.288   6.908  0.2787  0.4154 -0.3490
  132OSM    C6S14241   0.758   1.137   7.051 -0.6559 -0.4769 -0.3767
  132OSM    H6S14242   0.659   1.116   7.096 -0.0238  1.9288  2.4339
  132OSM    H6T14243   0.798   1.221   7.111  0.3782  0.3576 -2.1445
  132OSM    C7S14244   0.844   1.013   7.072  1.4183 -0.2219  0.0049
  132OSM    H7S14245   0.953   1.032   7.073  1.4144  0.0672 -1.6508
  132OSM    H7T14246   0.820   0.937   6.995 -0.6237  0.3724 -0.0024
  132OSM    C8S14247   0.796   0.942   7.204 -0.1529 -0.0067  0.0935
  132OSM    H8S14248   0.855   0.850   7.223 -0.2982  0.3860  2.8711
  132OSM    H8T14249   0.695   0.907   7.172  0.1901 -0.9029 -0.0280
  132OSM    C9S14250   0.805   1.024   7.337 -0.7273  0.2045  0.3517
  132OSM    H9S14251   0.778   0.946   7.411 -2.6223 -0.1703 -0.6921
  132OSM    H9T14252   0.742   1.115   7.346  1.5923  1.8311  1.3240
  132OSM   C10S14253   0.946   1.076   7.370  0.0075  0.3243  0.6639
  132OSM   H10S14254   0.973   1.170   7.316 -1.6452  1.2688  1.3874
  132OSM   H10T14255   1.023   1.001   7.340 -3.1521 -2.7810 -0.3329
  132OSM   C11S14256   0.966   1.122   7.512  0.0292 -0.3832  0.5281
  132OSM   H11S14257   0.874   1.173   7.548  0.7650  0.6635  0.9727
  132OSM   H11T14258   1.047   1.198   7.509 -0.3046 -0.0357  0.1185
  132OSM   C12S14259   1.003   1.013   7.615 -0.0262 -0.4562 -0.1328
  132OSM   H12S14260   1.107   0.988   7.585  0.2668  1.1019 -0.5107
  132OSM   H12T14261   0.932   0.929   7.600 -0.8527  0.5356 -2.1128
  132OSM   C13S14262   0.996   1.072   7.756 -0.6217  0.2854  0.2166
  132OSM   H13S14263   0.888   1.089   7.772 -0.6375  1.2094 -0.7249
  132OSM   H13T14264   1.058   1.164   7.754  1.0528 -0.7876  0.7578
  132OSM   C14S14265   1.051   0.974   7.857 -0.0688 -0.1069 -0.3487
  132OSM   H14S14266   1.150   0.942   7.818 -0.5798 -0.6920 -1.1923
  132OSM   H14T14267   0.982   0.887   7.861 -0.3538  0.1502  1.9162
  132OSM   C15S14268   1.065   1.044   7.993  0.1390  0.0541  0.0433
  132OSM   H15S14269   0.964   1.054   8.040  0.0100  0.1706 -0.2556
  132OSM   H15T14270   1.079   1.153   7.978  1.2309  0.1646  1.6067
  132OSM   C16S14271   1.172   0.977   8.083 -0.5092  0.2127 -0.3677
  132OSM   H16S14272   1.264   1.035   8.063  0.3436  0.0193  2.5502
  132OSM   H16T14273   1.171   0.872   8.046  0.7539  1.1737 -3.5170
  132OSM   C17S14274   1.129   0.977   8.228  0.2812  0.7125  0.8585
  132OSM   H17S14275   1.190   0.903   8.284  1.2742  1.7005  1.1097
  132OSM   H17T14276   1.022   0.949   8.240 -0.3703  1.6695 -1.9023
  132OSM   C18S14277   1.148   1.112   8.296  0.4661 -0.0988  0.0839
  132OSM   H18S14278   1.258   1.124   8.289  0.1759  3.2489 -0.2124
  132OSM   H18T14279   1.121   1.115   8.404  1.8354  0.2529  0.4337
  132OSM   H18U14280   1.095   1.194   8.243  1.2900 -0.2718 -1.0409
  132OSM    C1F14281   0.474   0.950   6.621  0.4787 -0.2398 -0.1175
  132OSM     OF14282   0.509   0.842   6.567  0.4697  0.0735 -0.4371
  132OSM    C2F14283   0.339   0.964   6.673 -0.2656  0.5872  0.3267
  132OSM    H2F14284   0.266   0.892   6.630 -0.4945  2.0321 -1.8104
  132OSM    H2G14285   0.303   1.069   6.666  0.4680  0.8987  1.0540
  132OSM    C3F14286   0.358   0.933   6.828  0.1026  0.2274  0.1733
  132OSM    H3F14287   0.432   0.999   6.877  1.2409 -1.2544  0.5235
  132OSM    H3G14288   0.390   0.830   6.854 -2.4832 -1.2265 -1.8526
  132OSM    C4F14289   0.225   0.968   6.911 -0.6666  0.1831 -0.2914
  132OSM    H4F14290   0.157   0.880   6.914 -0.6356  0.1830  1.5419
  132OSM    H4G14291   0.177   1.059   6.869 -0.5696  1.5402  2.3369
  132OSM    C5F14292   0.265   0.999   7.060 -0.3437  0.0716 -0.6272
  132OSM    H5F14293   0.171   0.995   7.119 -1.2694  2.6869 -1.7878
  132OSM    H5G14294   0.305   1.102   7.065  0.9933 -0.4357 -0.6527
  132OSM    C6F14295   0.367   0.910   7.133  0.2507  0.5898 -0.0679
  132OSM    H6F14296   0.463   0.913   7.078  0.4956  2.1827  0.3899
  132OSM    H6G14297   0.334   0.804   7.140  1.3819  0.3092  1.7691
  132OSM    C7F14298   0.398   0.952   7.272  0.4438 -0.1723 -0.1108
  132OSM    H7F14299   0.457   1.046   7.273 -0.5966  0.4968  0.3741
  132OSM    H7G14300   0.470   0.883   7.321  1.4846  0.2827 -0.9617
  132OSM    C8F14301   0.280   0.981   7.364  0.0969  0.0623 -0.6888
  132OSM    H8F14302   0.220   1.058   7.311 -0.9019 -0.5010 -0.3824
  132OSM    H8G14303   0.322   1.025   7.457  0.9248  0.0535 -1.0459
  132OSM    C9F14304   0.206   0.855   7.396 -0.0565  0.2649 -0.2930
  132OSM    H9F14305   0.144   0.818   7.313 -1.2294 -0.1257  0.7269
  132OSM   C10F14306   0.200   0.789   7.519  0.3420  1.0317  0.6470
  132OSM   H10F14307   0.160   0.686   7.517  3.7755 -0.4300 -0.5343
  132OSM   C11F14308   0.276   0.819   7.641 -0.6915  0.3907  0.3988
  132OSM   H11F14309   0.354   0.897   7.626  3.8887 -3.7203  0.4458
  132OSM   H11G14310   0.333   0.726   7.657  0.0534  1.0463  1.6432
  132OSM   C12F14311   0.197   0.859   7.765 -0.4721  0.8949  0.2506
  132OSM   H12F14312   0.114   0.786   7.770  0.4016 -0.0593  1.2243
  132OSM   H12G14313   0.144   0.956   7.757 -1.4647  0.2557 -1.1693
  132OSM   C13F14314   0.297   0.857   7.880  0.2783 -1.3182 -0.6044
  132OSM   H13F14315   0.378   0.927   7.850 -0.8872  0.9708  1.1853
  132OSM   H13G14316   0.339   0.756   7.897  0.8200 -0.7746  1.7734
  132OSM   C14F14317   0.239   0.903   8.011 -0.1002 -0.3662 -0.2709
  132OSM   H14F14318   0.149   0.843   8.038 -0.5264  0.3487 -0.0549
  132OSM   H14G14319   0.189   1.003   8.004  1.0574  0.3691  1.2890
  132OSM   C15F14320   0.341   0.902   8.135  0.0159  0.3511  0.4892
  132OSM   H15F14321   0.425   0.965   8.099 -0.3301 -0.1212 -1.2792
  132OSM   H15G14322   0.388   0.802   8.136  2.4832  1.4137 -0.5676
  132OSM   C16F14323   0.273   0.933   8.264  0.2980 -0.1062 -0.2883
  132OSM   H16F14324   0.184   0.867   8.272  1.1266 -1.0469  1.8393
  132OSM   H16G14325   0.239   1.038   8.269 -0.1306 -0.1865 -1.2199
  132OSM   C17F14326   0.371   0.904   8.379  0.6926  0.6914 -0.4602
  132OSM   H17F14327   0.447   0.985   8.379  0.5958  0.7934 -1.5535
  132OSM   H17G14328   0.412   0.803   8.359 -1.3146 -0.2235 -0.2304
  132OSM   C18F14329   0.301   0.907   8.521 -0.9051  0.0703  0.0760
  132OSM   H18F14330   0.286   1.013   8.549  2.3768  1.0378 -1.3323
  132OSM   H18G14331   0.372   0.868   8.597 -0.4133  0.6868 -0.0532
  132OSM   H18H14332   0.202   0.858   8.518 -2.0198  2.2549 -1.5727
  133OSM      N14333   1.070   2.390   6.072  0.6768  0.2502 -0.0708
  133OSM    C1514334   1.134   2.352   5.937  0.7508  0.0930 -0.4013
  133OSM   H15A14335   1.051   2.325   5.873 -0.8002 -0.1172  1.6135
  133OSM   H15B14336   1.188   2.259   5.949  0.5266  0.1071  0.8453
  133OSM   H15C14337   1.190   2.428   5.885 -0.6844  1.3104 -0.2293
  133OSM    C1414338   1.178   2.430   6.165  0.0100 -0.4255 -0.0517
  133OSM   H14A14339   1.253   2.353   6.155  0.5257  0.1386 -0.7302
  133OSM   H14B14340   1.156   2.424   6.271 -3.3306 -1.9467 -0.7147
  133OSM   H14C14341   1.233   2.515   6.126  0.3943 -0.9563 -0.6996
  133OSM    C1314342   0.974   2.501   6.053 -0.7614 -0.1380  0.0483
  133OSM   H13A14343   0.875   2.462   6.033 -1.3256  2.1386 -2.2376
  133OSM   H13B14344   0.992   2.564   5.967 -2.1777  0.3608  0.0918
  133OSM   H13C14345   0.955   2.550   6.147  1.7474 -2.0328  1.6924
  133OSM    C1214346   0.984   2.271   6.124 -0.6240 -0.2345  0.4631
  133OSM   H12A14347   0.948   2.293   6.224  1.7419 -4.5516  2.5466
  133OSM   H12B14348   1.054   2.189   6.127 -0.6007 -0.2460 -0.3358
  133OSM    C1114349   0.870   2.215   6.038 -0.5445  0.5596 -0.3979
  133OSM   H11A14350   0.843   2.112   6.070  0.1921 -0.2556 -2.2810
  133OSM   H11B14351   0.906   2.196   5.935 -1.8671  0.3295 -0.8389
  133OSM      P14352   0.669   2.325   6.162  0.4792  0.0950  0.2988
  133OSM    O1314353   0.740   2.414   6.256 -0.2362  0.2307  0.0850
  133OSM    O1414354   0.541   2.373   6.115 -0.0379 -0.8755 -0.1495
  133OSM    O1114355   0.650   2.173   6.217 -0.0923 -0.1876 -0.0801
  133OSM    O1214356   0.761   2.301   6.034 -0.9170 -0.4411  0.2259
  133OSM    C1S14357   0.724   2.124   6.324 -0.6573  0.1149  0.1913
  133OSM    H1S14358   0.824   2.171   6.324  0.1249 -1.2510 -3.1009
  133OSM    H1T14359   0.735   2.014   6.320 -1.6744 -0.1208  2.3022
  133OSM     NF14360   0.745   2.104   6.565 -0.3674 -0.0346  0.2157
  133OSM    HNF14361   0.732   2.006   6.582 -1.1346  0.0065 -0.1118
  133OSM    C2S14362   0.657   2.153   6.458 -0.2775  0.4339 -0.1579
  133OSM    H2S14363   0.646   2.263   6.463 -0.1017  0.4210  0.9013
  133OSM    C3S14364   0.517   2.087   6.459 -0.2340 -0.0054 -0.6016
  133OSM    H3S14365   0.531   1.977   6.451 -1.7201 -0.3215  0.7307
  133OSM     O314366   0.432   2.128   6.351  0.5447  0.5998  0.2751
  133OSM    HO314367   0.489   2.164   6.283 -2.1155  2.3679 -1.2251
  133OSM    C4S14368   0.452   2.112   6.597  0.0051 -0.1051  0.1445
  133OSM    H4S14369   0.481   2.044   6.679 -2.0931  0.9480  1.8443
  133OSM    C5S14370   0.353   2.207   6.623 -0.4673  0.3014 -0.1399
  133OSM    H5S14371   0.310   2.261   6.538  0.8840 -1.3269 -1.9418
  133OSM    C6S14372   0.291   2.229   6.756  0.1155 -0.3746 -0.0397
  133OSM    H6S14373   0.203   2.162   6.767 -1.0398  1.0631 -0.2274
  133OSM    H6T14374   0.253   2.333   6.763  2.8402  0.7990 -1.0913
  133OSM    C7S14375   0.379   2.210   6.879 -0.8981  0.2863 -0.8862
  133OSM    H7S14376   0.404   2.103   6.895 -0.2728  0.6134  0.4160
  133OSM    H7T14377   0.322   2.230   6.972  1.6574 -0.4819  0.9435
  133OSM    C8S14378   0.495   2.304   6.881  0.1053  0.6854  0.0946
  133OSM    H8S14379   0.439   2.399   6.893  1.1263  1.1538  1.5314
  133OSM    H8T14380   0.560   2.296   6.792 -0.3054  2.4922 -0.4096
  133OSM    C9S14381   0.568   2.285   7.013 -0.4025  0.6639  0.2187
  133OSM    H9S14382   0.509   2.309   7.104  0.7391  2.1882  0.5865
  133OSM    H9T14383   0.650   2.359   7.020  0.9915 -0.8059  0.1469
  133OSM   C10S14384   0.635   2.149   7.034 -0.4857  0.1866 -0.3713
  133OSM   H10S14385   0.695   2.104   6.952 -0.1073  0.5463 -0.2898
  133OSM   H10T14386   0.551   2.079   7.054  0.8436 -0.7287  2.5126
  133OSM   C11S14387   0.710   2.143   7.174  0.3314 -0.5350  1.1569
  133OSM   H11S14388   0.739   2.242   7.216  0.3201 -0.3802  0.8024
  133OSM   H11T14389   0.812   2.106   7.154 -0.0745 -2.4808  2.3640
  133OSM   C12S14390   0.646   2.053   7.282  0.5313 -0.1168  0.7057
  133OSM   H12S14391   0.635   1.948   7.246 -1.2855  0.3984 -0.3612
  133OSM   H12T14392   0.542   2.083   7.305  0.2865 -1.4890  1.5206
  133OSM   C13S14393   0.731   2.045   7.405  0.2658  0.1342 -1.1151
  133OSM   H13S14394   0.747   2.146   7.449  2.1881 -0.2244 -0.9151
  133OSM   H13T14395   0.830   1.997   7.388  0.3753 -0.1095  0.0853
  133OSM   C14S14396   0.662   1.954   7.516  0.0601  0.0299  0.1440
  133OSM   H14S14397   0.622   1.868   7.459  0.2013 -0.3080  0.5469
  133OSM   H14T14398   0.572   2.009   7.549  0.1923  0.2134  0.1995
  133OSM   C15S14399   0.757   1.912   7.632  0.0591 -0.8176  0.2113
  133OSM   H15S14400   0.847   1.864   7.587 -0.2472 -1.9830  0.8099
  133OSM   H15T14401   0.704   1.841   7.699  1.0810 -0.2632  1.6486
  133OSM   C16S14402   0.796   2.039   7.709 -0.4942 -0.6169 -0.2323
  133OSM   H16S14403   0.708   2.108   7.703 -0.4049 -0.2759  1.7900
  133OSM   H16T14404   0.871   2.089   7.644  2.4853 -3.8320  0.4985
  133OSM   C17S14405   0.825   2.022   7.855  0.2532 -0.9054  0.1230
  133OSM   H17S14406   0.907   1.951   7.874  1.9657  1.3453  1.6662
  133OSM   H17T14407   0.737   1.984   7.911 -1.5779  0.7232 -1.4469
  133OSM   C18S14408   0.871   2.151   7.910  0.0705 -1.0488  0.1479
  133OSM   H18S14409   0.928   2.145   8.005  0.5057  2.6840  0.2932
  133OSM   H18T14410   0.799   2.235   7.915  0.1332 -1.0711  2.2509
  133OSM   H18U14411   0.955   2.197   7.853  0.7553 -0.3105  1.7001
  133OSM    C1F14412   0.859   2.161   6.614  0.6644 -0.6407  0.6019
  133OSM     OF14413   0.900   2.271   6.575 -0.0920  0.5539  1.0907
  133OSM    C2F14414   0.933   2.074   6.707 -0.4880 -0.2263 -0.0128
  133OSM    H2F14415   0.944   1.979   6.651  0.8824 -0.6451  0.8951
  133OSM    H2G14416   0.862   2.060   6.792 -1.4047  0.0634 -0.7160
  133OSM    C3F14417   1.069   2.137   6.754  0.3684  0.0813  1.0560
  133OSM    H3F14418   1.050   2.243   6.783 -0.7189  0.4301 -0.7595
  133OSM    H3G14419   1.136   2.128   6.666  2.9533 -0.5698  2.9768
  133OSM    C4F14420   1.137   2.065   6.870 -0.1746  0.0112 -0.2614
  133OSM    H4F14421   1.238   2.108   6.887  1.5188 -3.9711  1.0770
  133OSM    H4G14422   1.174   1.966   6.836 -3.0860 -1.5380  0.7190
  133OSM    C5F14423   1.054   2.060   6.997  0.3546  0.5112 -0.0489
  133OSM    H5F14424   0.972   1.986   6.986  2.8013 -2.8372  2.4098
  133OSM    H5G14425   1.014   2.162   7.017 -2.8173 -0.6543  0.1812
  133OSM    C6F14426   1.134   2.021   7.118 -0.6179  0.4423 -0.5024
  133OSM    H6F14427   1.230   1.972   7.091 -0.0448  0.5407  1.2610
  133OSM    H6G14428   1.075   1.942   7.167 -1.4109  1.4236  0.1685
  133OSM    C7F14429   1.153   2.134   7.222  0.1273 -0.4542 -0.1429
  133OSM    H7F14430   1.055   2.169   7.261  0.0893 -0.5998 -0.1049
  133OSM    H7G14431   1.196   2.222   7.170 -0.4576  2.2685  3.6172
  133OSM    C8F14432   1.249   2.087   7.344  0.7338  0.6339  0.0335
  133OSM    H8F14433   1.317   2.006   7.311  1.6270  1.1545  0.5187
  133OSM    H8G14434   1.176   2.028   7.402 -0.2384 -0.8811 -2.5736
  133OSM    C9F14435   1.323   2.188   7.424 -0.7756 -0.8529 -0.2528
  133OSM    H9F14436   1.413   2.230   7.377 -1.6999  0.2082 -1.1368
  133OSM   C10F14437   1.308   2.220   7.554 -0.1801  0.0578  0.0049
  133OSM   H10F14438   1.377   2.290   7.603 -1.2208  2.1711 -1.3717
  133OSM   C11F14439   1.199   2.173   7.646 -0.5579 -0.3439  0.4022
  133OSM   H11F14440   1.161   2.073   7.614  1.8262 -0.6864 -1.6661
  133OSM   H11G14441   1.122   2.252   7.640 -0.3613 -0.1168  0.7978
  133OSM   C12F14442   1.247   2.155   7.790 -0.5003 -0.1092  0.1871
  133OSM   H12F14443   1.346   2.107   7.785  0.2400  1.4410 -0.9816
  133OSM   H12G14444   1.180   2.082   7.840 -2.2394  0.8596 -0.6149
  133OSM   C13F14445   1.262   2.282   7.878 -0.5123  1.1873  0.1701
  133OSM   H13F14446   1.170   2.341   7.897 -0.4037  1.2289  0.5754
  133OSM   H13G14447   1.337   2.344   7.825  0.9319 -0.3027  0.3650
  133OSM   C14F14448   1.330   2.222   8.004 -0.1545 -0.5603 -0.0513
  133OSM   H14F14449   1.377   2.306   8.060 -1.1176 -0.6946  0.9940
  133OSM   H14G14450   1.408   2.144   7.991  3.1702  1.5570  4.4286
  133OSM   C15F14451   1.223   2.166   8.098 -0.0777  0.2206 -0.3607
  133OSM   H15F14452   1.165   2.096   8.033  0.8221 -1.4623  0.5696
  133OSM   H15G14453   1.157   2.249   8.130  0.4518  1.1367 -1.5665
  133OSM   C16F14454   1.281   2.080   8.221  0.0556 -0.4154  0.0758
  133OSM   H16F14455   1.351   2.136   8.287 -2.2475  1.7118  0.8780
  133OSM   H16G14456   1.341   1.998   8.176  2.3213 -0.1770  2.3738
  133OSM   C17F14457   1.163   2.039   8.314  0.1519  0.4856  0.2342
  133OSM   H17F14458   1.096   1.973   8.256  0.8091 -2.1680  2.3071
  133OSM   H17G14459   1.100   2.127   8.339 -0.3607 -0.4194  2.2856
  133OSM   C18F14460   1.214   1.963   8.430 -0.6831  0.0464 -0.2042
  133OSM   H18F14461   1.133   1.930   8.499  1.1158 -1.4435  1.3055
  133OSM   H18G14462   1.282   2.021   8.495 -1.3490 -0.3054  0.8360
  133OSM   H18H14463   1.278   1.879   8.396  1.5684  1.8286 -0.6044
  134OSM      N14464   2.203   4.366   6.287  0.0123 -0.5376 -0.3539
  134OSM    C1514465   2.215   4.472   6.181 -0.1542 -0.3918  0.3807
  134OSM   H15A14466   2.241   4.435   6.083  2.7776  1.1745  0.4540
  134OSM   H15B14467   2.281   4.552   6.211 -0.1973 -0.5895  1.0214
  134OSM   H15C14468   2.119   4.516   6.157  0.8786  1.6747 -0.1837
  134OSM    C1414469   2.099   4.266   6.242 -0.0350 -0.5982  0.0940
  134OSM   H14A14470   2.002   4.312   6.236 -0.3615 -1.4195 -1.3516
  134OSM   H14B14471   2.090   4.184   6.311 -2.7868 -0.5190 -0.0729
  134OSM   H14C14472   2.131   4.236   6.143 -0.9839  0.9471 -0.7233
  134OSM    C1314473   2.335   4.305   6.310  0.2548  1.0489  0.7021
  134OSM   H13A14474   2.413   4.372   6.344  0.1266  1.6279 -0.1082
  134OSM   H13B14475   2.372   4.255   6.222 -2.5614 -0.8940  0.5048
  134OSM   H13C14476   2.324   4.231   6.388 -2.8953 -0.4393 -0.9613
  134OSM    C1214477   2.161   4.438   6.408 -0.1792 -0.0456  0.2831
  134OSM   H12A14478   2.076   4.504   6.401  1.8513  2.7456 -0.0213
  134OSM   H12B14479   2.234   4.516   6.427 -2.2277  1.7571  1.0940
  134OSM    C1114480   2.140   4.375   6.545  0.1596  0.0456 -0.0727
  134OSM   H11A14481   2.141   4.457   6.620 -2.3115  0.0834  0.0133
  134OSM   H11B14482   2.228   4.317   6.579 -0.7333 -0.6594  1.1751
  134OSM      P14483   1.884   4.330   6.566  0.2906  0.2288 -0.0896
  134OSM    O1314484   1.884   4.431   6.671  0.5137 -0.2785  0.3207
  134OSM    O1414485   1.836   4.373   6.432  0.5749  0.0964 -0.1250
  134OSM    O1114486   1.797   4.203   6.612  0.2288  0.3902  0.0941
  134OSM    O1214487   2.032   4.282   6.560  0.1432  0.0933 -0.1849
  134OSM    C1S14488   1.826   4.136   6.731 -0.2166  0.2364 -0.1530
  134OSM    H1S14489   1.815   4.201   6.820  0.7303 -1.4713  1.2507
  134OSM    H1T14490   1.935   4.115   6.729 -0.2495 -0.0743  0.9881
  134OSM     NF14491   1.788   3.937   6.868 -0.0273 -0.7667 -0.3377
  134OSM    HNF14492   1.853   3.862   6.868 -0.3825 -1.2327  2.7668
  134OSM    C2S14493   1.747   4.003   6.739 -0.5552 -0.3713  0.1952
  134OSM    H2S14494   1.638   4.020   6.751 -0.4967 -1.6490  4.0436
  134OSM    C3S14495   1.765   3.912   6.612  0.3564  0.1038 -0.0996
  134OSM    H3S14496   1.873   3.887   6.598  0.2676  0.4597 -1.6245
  134OSM     O314497   1.732   3.967   6.488  0.2099  0.4875 -0.1780
  134OSM    HO314498   1.729   4.062   6.498 -0.9501  0.4627 -0.2259
  134OSM    C4S14499   1.698   3.778   6.634 -0.1663  0.2709 -0.0359
  134OSM    H4S14500   1.768   3.693   6.637  0.9976  1.2293  1.0390
  134OSM    C5S14501   1.564   3.741   6.634 -0.4013  0.1632 -0.6337
  134OSM    H5S14502   1.480   3.812   6.623 -2.1735 -1.9307 -1.3709
  134OSM    C6S14503   1.527   3.601   6.656 -0.6898  0.3125  0.8683
  134OSM    H6S14504   1.561   3.553   6.561  1.5686 -0.4248  1.9911
  134OSM    H6T14505   1.416   3.591   6.655 -0.6923  0.2311 -0.6685
  134OSM    C7S14506   1.592   3.523   6.767 -0.5448 -0.3883  0.5016
  134OSM    H7S14507   1.701   3.501   6.760 -0.9805 -2.6345 -0.2854
  134OSM    H7T14508   1.552   3.419   6.756  0.0668 -0.4313 -1.8221
  134OSM    C8S14509   1.572   3.596   6.898  0.0494  0.8569 -0.3295
  134OSM    H8S14510   1.462   3.614   6.894  0.2937  2.2690 -1.3331
  134OSM    H8T14511   1.625   3.693   6.898  0.6910  0.5465 -2.2708
  134OSM    C9S14512   1.605   3.514   7.020 -0.4907 -0.4253  0.1304
  134OSM    H9S14513   1.572   3.408   7.013 -1.3364 -0.4527  3.2143
  134OSM    H9T14514   1.557   3.547   7.114 -0.5547  0.0782 -0.0786
  134OSM   C10S14515   1.751   3.505   7.046 -0.1787  0.9636  0.0220
  134OSM   H10S14516   1.805   3.574   6.978 -0.6054 -0.3499 -1.7385
  134OSM   H10T14517   1.796   3.405   7.028 -0.2467  0.4826  2.2337
  134OSM   C11S14518   1.796   3.548   7.183 -0.9448 -0.5850 -0.6953
  134OSM   H11S14519   1.748   3.648   7.197  0.6726  0.2247 -0.7312
  134OSM   H11T14520   1.906   3.563   7.179 -0.7409 -1.5605  0.5808
  134OSM   C12S14521   1.782   3.444   7.297 -0.0176  0.0710  0.2005
  134OSM   H12S14522   1.858   3.365   7.279 -0.8873 -0.5687 -0.7353
  134OSM   H12T14523   1.684   3.392   7.300  1.0378 -1.9706  0.9020
  134OSM   C13S14524   1.820   3.510   7.433 -0.0666  0.4002 -0.3518
  134OSM   H13S14525   1.748   3.587   7.468 -2.1894 -1.9472  0.7435
  134OSM   H13T14526   1.921   3.553   7.418  1.0531 -2.0156 -0.1146
  134OSM   C14S14527   1.835   3.404   7.538 -0.3224  0.3764 -0.0852
  134OSM   H14S14528   1.921   3.337   7.515  0.8273  2.1748 -1.3258
  134OSM   H14T14529   1.743   3.347   7.561  0.0573 -0.3547 -0.3231
  134OSM   C15S14530   1.889   3.473   7.666 -0.1745 -0.3022  0.1789
  134OSM   H15S14531   1.827   3.561   7.691  0.1367 -0.0017 -0.1061
  134OSM   H15T14532   1.994   3.504   7.645  0.3886 -1.9899  0.3293
  134OSM   C16S14533   1.893   3.388   7.794 -0.1751  0.2098  0.5462
  134OSM   H16S14534   1.978   3.317   7.803 -0.1237  0.3956  1.6832
  134OSM   H16T14535   1.792   3.344   7.803 -1.0613  1.7807 -0.9935
  134OSM   C17S14536   1.916   3.480   7.916  0.1627 -0.4194  0.0753
  134OSM   H17S14537   1.830   3.551   7.917  2.0976  2.0481  0.6801
  134OSM   H17T14538   2.000   3.552   7.902  0.0831 -0.3015  0.1892
  134OSM   C18S14539   1.918   3.406   8.050  0.6092  0.5140 -0.1002
  134OSM   H18S14540   2.000   3.332   8.046 -0.8853 -1.1328 -3.1050
  134OSM   H18T14541   1.827   3.343   8.053  1.6149 -1.1076 -1.8305
  134OSM   H18U14542   1.944   3.481   8.129  2.8150 -0.0959 -0.1926
  134OSM    C1F14543   1.749   3.991   6.989  0.2460 -0.2371  0.1593
  134OSM     OF14544   1.668   4.086   6.994 -0.7716  0.5729  0.4558
  134OSM    C2F14545   1.807   3.935   7.109  0.0034  0.1105  0.3348
  134OSM    H2F14546   1.904   3.985   7.126 -1.1453  1.9141  2.1137
  134OSM    H2G14547   1.812   3.824   7.104 -0.2842  0.1547 -1.7094
  134OSM    C3F14548   1.719   3.970   7.231 -0.4086 -0.2274  0.1775
  134OSM    H3F14549   1.613   3.940   7.214 -0.3007  0.7025 -2.7608
  134OSM    H3G14550   1.727   4.080   7.232  1.1673 -0.3084 -0.3943
  134OSM    C4F14551   1.776   3.925   7.360 -0.2431 -0.2843 -0.6273
  134OSM    H4F14552   1.884   3.953   7.366  0.4832 -2.9292 -0.4814
  134OSM    H4G14553   1.773   3.815   7.370 -0.1213 -0.1915  0.5003
  134OSM    C5F14554   1.700   3.988   7.471 -0.1691  0.4714  0.3638
  134OSM    H5F14555   1.602   3.934   7.476 -0.3794  0.9087  1.3184
  134OSM    H5G14556   1.671   4.095   7.466  0.7265  0.7351  0.7230
  134OSM    C6F14557   1.774   3.963   7.606  0.9106  0.1589 -0.1844
  134OSM    H6F14558   1.863   4.025   7.630  2.1102 -1.5259 -0.1502
  134OSM    H6G14559   1.811   3.859   7.609  1.0740  0.2014 -0.6065
  134OSM    C7F14560   1.680   3.982   7.725  0.5793 -0.3196 -0.5240
  134OSM    H7F14561   1.588   3.921   7.710 -0.1980 -0.3002  3.1109
  134OSM    H7G14562   1.648   4.088   7.735  1.1270 -0.1824 -0.1741
  134OSM    C8F14563   1.732   3.916   7.852 -0.7194  0.2374 -0.3446
  134OSM    H8F14564   1.744   3.808   7.828  1.2040 -0.2029  2.1657
  134OSM    H8G14565   1.649   3.923   7.925 -1.9331  0.3821 -1.6893
  134OSM    C9F14566   1.863   3.965   7.910  0.0836 -0.2562  1.0106
  134OSM    H9F14567   1.924   4.029   7.844  1.1100  0.1451  2.3214
  134OSM   C10F14568   1.919   3.917   8.027  0.3231 -0.6642  0.4216
  134OSM   H10F14569   2.011   3.965   8.064  0.6210 -1.5818  0.8779
  134OSM   C11F14570   1.863   3.820   8.126  0.3417 -0.2635 -0.1296
  134OSM   H11F14571   1.926   3.729   8.126  0.7252 -0.0064 -0.9611
  134OSM   H11G14572   1.757   3.791   8.109  0.0969  0.3528  0.3124
  134OSM   C12F14573   1.868   3.892   8.260  0.1599 -0.2340  0.2353
  134OSM   H12F14574   1.807   3.984   8.247 -1.0201 -1.3429 -2.8940
  134OSM   H12G14575   1.971   3.913   8.296 -0.2623  1.1811  0.6766
  134OSM   C13F14576   1.793   3.813   8.377 -0.4485  0.1127 -0.0309
  134OSM   H13F14577   1.696   3.781   8.333  0.1287 -0.2829 -1.0671
  134OSM   H13G14578   1.764   3.877   8.462  0.0994 -1.4534  1.3827
  134OSM   C14F14579   1.872   3.693   8.426  0.5115  0.8080  0.1549
  134OSM   H14F14580   1.856   3.617   8.346 -0.5596  1.4788 -0.2815
  134OSM   H14G14581   1.816   3.655   8.515 -1.2481  4.3502  0.7092
  134OSM   C15F14582   2.016   3.708   8.474 -0.4350 -0.7110 -0.4534
  134OSM   H15F14583   2.009   3.792   8.546  2.4577 -1.1344  0.4748
  134OSM   H15G14584   2.083   3.752   8.398  0.3289 -1.0044  0.0331
  134OSM   C16F14585   2.068   3.590   8.552 -0.0653  0.3975 -0.2131
  134OSM   H16F14586   1.994   3.508   8.559 -1.0123  1.3269  0.9844
  134OSM   H16G14587   2.095   3.621   8.655  3.4201 -0.9654 -0.5736
  134OSM   C17F14588   2.193   3.525   8.483 -0.3686  0.2451 -0.7097
  134OSM   H17F14589   2.245   3.458   8.555 -1.0603 -1.4432 -1.7475
  134OSM   H17G14590   2.265   3.604   8.452  2.2908 -1.7888 -0.1356
  134OSM   C18F14591   2.153   3.449   8.357  0.1412 -0.1577 -0.0417
  134OSM   H18F14592   2.246   3.428   8.299 -0.3341  0.9071 -1.2511
  134OSM   H18G14593   2.090   3.504   8.283 -2.8650 -0.7283  1.9222
  134OSM   H18H14594   2.098   3.356   8.384  1.3218 -1.2517 -1.2805
  135OSM      N14595   1.364   3.980   6.074  0.9189 -0.1320 -0.0254
  135OSM    C1514596   1.472   4.081   6.045  0.4994  0.3885  0.3661
  135OSM   H15A14597   1.414   4.171   6.030  1.5755  1.2098  1.0299
  135OSM   H15B14598   1.536   4.055   5.962  1.7317 -2.0544  1.9624
  135OSM   H15C14599   1.529   4.089   6.136  0.7435  0.2137  0.2292
  135OSM    C1414600   1.267   3.985   5.964 -0.3289  0.6982 -0.1749
  135OSM   H14A14601   1.307   4.006   5.866  1.1433 -1.1266 -0.0075
  135OSM   H14B14602   1.198   4.067   5.979 -0.4071  0.3404  1.6095
  135OSM   H14C14603   1.211   3.894   5.946 -1.1938  0.7654  1.8935
  135OSM    C1314604   1.421   3.847   6.059  0.3320  0.6642 -0.2262
  135OSM   H13A14605   1.508   3.835   6.123  1.0763  3.2413 -0.6502
  135OSM   H13B14606   1.457   3.834   5.958 -0.3948 -1.7046 -0.2413
  135OSM   H13C14607   1.345   3.771   6.076 -0.0509  1.2367  0.7026
  135OSM    C1214608   1.298   3.999   6.211 -0.5326 -0.8270 -0.4236
  135OSM   H12A14609   1.217   3.929   6.228 -0.3933 -1.1587 -1.1187
  135OSM   H12B14610   1.246   4.093   6.214  1.2816  0.2024  0.4305
  135OSM    C1114611   1.386   3.994   6.333 -1.0361 -0.6499 -0.2670
  135OSM   H11A14612   1.463   3.915   6.337 -1.6435 -1.2050  0.8818
  135OSM   H11B14613   1.323   3.984   6.424 -0.7400  1.8350  0.3113
  135OSM      P14614   1.387   4.255   6.386 -0.2109 -0.2316 -0.2583
  135OSM    O1314615   1.482   4.366   6.366  0.2430  0.1913 -0.4998
  135OSM    O1414616   1.251   4.266   6.330 -0.3857 -0.4728  0.3482
  135OSM    O1114617   1.364   4.248   6.544  0.0246 -0.3904  0.0982
  135OSM    O1214618   1.461   4.126   6.331  0.1204  0.9064 -0.2880
  135OSM    C1S14619   1.478   4.233   6.630 -0.0886  0.4053  0.9730
  135OSM    H1S14620   1.551   4.315   6.615 -0.6521  1.1138  1.9852
  135OSM    H1T14621   1.527   4.133   6.623 -2.7120 -0.9346  0.1645
  135OSM     NF14622   1.530   4.283   6.863  0.6543 -0.4250 -0.1510
  135OSM    HNF14623   1.574   4.214   6.920  2.0621  0.2092 -0.4278
  135OSM    C2S14624   1.426   4.248   6.771  0.3616  0.4988 -1.2085
  135OSM    H2S14625   1.349   4.328   6.772 -2.2132 -1.7985  0.6342
  135OSM    C3S14626   1.344   4.117   6.816  0.3434 -0.1951 -0.2266
  135OSM    H3S14627   1.414   4.031   6.817  0.2896 -0.2532  1.4304
  135OSM     O314628   1.241   4.079   6.722 -0.2575 -0.2037  0.2058
  135OSM    HO314629   1.267   4.113   6.636 -1.5375  0.0933 -0.0834
  135OSM    C4S14630   1.286   4.143   6.949  0.5952 -0.2280 -0.2975
  135OSM    H4S14631   1.203   4.215   6.944 -0.7287 -1.7519 -2.4152
  135OSM    C5S14632   1.303   4.078   7.068 -0.2691 -0.3913  1.1069
  135OSM    H5S14633   1.382   4.001   7.066  0.3573  0.2416  1.0192
  135OSM    C6S14634   1.235   4.114   7.193  0.3582  0.5900  0.5122
  135OSM    H6S14635   1.165   4.037   7.232  1.9143 -1.7871 -1.1487
  135OSM    H6T14636   1.179   4.210   7.201 -2.0361 -0.7978  1.6425
  135OSM    C7S14637   1.337   4.129   7.305  0.6992  0.2010  0.7241
  135OSM    H7S14638   1.398   4.221   7.290  0.2502  0.3542 -0.2027
  135OSM    H7T14639   1.405   4.044   7.326 -0.5268 -0.4469  2.3044
  135OSM    C8S14640   1.260   4.168   7.432 -0.6210  0.4903  0.6416
  135OSM    H8S14641   1.179   4.095   7.453  0.3544 -0.8627 -0.1577
  135OSM    H8T14642   1.217   4.270   7.424 -0.9382  0.4596  1.8107
  135OSM    C9S14643   1.342   4.169   7.560 -0.8270  0.1243  1.1388
  135OSM    H9S14644   1.428   4.239   7.550 -0.4045 -0.6216 -0.9625
  135OSM    H9T14645   1.380   4.065   7.572 -2.5781 -0.5234  1.3555
  135OSM   C10S14646   1.265   4.211   7.685 -0.8602 -0.0168  0.3619
  135OSM   H10S14647   1.174   4.147   7.695 -1.9319  1.6054  1.3863
  135OSM   H10T14648   1.233   4.315   7.663 -0.4883 -0.6431 -4.0970
  135OSM   C11S14649   1.331   4.202   7.817  0.3646  0.0647 -0.4037
  135OSM   H11S14650   1.274   4.259   7.894 -0.6660  1.1598 -1.9049
  135OSM   H11T14651   1.431   4.251   7.818  0.1616  0.5512  1.8843
  135OSM   C12S14652   1.372   4.063   7.871 -0.0167 -0.3303 -0.7576
  135OSM   H12S14653   1.437   3.996   7.810  1.1117 -0.3611  0.4170
  135OSM   H12T14654   1.280   4.006   7.893 -0.8221  1.3087  0.3096
  135OSM   C13S14655   1.442   4.068   8.009 -0.7742 -0.6640  0.4897
  135OSM   H13S14656   1.531   4.135   8.008 -0.7583 -0.6710 -1.1821
  135OSM   H13T14657   1.471   3.963   8.031  1.5348  0.1705  1.7597
  135OSM   C14S14658   1.337   4.093   8.114  0.3476 -0.5057 -0.6218
  135OSM   H14S14659   1.243   4.040   8.086 -0.4839  0.2568  0.6676
  135OSM   H14T14660   1.312   4.201   8.115 -1.5484 -0.9073  1.1883
  135OSM   C15S14661   1.392   4.057   8.251  0.0520 -0.3030 -0.1775
  135OSM   H15S14662   1.343   4.134   8.315  0.7710 -0.0158  0.0318
  135OSM   H15T14663   1.498   4.087   8.255 -0.2150  0.9985 -1.7856
  135OSM   C16S14664   1.371   3.918   8.296 -0.3681  0.8965 -0.0579
  135OSM   H16S14665   1.438   3.852   8.237 -0.7662 -1.6770  2.2119
  135OSM   H16T14666   1.268   3.882   8.276 -0.3620  1.2118 -0.7089
  135OSM   C17S14667   1.413   3.895   8.446  0.3064 -0.0101 -0.2524
  135OSM   H17S14668   1.368   3.981   8.500  1.1383 -0.5179  1.3157
  135OSM   H17T14669   1.522   3.894   8.470  0.0138  0.5621  1.1783
  135OSM   C18S14670   1.354   3.765   8.512 -0.1185  0.4353 -0.7382
  135OSM   H18S14671   1.333   3.692   8.431  0.7054 -1.9135  1.0635
  135OSM   H18T14672   1.259   3.783   8.566 -1.1596  0.8002 -2.6171
  135OSM   H18U14673   1.427   3.719   8.582  0.5904  2.5616  0.0293
  135OSM    C1F14674   1.581   4.409   6.863 -0.3184 -0.1643  0.2905
  135OSM     OF14675   1.562   4.488   6.770 -0.6125 -0.0320 -0.5893
  135OSM    C2F14676   1.671   4.448   6.969  0.0492 -0.2569 -0.2294
  135OSM    H2F14677   1.702   4.554   6.960  1.7018 -0.5579  1.2661
  135OSM    H2G14678   1.768   4.396   6.952  0.2745 -0.1353  0.6477
  135OSM    C3F14679   1.620   4.408   7.109  0.0636  0.0551 -1.2776
  135OSM    H3F14680   1.627   4.298   7.123  0.1328  0.1920 -0.1399
  135OSM    H3G14681   1.514   4.441   7.122  0.2460  0.3707 -0.5451
  135OSM    C4F14682   1.700   4.465   7.231 -0.7989  0.0674 -0.2042
  135OSM    H4F14683   1.692   4.576   7.230  1.5581  0.2872 -0.4634
  135OSM    H4G14684   1.807   4.435   7.222 -0.3202  1.7088 -0.3309
  135OSM    C5F14685   1.648   4.412   7.366 -0.0118 -0.2421 -0.1126
  135OSM    H5F14686   1.645   4.301   7.371 -1.4598 -0.3285 -1.9002
  135OSM    H5G14687   1.543   4.442   7.384 -0.1898 -1.8050  1.8675
  135OSM    C6F14688   1.717   4.474   7.489 -1.1492 -0.0042  0.6478
  135OSM    H6F14689   1.737   4.583   7.492  2.6404 -0.3491 -2.7453
  135OSM    H6G14690   1.821   4.435   7.478 -1.7253 -1.2557 -0.6380
  135OSM    C7F14691   1.658   4.430   7.623 -0.5362  0.6180  0.0489
  135OSM    H7F14692   1.656   4.319   7.624 -0.2484  0.6117  1.2013
  135OSM    H7G14693   1.550   4.456   7.620 -1.4251 -2.6519 -1.2334
  135OSM    C8F14694   1.745   4.480   7.734 -0.0686 -0.1746 -0.4657
  135OSM    H8F14695   1.792   4.580   7.722  2.8810 -1.0445  2.3736
  135OSM    H8G14696   1.834   4.415   7.743  0.3761  0.6981  5.4428
  135OSM    C9F14697   1.677   4.475   7.867 -0.4897 -0.1597  0.6966
  135OSM    H9F14698   1.581   4.525   7.881 -0.1168  0.3989  1.3138
  135OSM   C10F14699   1.709   4.400   7.976  0.5380  0.1131  0.1185
  135OSM   H10F14700   1.656   4.411   8.071  2.7373  0.0330  1.4189
  135OSM   C11F14701   1.825   4.303   7.988 -0.6252 -0.5704 -0.2136
  135OSM   H11F14702   1.889   4.309   7.898 -0.2677  1.6814  0.1401
  135OSM   H11G14703   1.786   4.199   7.999 -1.5885 -0.4072 -1.8564
  135OSM   C12F14704   1.921   4.332   8.103  0.1817 -0.4877 -0.7031
  135OSM   H12F14705   1.974   4.430   8.094 -0.1285 -0.1717  0.6310
  135OSM   H12G14706   2.001   4.255   8.101  0.6951 -0.0212  0.5520
  135OSM   C13F14707   1.848   4.319   8.243  0.2603  0.1544  0.4777
  135OSM   H13F14708   1.804   4.217   8.238  0.5579  0.0600 -0.3355
  135OSM   H13G14709   1.764   4.389   8.263  0.9918  0.9451  0.8746
  135OSM   C14F14710   1.948   4.319   8.351  0.1691  0.1533 -0.2289
  135OSM   H14F14711   1.988   4.421   8.368 -1.0228  0.4005  1.4312
  135OSM   H14G14712   2.028   4.249   8.321  1.0727  0.8730  0.4463
  135OSM   C15F14713   1.879   4.271   8.482  0.1056  0.4380 -0.1417
  135OSM   H15F14714   1.966   4.254   8.550 -0.2665 -1.6937 -0.1355
  135OSM   H15G14715   1.824   4.176   8.464 -0.8904  0.3463  2.7953
  135OSM   C16F14716   1.778   4.371   8.543  0.2262 -0.0545 -0.9312
  135OSM   H16F14717   1.695   4.397   8.474 -1.8989  0.0682  1.5293
  135OSM   H16G14718   1.840   4.460   8.571  0.0215 -0.3985  0.6983
  135OSM   C17F14719   1.702   4.300   8.659 -0.0968 -0.2045 -0.2211
  135OSM   H17F14720   1.691   4.390   8.724 -0.3173 -0.3997  0.0161
  135OSM   H17G14721   1.764   4.219   8.705 -0.0072 -0.1980 -0.3307
  135OSM   C18F14722   1.560   4.253   8.619 -0.3795  0.1892 -0.1631
  135OSM   H18F14723   1.571   4.184   8.532 -0.0830 -0.3870  0.3218
  135OSM   H18G14724   1.494   4.338   8.594 -0.2447 -0.1460 -1.7491
  135OSM   H18H14725   1.510   4.209   8.708 -1.7805  3.5154  0.8718
  136OSM      N14726   5.740   5.867   6.065 -0.0851 -0.5747 -0.0140
  136OSM    C1514727   5.676   5.771   6.157  0.0033  0.1583 -0.0505
  136OSM   H15A14728   5.745   5.711   6.214  0.8956 -0.6565 -1.8903
  136OSM   H15B14729   5.607   5.710   6.100 -0.2797  0.7451 -0.3549
  136OSM   H15C14730   5.609   5.819   6.227  0.8229 -2.1210  2.4686
  136OSM    C1414731   5.807   5.799   5.958 -0.7893  0.5534  0.1141
  136OSM   H14A14732   5.841   5.853   5.871 -0.8106 -1.2375 -1.0545
  136OSM   H14B14733   5.751   5.713   5.925  0.3255 -0.6616  1.2816
  136OSM   H14C14734   5.904   5.760   5.987 -1.0522 -1.4966 -1.5741
  136OSM    C1314735   5.629   5.959   6.017  0.2384  0.0033 -0.3862
  136OSM   H13A14736   5.574   5.904   5.942  1.9439 -3.7811  0.8443
  136OSM   H13B14737   5.665   6.055   5.985 -1.4116  0.6543 -0.3742
  136OSM   H13C14738   5.555   5.983   6.091 -2.0133  2.5817 -3.2310
  136OSM    C1214739   5.844   5.955   6.138 -0.1605 -0.6512  0.0659
  136OSM   H12A14740   5.900   5.890   6.203  0.1136  0.0560  0.5476
  136OSM   H12B14741   5.790   6.011   6.214 -0.3502 -1.6780  0.7010
  136OSM    C1114742   5.919   6.060   6.059 -0.3782  1.0111 -0.0327
  136OSM   H11A14743   5.989   6.014   5.986  0.5625  1.0361  0.8315
  136OSM   H11B14744   5.985   6.104   6.137  0.0610 -1.0148  0.8109
  136OSM      P14745   5.798   6.287   6.086 -0.3560 -0.2817 -0.1163
  136OSM    O1314746   5.924   6.370   6.094  0.2088 -0.0881 -0.7385
  136OSM    O1414747   5.682   6.350   6.015  0.2775 -0.3076  0.0143
  136OSM    O1114748   5.766   6.239   6.236 -0.3050 -0.2327  0.4366
  136OSM    O1214749   5.833   6.161   6.004 -0.4155 -0.2061 -0.4530
  136OSM    C1S14750   5.632   6.234   6.288  0.6675  0.1811 -0.3084
  136OSM    H1S14751   5.594   6.133   6.260  1.8828 -0.2150 -0.5868
  136OSM    H1T14752   5.575   6.314   6.235  0.2034 -1.6121 -2.7016
  136OSM     NF14753   5.496   6.241   6.502 -0.2045  0.5877 -0.1819
  136OSM    HNF14754   5.423   6.307   6.517 -2.4322 -2.0571  1.4936
  136OSM    C2S14755   5.627   6.265   6.442  0.1786 -0.5413  0.5935
  136OSM    H2S14756   5.702   6.197   6.489  0.6000 -0.1181  0.5473
  136OSM    C3S14757   5.685   6.405   6.461 -0.7053 -0.0610 -0.1088
  136OSM    H3S14758   5.641   6.477   6.388  0.4250  0.4237 -0.3346
  136OSM     O314759   5.827   6.424   6.436  0.7741 -0.1836 -0.9151
  136OSM    HO314760   5.851   6.345   6.387  0.4379  0.0165 -1.4051
  136OSM    C4S14761   5.659   6.447   6.602  0.0268 -0.2794  0.7768
  136OSM    H4S14762   5.569   6.510   6.611 -0.4783 -1.0031  0.8220
  136OSM    C5S14763   5.731   6.417   6.714 -0.1703 -0.4733  0.4008
  136OSM    H5S14764   5.825   6.362   6.700 -0.3316 -0.3911 -1.2675
  136OSM    C6S14765   5.702   6.458   6.859 -0.1328  0.3094 -0.4547
  136OSM    H6S14766   5.795   6.493   6.910  0.7487 -3.5420  0.9091
  136OSM    H6T14767   5.656   6.372   6.912 -0.6643  0.3448 -0.8590
  136OSM    C7S14768   5.583   6.560   6.865  0.2520  1.5126 -0.2977
  136OSM    H7S14769   5.488   6.513   6.831 -0.3505  1.5067  1.3112
  136OSM    H7T14770   5.600   6.638   6.788 -1.5353 -0.2334 -2.5987
  136OSM    C8S14771   5.561   6.605   7.002 -0.6526 -0.0425  0.0700
  136OSM    H8S14772   5.632   6.680   7.043 -0.6025 -0.8899  1.6123
  136OSM    H8T14773   5.574   6.526   7.080 -0.3350  2.5192  2.7665
  136OSM    C9S14774   5.416   6.667   7.021 -0.4857  0.0782  0.0673
  136OSM    H9S14775   5.338   6.608   6.968  2.3265 -3.0632 -0.9812
  136OSM    H9T14776   5.431   6.763   6.967 -2.0502  1.1118  1.4092
  136OSM   C10S14777   5.377   6.698   7.161  0.4925 -0.4908 -0.3258
  136OSM   H10S14778   5.275   6.741   7.151 -0.0915 -1.8421 -0.2979
  136OSM   H10T14779   5.439   6.783   7.196 -1.5166  0.5069  1.0255
  136OSM   C11S14780   5.361   6.575   7.257  0.9952 -0.0422  0.2414
  136OSM   H11S14781   5.447   6.505   7.256  1.4360  0.4983 -0.1845
  136OSM   H11T14782   5.278   6.513   7.216  1.3014 -1.1424  1.2327
  136OSM   C12S14783   5.341   6.606   7.404 -0.0003  0.1906 -0.2001
  136OSM   H12S14784   5.308   6.710   7.425  0.9590 -0.0054  2.6589
  136OSM   H12T14785   5.444   6.611   7.446 -0.6838  2.7812  1.4040
  136OSM   C13S14786   5.257   6.503   7.476 -0.0816  0.2522  0.0926
  136OSM   H13S14787   5.264   6.399   7.437 -0.7206  0.7839 -1.5600
  136OSM   H13T14788   5.150   6.530   7.460 -0.2094 -0.1509  0.2677
  136OSM   C14S14789   5.288   6.491   7.624  0.3840  0.5468  0.0128
  136OSM   H14S14790   5.245   6.582   7.673 -3.1858 -1.4632  1.0157
  136OSM   H14T14791   5.396   6.483   7.649  0.5162  1.0984 -0.3740
  136OSM   C15S14792   5.203   6.374   7.686  0.1168 -0.3669 -0.3765
  136OSM   H15S14793   5.208   6.280   7.626 -0.5399  0.5109 -1.8452
  136OSM   H15T14794   5.095   6.398   7.689  0.3959  0.8210  1.0384
  136OSM   C16S14795   5.253   6.336   7.827  0.3081 -0.0356 -0.0106
  136OSM   H16S14796   5.358   6.301   7.819  0.6280  0.6965  0.8517
  136OSM   H16T14797   5.188   6.250   7.853 -0.3141  1.1694  2.7936
  136OSM   C17S14798   5.232   6.428   7.950 -0.3601 -0.6498  0.8114
  136OSM   H17S14799   5.123   6.446   7.959 -0.8753 -2.6701 -0.6961
  136OSM   H17T14800   5.277   6.528   7.929 -2.3332 -0.1014 -1.2925
  136OSM   C18S14801   5.293   6.367   8.079  0.3701  0.3611 -0.0388
  136OSM   H18S14802   5.401   6.349   8.059  0.2646  1.0878 -1.3631
  136OSM   H18T14803   5.240   6.273   8.101  1.2573 -0.4818 -1.3448
  136OSM   H18U14804   5.288   6.434   8.168 -2.2042 -0.0541  0.2016
  136OSM    C1F14805   5.441   6.120   6.505  0.2752  0.1918 -0.2006
  136OSM     OF14806   5.494   6.022   6.451 -0.1110 -0.6252  0.4407
  136OSM    C2F14807   5.301   6.101   6.558 -0.3217 -0.3898 -0.0774
  136OSM    H2F14808   5.282   5.993   6.574  0.1833 -0.9347 -2.6163
  136OSM    H2G14809   5.233   6.148   6.484 -1.4368 -0.9580  0.5601
  136OSM    C3F14810   5.272   6.186   6.687  0.1945  0.2382  0.9454
  136OSM    H3F14811   5.178   6.138   6.721  0.3636 -1.1626 -0.4494
  136OSM    H3G14812   5.255   6.293   6.663  1.3102  0.2315 -0.0369
  136OSM    C4F14813   5.374   6.183   6.812  0.5816  0.3010 -0.0125
  136OSM    H4F14814   5.459   6.252   6.795 -0.4677  1.7413  0.4161
  136OSM    H4G14815   5.436   6.091   6.824  2.2059  1.3191 -0.2633
  136OSM    C5F14816   5.308   6.207   6.948  0.0018  0.2483  0.6270
  136OSM    H5F14817   5.227   6.131   6.962  0.0554 -0.3282 -1.6755
  136OSM    H5G14818   5.264   6.308   6.953 -2.6539 -0.6939 -1.3035
  136OSM    C6F14819   5.415   6.175   7.051 -0.1026  0.1844  0.1415
  136OSM    H6F14820   5.492   6.252   7.026 -1.1175  0.7834 -1.2862
  136OSM    H6G14821   5.464   6.077   7.033  0.0860  0.4956 -1.1789
  136OSM    C7F14822   5.358   6.177   7.198 -0.4028 -0.2823  0.5332
  136OSM    H7F14823   5.278   6.100   7.194  2.0397 -3.0778  1.8976
  136OSM    H7G14824   5.315   6.278   7.214 -0.4860 -0.2533  0.1391
  136OSM    C8F14825   5.466   6.147   7.299 -0.2053 -0.3977 -0.3006
  136OSM    H8F14826   5.526   6.061   7.262  0.3544 -0.4185  0.6059
  136OSM    H8G14827   5.413   6.115   7.391  1.9008 -1.5628  0.5970
  136OSM    C9F14828   5.559   6.260   7.315  0.2620  0.1622  0.4252
  136OSM    H9F14829   5.592   6.300   7.218 -2.2212 -1.7591 -1.3356
  136OSM   C10F14830   5.604   6.317   7.431  0.3665  0.8018  0.5991
  136OSM   H10F14831   5.671   6.402   7.413  0.8036 -0.1312 -3.0734
  136OSM   C11F14832   5.565   6.280   7.570  0.7390  0.2082  0.0480
  136OSM   H11F14833   5.456   6.264   7.588  0.6245 -0.0845 -0.8591
  136OSM   H11G14834   5.578   6.365   7.641 -1.6583  0.0511  0.7865
  136OSM   C12F14835   5.631   6.152   7.630  0.5078  0.5496 -0.8549
  136OSM   H12F14836   5.709   6.112   7.561  1.0509  0.2064 -0.0508
  136OSM   H12G14837   5.557   6.074   7.657  1.1930  0.0703 -0.3154
  136OSM   C13F14838   5.702   6.190   7.765  0.1005 -0.7198 -1.0570
  136OSM   H13F14839   5.635   6.261   7.817 -0.6355 -2.6133  0.7245
  136OSM   H13G14840   5.793   6.243   7.731  0.1047  1.3120  1.8008
  136OSM   C14F14841   5.746   6.075   7.853 -0.0340  0.3438  0.6132
  136OSM   H14F14842   5.800   6.007   7.785  0.9520  1.6758  0.0253
  136OSM   H14G14843   5.670   6.010   7.901 -0.8194  1.5442  1.0551
  136OSM   C15F14844   5.839   6.118   7.968  0.3329 -0.2203 -0.5682
  136OSM   H15F14845   5.899   6.201   7.924 -0.4449  1.0890  0.7368
  136OSM   H15G14846   5.909   6.035   7.991  1.1838  0.8892  1.0506
  136OSM   C16F14847   5.754   6.168   8.091 -0.0749 -0.6060  0.5519
  136OSM   H16F14848   5.698   6.092   8.149 -1.9059 -0.0949 -0.4834
  136OSM   H16G14849   5.666   6.220   8.048  0.6910 -1.0463 -1.7361
  136OSM   C17F14850   5.838   6.263   8.179 -0.5506  0.6403 -0.0429
  136OSM   H17F14851   5.945   6.234   8.171 -1.3375 -2.6372 -0.1616
  136OSM   H17G14852   5.802   6.238   8.281  0.1977 -1.1273 -0.1721
  136OSM   C18F14853   5.827   6.413   8.158  0.7681 -0.3281  0.6385
  136OSM   H18F14854   5.855   6.439   8.053  0.2520 -1.4506  0.2032
  136OSM   H18G14855   5.886   6.483   8.220  0.9601  1.2079 -1.1792
  136OSM   H18H14856   5.721   6.444   8.168  0.1361 -1.7320 -1.0925
  137OSM      N14857   2.358   3.685   6.643  0.5548  0.3540 -0.2693
  137OSM    C1514858   2.371   3.767   6.762  0.5125 -0.4991 -0.1428
  137OSM   H15A14859   2.446   3.733   6.832  0.0153 -2.2542 -0.4025
  137OSM   H15B14860   2.275   3.773   6.812 -0.9073 -2.4395 -2.3782
  137OSM   H15C14861   2.390   3.869   6.732 -0.5534 -0.8595 -2.2361
  137OSM    C1414862   2.240   3.732   6.557 -0.5877  0.0280 -0.0528
  137OSM   H14A14863   2.145   3.745   6.607 -1.3662 -0.3909 -1.3660
  137OSM   H14B14864   2.243   3.665   6.472 -2.0566 -1.2942  0.8876
  137OSM   H14C14865   2.260   3.829   6.514  1.6210 -0.4871 -0.3136
  137OSM    C1314866   2.485   3.686   6.560 -0.2079 -0.6469  0.1863
  137OSM   H13A14867   2.460   3.616   6.482  0.1396  0.0616 -0.5750
  137OSM   H13B14868   2.574   3.655   6.613 -0.8799 -0.0976  1.6834
  137OSM   H13C14869   2.502   3.781   6.511 -1.6245 -0.3742  0.1741
  137OSM    C1214870   2.333   3.546   6.693 -0.1509 -0.2062 -0.2882
  137OSM   H12A14871   2.239   3.535   6.746  0.6611 -1.3345  1.0081
  137OSM   H12B14872   2.414   3.517   6.759  0.5764  1.8843 -0.1905
  137OSM    C1114873   2.330   3.433   6.583 -0.4938 -0.1427 -0.0715
  137OSM   H11A14874   2.248   3.464   6.515  0.2788  4.7743  0.8492
  137OSM   H11B14875   2.296   3.340   6.634 -1.2141 -0.4577 -1.0853
  137OSM      P14876   2.530   3.284   6.498  0.0766 -0.0165  0.4429
  137OSM    O1314877   2.445   3.183   6.436 -0.2222 -0.6659  0.1325
  137OSM    O1414878   2.658   3.314   6.432  0.1008  0.7044 -0.3462
  137OSM    O1114879   2.549   3.244   6.647  0.1710 -0.2280 -0.1155
  137OSM    O1214880   2.453   3.414   6.510 -0.3133 -0.3934  0.1487
  137OSM    C1S14881   2.636   3.319   6.730 -0.2456 -0.0269 -0.2598
  137OSM    H1S14882   2.623   3.427   6.710  2.6152  0.2962 -0.7053
  137OSM    H1T14883   2.744   3.299   6.711 -0.0589 -1.7014  2.1822
  137OSM     NF14884   2.677   3.371   6.968 -0.5447 -0.1015  0.0460
  137OSM    HNF14885   2.744   3.326   7.027 -2.2112 -0.1800  1.9786
  137OSM    C2S14886   2.607   3.287   6.880  0.5822 -0.3194  0.1851
  137OSM    H2S14887   2.496   3.297   6.890  0.6605  0.5328  0.2931
  137OSM    C3S14888   2.635   3.133   6.913 -0.0419 -0.0830  0.8620
  137OSM    H3S14889   2.745   3.122   6.925  0.1543 -0.7091 -1.1191
  137OSM     O314890   2.609   3.041   6.804 -0.1298  0.3514 -1.0579
  137OSM    HO314891   2.588   3.099   6.731 -1.0765  0.1556 -0.9521
  137OSM    C4S14892   2.581   3.087   7.043 -0.5108  0.5703  0.1513
  137OSM    H4S14893   2.645   3.106   7.130 -1.9978  0.6930  1.2650
  137OSM    C5S14894   2.456   3.042   7.056 -0.0588 -0.0537 -1.0410
  137OSM    H5S14895   2.396   3.023   6.966 -0.8402  0.4266 -0.6299
  137OSM    C6S14896   2.399   3.005   7.192 -0.0450  0.5260  0.0589
  137OSM    H6S14897   2.365   2.899   7.197 -2.6246  1.2963  0.0847
  137OSM    H6T14898   2.308   3.057   7.226 -0.5399 -0.3277  0.0824
  137OSM    C7S14899   2.502   3.033   7.307  0.5232 -0.0742 -0.7452
  137OSM    H7S14900   2.519   3.141   7.324  0.4074  0.0021 -1.0888
  137OSM    H7T14901   2.598   2.985   7.275 -0.1166 -0.8222 -1.6116
  137OSM    C8S14902   2.449   2.965   7.435  0.4329 -0.0723 -0.2074
  137OSM    H8S14903   2.447   2.856   7.416  1.5432 -0.4340  1.4954
  137OSM    H8T14904   2.349   3.007   7.460 -0.8416 -1.5824 -2.3767
  137OSM    C9S14905   2.533   2.981   7.565  0.0360 -0.4034  0.0083
  137OSM    H9S14906   2.537   3.091   7.584  0.8103 -0.0134 -2.1816
  137OSM    H9T14907   2.629   2.936   7.532 -0.6164 -2.8952  1.2758
  137OSM   C10S14908   2.480   2.914   7.697  0.1184  0.4030 -0.4888
  137OSM   H10S14909   2.448   2.809   7.677  0.3803 -0.2747  2.2731
  137OSM   H10T14910   2.383   2.963   7.720  0.2843 -0.0963  1.4367
  137OSM   C11S14911   2.576   2.934   7.824  0.3643 -0.1389 -0.1942
  137OSM   H11S14912   2.634   3.028   7.813  1.3479 -0.8629 -1.3275
  137OSM   H11T14913   2.653   2.853   7.827  0.6048  0.0076 -1.7060
  137OSM   C12S14914   2.497   2.935   7.956  0.2443  0.7044 -0.2047
  137OSM   H12S14915   2.415   2.860   7.949 -0.0697  1.0673 -0.4862
  137OSM   H12T14916   2.458   3.038   7.968 -0.0294  0.5608  0.1406
  137OSM   C13S14917   2.586   2.903   8.080 -0.1503 -0.5747 -0.4452
  137OSM   H13S14918   2.655   2.990   8.080 -1.2040  0.2948 -0.3484
  137OSM   H13T14919   2.650   2.812   8.078  0.6761  0.0156 -1.3092
  137OSM   C14S14920   2.507   2.905   8.216  0.3599  0.1406  0.7322
  137OSM   H14S14921   2.417   2.842   8.198  1.1312 -0.3775 -1.6893
  137OSM   H14T14922   2.471   3.007   8.242 -2.3810 -1.0778  2.0936
  137OSM   C15S14923   2.575   2.850   8.340  0.1504 -0.4725  0.1570
  137OSM   H15S14924   2.653   2.923   8.370 -0.4410  1.0601 -1.8383
  137OSM   H15T14925   2.615   2.749   8.318 -1.9072 -1.8284  2.1798
  137OSM   C16S14926   2.485   2.824   8.457  0.2865  0.1169 -0.3475
  137OSM   H16S14927   2.389   2.779   8.423 -0.5804  0.0505  1.9735
  137OSM   H16T14928   2.470   2.923   8.505  0.9419 -0.5703  1.3498
  137OSM   C17S14929   2.528   2.728   8.573 -0.1521 -1.2665  0.1922
  137OSM   H17S14930   2.550   2.630   8.525 -1.9304 -1.3590 -0.5096
  137OSM   H17T14931   2.438   2.730   8.638 -0.2908  1.2127  0.0371
  137OSM   C18S14932   2.648   2.777   8.657  0.2444 -0.3320 -0.4529
  137OSM   H18S14933   2.631   2.858   8.732  3.0824 -0.2986  0.2666
  137OSM   H18T14934   2.730   2.809   8.589  0.3187 -0.8327 -0.5991
  137OSM   H18U14935   2.688   2.695   8.720  1.3625  0.2907 -0.3270
  137OSM    C1F14936   2.630   3.500   6.979 -0.9174  0.0444 -0.1079
  137OSM     OF14937   2.539   3.533   6.903  0.4581  0.2411  0.0026
  137OSM    C2F14938   2.705   3.582   7.078 -0.0588  0.6593  0.6585
  137OSM    H2F14939   2.717   3.676   7.021 -0.9320 -0.9306 -2.3478
  137OSM    H2G14940   2.805   3.539   7.102  1.0810  2.4925 -0.5893
  137OSM    C3F14941   2.628   3.602   7.206  0.1703 -0.0733  1.0302
  137OSM    H3F14942   2.637   3.510   7.269 -2.7064 -1.1064  0.0731
  137OSM    H3G14943   2.520   3.590   7.183 -0.2270  1.4901  1.9254
  137OSM    C4F14944   2.669   3.730   7.285 -0.0133 -0.4245 -0.2754
  137OSM    H4F14945   2.597   3.728   7.369 -1.3080 -0.8289 -1.3438
  137OSM    H4G14946   2.666   3.824   7.226  0.8365 -0.8200 -0.9720
  137OSM    C5F14947   2.806   3.715   7.353 -0.0996  0.9206  1.3920
  137OSM    H5F14948   2.875   3.739   7.269  1.1952 -0.2783  2.0643
  137OSM    H5G14949   2.813   3.604   7.366 -1.8005  0.7450  0.9772
  137OSM    C6F14950   2.843   3.785   7.478  0.3507  0.4052  0.3623
  137OSM    H6F14951   2.826   3.895   7.468 -1.0024  0.1893  0.1572
  137OSM    H6G14952   2.947   3.763   7.511 -0.0096  0.0631  1.2944
  137OSM    C7F14953   2.737   3.736   7.589  0.4696  0.5664 -0.1567
  137OSM    H7F14954   2.722   3.626   7.596  1.4031  0.4874  0.6251
  137OSM    H7G14955   2.637   3.778   7.561 -0.0322 -0.4770  0.0424
  137OSM    C8F14956   2.755   3.801   7.730 -0.3209 -0.4202  0.3994
  137OSM    H8F14957   2.681   3.758   7.802 -0.7848 -0.8664 -0.3288
  137OSM    H8G14958   2.743   3.911   7.716 -0.6282 -0.6689 -1.5871
  137OSM    C9F14959   2.895   3.781   7.786 -0.2028 -0.4895 -0.3161
  137OSM    H9F14960   2.949   3.695   7.743  1.8829  1.2981 -1.4706
  137OSM   C10F14961   2.968   3.864   7.862  0.4544  0.0793 -0.6741
  137OSM   H10F14962   3.066   3.828   7.897 -0.6640 -0.8487  1.7279
  137OSM   C11F14963   2.922   3.997   7.917  0.3567 -0.1113  0.0667
  137OSM   H11F14964   2.866   4.047   7.835 -0.2407 -2.3681 -0.9873
  137OSM   H11G14965   3.011   4.059   7.941  0.7675 -0.1424 -1.3206
  137OSM   C12F14966   2.827   3.988   8.037  0.5226 -0.6241  0.2645
  137OSM   H12F14967   2.775   3.891   8.018  1.1173 -0.9658  0.3570
  137OSM   H12G14968   2.765   4.078   8.055  2.0407  0.2661  1.1980
  137OSM   C13F14969   2.898   3.949   8.164 -0.6065  0.4962 -0.5185
  137OSM   H13F14970   2.969   4.032   8.185 -0.8545  1.6780 -3.8385
  137OSM   H13G14971   2.940   3.846   8.152 -1.5502  0.2704 -2.1816
  137OSM   C14F14972   2.791   3.936   8.282 -0.3964 -0.4089 -0.6641
  137OSM   H14F14973   2.725   4.026   8.280 -0.6895 -0.5262  1.3626
  137OSM   H14G14974   2.846   3.954   8.377 -0.7635  0.5726 -0.6220
  137OSM   C15F14975   2.719   3.802   8.288 -0.3122 -0.3999  0.3596
  137OSM   H15F14976   2.796   3.726   8.308 -0.0019 -0.7546 -1.8959
  137OSM   H15G14977   2.675   3.785   8.187 -2.6625  2.2456  0.7896
  137OSM   C16F14978   2.617   3.784   8.396 -0.1713  0.1514  0.7543
  137OSM   H16F14979   2.540   3.865   8.391 -1.5835 -1.1931 -0.2237
  137OSM   H16G14980   2.662   3.790   8.497  0.8039  0.5803  0.3076
  137OSM   C17F14981   2.561   3.646   8.379  0.4754  0.3080 -0.2061
  137OSM   H17F14982   2.498   3.635   8.470 -0.7786  1.4340 -0.9041
  137OSM   H17G14983   2.633   3.562   8.367 -1.1387 -1.2623  0.7202
  137OSM   C18F14984   2.467   3.620   8.265  0.4090  0.1674 -0.2621
  137OSM   H18F14985   2.513   3.629   8.164  1.1061  1.3577  0.1406
  137OSM   H18G14986   2.379   3.687   8.276  0.3938  0.0214  0.5592
  137OSM   H18H14987   2.434   3.514   8.265 -1.3183  0.6561  0.5257
  138OSM      N14988   3.150   5.577   6.235  1.2397 -0.5791  0.0392
  138OSM    C1514989   3.261   5.477   6.217 -0.5351  0.3192  0.1012
  138OSM   H15A14990   3.352   5.495   6.273  0.0795 -1.0142 -0.4306
  138OSM   H15B14991   3.282   5.474   6.112 -1.1092 -1.0770  0.0058
  138OSM   H15C14992   3.227   5.378   6.241  0.1166 -0.0079 -0.2950
  138OSM    C1414993   3.024   5.528   6.169 -0.1008  0.0415 -0.4487
  138OSM   H14A14994   2.949   5.603   6.149  0.3951  0.4674 -0.7142
  138OSM   H14B14995   2.983   5.456   6.238  1.5452  2.1524  2.9634
  138OSM   H14C14996   3.053   5.482   6.075 -1.0634 -2.2088  0.2879
  138OSM    C1314997   3.115   5.594   6.379  0.2531  1.2238  0.1608
  138OSM   H13A14998   3.107   5.496   6.424 -1.2453 -0.0228 -2.5984
  138OSM   H13B14999   3.026   5.654   6.388 -0.5490  0.3741 -1.5687
  138OSM   H13C15000   3.198   5.638   6.433  0.5128  0.1492  0.6652
  138OSM    C1215001   3.209   5.706   6.175 -0.3845 -0.4797 -0.3552
  138OSM   H12A15002   3.222   5.696   6.068  0.7228  1.7455 -0.4784
  138OSM   H12B15003   3.310   5.707   6.213 -0.4671 -0.4113 -0.1371
  138OSM    C1115004   3.132   5.840   6.186  0.1604  0.0358  0.4454
  138OSM   H11A15005   3.201   5.919   6.148  0.9699 -0.2352  1.3284
  138OSM   H11B15006   3.111   5.866   6.292  1.9054 -0.2079  0.8831
  138OSM      P15007   2.928   5.964   6.061 -0.3410 -0.2723 -0.3689
  138OSM    O1315008   3.020   6.065   5.998 -0.0538  0.8452 -0.3535
  138OSM    O1415009   2.807   5.930   5.986 -0.3299  0.2934 -0.6745
  138OSM    O1115010   2.878   6.037   6.196  0.6312  0.2704 -0.1902
  138OSM    O1215011   3.014   5.832   6.107  0.0485  0.3566 -0.0349
  138OSM    C1S15012   2.819   5.961   6.302  0.8270 -0.0306 -0.0361
  138OSM    H1S15013   2.853   5.855   6.311  0.3669 -0.1548  0.2697
  138OSM    H1T15014   2.710   5.960   6.283  1.0669 -0.7075 -1.5282
  138OSM     NF15015   2.799   5.955   6.556  0.0494 -0.0021  0.2155
  138OSM    HNF15016   2.718   5.998   6.596  0.3893 -0.0805  1.0053
  138OSM    C2S15017   2.850   6.026   6.438  0.3874  0.2566  0.5205
  138OSM    H2S15018   2.960   6.039   6.449  0.2071  0.6923  2.0113
  138OSM    C3S15019   2.807   6.177   6.437 -0.0533 -0.1800  0.2747
  138OSM    H3S15020   2.696   6.177   6.432 -0.1862 -0.8928  2.3374
  138OSM     O315021   2.845   6.260   6.326 -0.6465 -0.6685  0.2964
  138OSM    HO315022   2.876   6.189   6.269 -1.1992 -1.4924  0.9954
  138OSM    C4S15023   2.854   6.232   6.564  0.2129 -0.5979 -0.8086
  138OSM    H4S15024   2.789   6.213   6.650  0.4695 -0.1716 -0.5214
  138OSM    C5S15025   2.969   6.298   6.596  0.1785  0.5300  0.0082
  138OSM    H5S15026   3.048   6.302   6.519 -1.4568  0.1742 -1.7669
  138OSM    C6S15027   3.029   6.344   6.728  0.2083  0.0408  0.5236
  138OSM    H6S15028   3.054   6.451   6.718 -1.8654  0.4773 -0.7401
  138OSM    H6T15029   3.125   6.289   6.741  0.1101 -0.1785  0.3298
  138OSM    C7S15030   2.949   6.317   6.857 -0.2717  0.0052  0.2368
  138OSM    H7S15031   2.937   6.212   6.889 -0.7066 -1.2734 -3.6229
  138OSM    H7T15032   2.849   6.358   6.831  1.3540  4.4755 -0.0058
  138OSM    C8S15033   3.005   6.394   6.972  0.5962 -0.0445  0.5193
  138OSM    H8S15034   3.018   6.502   6.947  3.2727 -0.7540 -1.6890
  138OSM    H8T15035   3.103   6.350   6.996  0.2157 -0.2430  1.7533
  138OSM    C9S15036   2.910   6.374   7.088  0.0760 -0.2363 -0.3294
  138OSM    H9S15037   2.894   6.264   7.100  1.4712 -0.6974 -2.1501
  138OSM    H9T15038   2.806   6.407   7.069 -1.0177 -3.2900 -0.2371
  138OSM   C10S15039   2.952   6.439   7.217 -0.3389  0.4411 -0.1403
  138OSM   H10S15040   2.922   6.545   7.208  0.4124  0.6212 -0.5982
  138OSM   H10T15041   3.062   6.445   7.223 -0.4640  2.6459  0.7114
  138OSM   C11S15042   2.894   6.369   7.352 -0.1301  0.5107 -0.0294
  138OSM   H11S15043   2.930   6.264   7.339  3.0514  1.7610 -2.8381
  138OSM   H11T15044   2.783   6.370   7.346 -0.1839 -2.5103 -2.9865
  138OSM   C12S15045   2.946   6.423   7.490  0.3000  0.4087 -0.2990
  138OSM   H12S15046   2.971   6.531   7.480  0.1575  0.4114 -0.6151
  138OSM   H12T15047   3.046   6.390   7.526 -0.9379 -1.0481  2.1068
  138OSM   C13S15048   2.834   6.417   7.592 -0.2017  0.0172  0.7995
  138OSM   H13S15049   2.789   6.316   7.588  0.5479 -0.3713  1.8558
  138OSM   H13T15050   2.748   6.482   7.563  0.1713  0.9708  1.7652
  138OSM   C14S15051   2.870   6.440   7.742  0.4929  0.2693 -0.1556
  138OSM   H14S15052   2.884   6.548   7.764 -4.6902  1.0506  0.4924
  138OSM   H14T15053   2.965   6.395   7.778 -1.0783 -0.8671  2.9351
  138OSM   C15S15054   2.758   6.399   7.841  0.4093 -0.3498 -0.4460
  138OSM   H15S15055   2.752   6.288   7.837 -2.5736 -0.2516 -1.8654
  138OSM   H15T15056   2.657   6.438   7.815  1.3350  1.4908 -1.4102
  138OSM   C16S15057   2.787   6.443   7.985 -0.7829 -0.3106 -0.0697
  138OSM   H16S15058   2.810   6.552   7.989 -2.8669  0.1793 -0.0979
  138OSM   H16T15059   2.881   6.391   8.014 -1.4588 -0.7942  1.3582
  138OSM   C17S15060   2.676   6.404   8.082 -0.0757  0.0492 -0.4611
  138OSM   H17S15061   2.724   6.389   8.181 -1.1489 -1.1437 -0.0862
  138OSM   H17T15062   2.619   6.311   8.059 -1.0866  0.4138  0.4701
  138OSM   C18S15063   2.571   6.514   8.095 -0.4794 -0.1317 -0.6341
  138OSM   H18S15064   2.502   6.503   8.181  1.1684  2.7874  1.2325
  138OSM   H18T15065   2.513   6.512   8.000 -2.4762  0.6472  0.5062
  138OSM   H18U15066   2.620   6.613   8.103 -0.9140  0.1073 -0.9052
  138OSM    C1F15067   2.834   5.840   6.614  0.2595 -0.1517  0.5732
  138OSM     OF15068   2.930   5.777   6.567 -0.2953 -0.6543  0.2685
  138OSM    C2F15069   2.747   5.783   6.712  0.0226 -0.2301 -0.2371
  138OSM    H2F15070   2.747   5.672   6.707 -0.5888 -0.2245 -0.4103
  138OSM    H2G15071   2.648   5.791   6.663  1.2210  1.9505 -2.5536
  138OSM    C3F15072   2.769   5.856   6.845 -0.9829  0.2324 -0.1535
  138OSM    H3F15073   2.738   5.961   6.829 -2.6778 -0.5028 -2.1880
  138OSM    H3G15074   2.876   5.850   6.876 -0.7606  1.0789 -0.7406
  138OSM    C4F15075   2.689   5.793   6.961 -0.2434  0.3210 -0.3473
  138OSM    H4F15076   2.720   5.687   6.976 -2.4191 -0.2608  0.3501
  138OSM    H4G15077   2.580   5.793   6.939 -0.7325  2.5522  1.6898
  138OSM    C5F15078   2.713   5.872   7.092  0.5328  0.0663 -0.4295
  138OSM    H5F15079   2.678   5.972   7.060  0.8531 -0.6759 -3.3837
  138OSM    H5G15080   2.822   5.868   7.116  0.6756 -1.6999 -1.2246
  138OSM    C6F15081   2.624   5.842   7.214  0.5728  0.9470 -0.6471
  138OSM    H6F15082   2.648   5.742   7.254  0.7145  1.1846 -0.1270
  138OSM    H6G15083   2.517   5.846   7.184  0.5918 -0.9305 -1.0475
  138OSM    C7F15084   2.649   5.937   7.333 -0.2299  0.0778  0.4432
  138OSM    H7F15085   2.584   5.918   7.421 -0.4344  3.0488  1.0343
  138OSM    H7G15086   2.625   6.038   7.294 -1.9599  0.0764  1.4018
  138OSM    C8F15087   2.789   5.931   7.397  0.5465  0.1710 -0.0570
  138OSM    H8F15088   2.814   6.010   7.471  3.7459 -0.1297 -0.6617
  138OSM    H8G15089   2.864   5.941   7.316  2.0203 -3.3553  0.6917
  138OSM    C9F15090   2.823   5.796   7.457  0.2231 -0.5806 -0.2300
  138OSM    H9F15091   2.835   5.712   7.386  1.4318 -2.1355  1.7076
  138OSM   C10F15092   2.830   5.768   7.594 -0.3186 -0.3874  0.1923
  138OSM   H10F15093   2.874   5.672   7.626  0.7705  0.0744  0.1019
  138OSM   C11F15094   2.812   5.862   7.710  0.0048  0.1634 -0.3537
  138OSM   H11F15095   2.822   5.964   7.668 -1.9722  0.2627 -0.6840
  138OSM   H11G15096   2.886   5.845   7.791  0.7201  0.6904 -0.8909
  138OSM   C12F15097   2.672   5.844   7.766  0.0626 -0.1091 -0.3220
  138OSM   H12F15098   2.663   5.738   7.799 -1.9073  0.7286  2.0345
  138OSM   H12G15099   2.590   5.872   7.696  0.3307 -0.7836 -0.9244
  138OSM   C13F15100   2.654   5.937   7.887 -0.4139 -0.3252  0.5712
  138OSM   H13F15101   2.652   6.047   7.866 -1.0540 -0.0934  1.7592
  138OSM   H13G15102   2.724   5.932   7.972  0.5207  0.2942 -0.1418
  138OSM   C14F15103   2.518   5.906   7.963  0.2632 -0.4234  0.2757
  138OSM   H14F15104   2.522   5.800   7.998 -0.4274 -0.5543 -0.0268
  138OSM   H14G15105   2.432   5.906   7.892 -0.2615 -1.0081  0.9028
  138OSM   C15F15106   2.486   6.006   8.074 -0.3866  0.2252 -0.3108
  138OSM   H15F15107   2.478   6.107   8.028 -0.7615  0.4798  0.2988
  138OSM   H15G15108   2.563   5.996   8.153 -2.9610 -1.3248  2.1847
  138OSM   C16F15109   2.355   5.977   8.143 -0.2537  0.4856  0.0922
  138OSM   H16F15110   2.339   5.869   8.163 -1.8961  0.6645 -0.1082
  138OSM   H16G15111   2.273   6.004   8.073 -2.2310  0.2296  2.1727
  138OSM   C17F15112   2.340   6.059   8.267 -0.0916 -0.6791 -0.7143
  138OSM   H17F15113   2.398   6.016   8.352  1.8110  1.0268 -1.0899
  138OSM   H17G15114   2.231   6.053   8.290 -0.3236  2.2801 -0.7719
  138OSM   C18F15115   2.373   6.207   8.262  0.1295 -0.4936 -0.1232
  138OSM   H18F15116   2.367   6.244   8.367  1.9443 -0.1059 -0.1260
  138OSM   H18G15117   2.295   6.254   8.198 -0.2993 -0.3307  0.5017
  138OSM   H18H15118   2.469   6.242   8.219  0.9106 -0.9695  1.1732
  139OSM      N15119   2.284   0.193   6.257 -0.3718  0.8573  0.7159
  139OSM    C1515120   2.268   0.338   6.245  0.3799  0.3771  0.3367
  139OSM   H15A15121   2.166   0.370   6.259 -0.5686 -1.9649 -0.6399
  139OSM   H15B15122   2.293   0.364   6.143 -0.7385  1.2040  0.2538
  139OSM   H15C15123   2.331   0.376   6.324 -0.5736 -3.3653  3.2022
  139OSM    C1415124   2.232   0.151   6.395  0.0580 -0.2935 -0.4098
  139OSM   H14A15125   2.227   0.044   6.408 -3.3883 -0.1292  0.3487
  139OSM   H14B15126   2.127   0.169   6.410  0.3520 -0.9077  3.2613
  139OSM   H14C15127   2.298   0.190   6.471 -0.9501 -0.5368  0.6138
  139OSM    C1315128   2.203   0.132   6.152 -0.0088  0.3820 -0.2537
  139OSM   H13A15129   2.197   0.029   6.182  4.6394  0.2198  0.8732
  139OSM   H13B15130   2.256   0.149   6.060 -2.7351  1.6965 -1.7189
  139OSM   H13C15131   2.105   0.176   6.141 -1.0781 -1.9625 -0.7649
  139OSM    C1215132   2.432   0.138   6.237  0.1097  0.0505  0.9084
  139OSM   H12A15133   2.426   0.030   6.238  0.9070 -0.0386 -0.7211
  139OSM   H12B15134   2.487   0.171   6.324 -0.2066  0.1725  1.0637
  139OSM    C1115135   2.521   0.178   6.118  0.5477  0.7337  0.5408
  139OSM   H11A15136   2.479   0.179   6.015  1.3416  3.1633  0.1598
  139OSM   H11B15137   2.601   0.101   6.127 -0.0002  0.3685  3.0043
  139OSM      P15138   2.727   0.331   6.180 -0.0217 -0.0334 -0.1124
  139OSM    O1315139   2.785   0.222   6.261 -0.1669 -0.0967 -0.1494
  139OSM    O1415140   2.807   0.371   6.062  0.0759  0.2976  0.0040
  139OSM    O1115141   2.723   0.449   6.278  0.1161  0.1446 -0.2465
  139OSM    O1215142   2.572   0.312   6.140 -0.6662  1.0300  0.2591
  139OSM    C1S15143   2.629   0.475   6.390 -0.7565 -0.2923  0.0163
  139OSM    H1S15144   2.530   0.425   6.377 -0.7684 -0.2553 -0.0395
  139OSM    H1T15145   2.612   0.585   6.387  0.8506 -0.0247  0.1821
  139OSM     NF15146   2.583   0.428   6.621  0.0244  0.3678  0.8547
  139OSM    HNF15147   2.568   0.500   6.688  0.7230 -0.1039  1.5303
  139OSM    C2S15148   2.694   0.431   6.523 -0.0369  0.0114  0.0560
  139OSM    H2S15149   2.732   0.327   6.509 -0.7473 -0.1245 -0.9549
  139OSM    C3S15150   2.819   0.515   6.566  0.0571  0.0908 -0.9253
  139OSM    H3S15151   2.788   0.618   6.594  0.1825 -0.2869  0.7011
  139OSM     O315152   2.913   0.533   6.459 -0.0234 -0.1177 -0.1770
  139OSM    HO315153   2.870   0.510   6.377  1.2894  1.5160 -1.3953
  139OSM    C4S15154   2.885   0.463   6.692 -0.2441  0.9865  0.1841
  139OSM    H4S15155   2.855   0.519   6.782 -2.9333 -0.8155  0.5469
  139OSM    C5S15156   2.971   0.364   6.708  0.2631  0.0795  0.6593
  139OSM    H5S15157   2.996   0.304   6.619 -1.5036 -1.7006  1.2947
  139OSM    C6S15158   3.036   0.317   6.841 -0.9588  0.9366  0.4632
  139OSM    H6S15159   3.047   0.207   6.847 -0.2507  0.9105 -0.9069
  139OSM    H6T15160   2.957   0.349   6.914 -0.8874 -1.6765  1.8091
  139OSM    C7S15161   3.179   0.379   6.854 -0.1546 -0.1708 -0.5738
  139OSM    H7S15162   3.167   0.489   6.845  2.0335  0.0348 -1.7911
  139OSM    H7T15163   3.241   0.347   6.767  0.5532 -2.5820  0.7368
  139OSM    C8S15164   3.259   0.351   6.983 -1.0852  0.5099  0.0926
  139OSM    H8S15165   3.352   0.409   7.001 -0.4800  0.1217 -1.5663
  139OSM    H8T15166   3.297   0.247   6.982 -2.0554  0.1306  0.9156
  139OSM    C9S15167   3.181   0.362   7.110  0.2831  0.0042 -0.1919
  139OSM    H9S15168   3.117   0.272   7.123 -2.0380  1.2519 -2.0930
  139OSM    H9T15169   3.110   0.447   7.100  3.0629  2.5915  0.7167
  139OSM   C10S15170   3.267   0.408   7.230  0.8191 -0.4622 -0.3955
  139OSM   H10S15171   3.287   0.516   7.220  0.4124 -0.2910  0.4922
  139OSM   H10T15172   3.359   0.347   7.243  1.4764  0.5714 -0.1210
  139OSM   C11S15173   3.182   0.391   7.365  0.2021 -0.4340  0.1875
  139OSM   H11S15174   3.162   0.282   7.375  0.3936 -0.3640  1.4677
  139OSM   H11T15175   3.091   0.448   7.336  0.6646 -1.0161 -2.6814
  139OSM   C12S15176   3.263   0.440   7.485 -0.0344 -0.9720 -0.7489
  139OSM   H12S15177   3.291   0.547   7.482 -0.9018 -0.6350  1.5032
  139OSM   H12T15178   3.360   0.387   7.484  0.0208 -0.9905  1.2400
  139OSM   C13S15179   3.184   0.420   7.621  0.4365  0.4414  0.8594
  139OSM   H13S15180   3.150   0.315   7.615  3.2910 -0.4910 -1.1685
  139OSM   H13T15181   3.091   0.481   7.618  1.1007  1.4328 -1.0785
  139OSM   C14S15182   3.275   0.446   7.738 -0.4204 -0.5192  0.0982
  139OSM   H14S15183   3.328   0.541   7.714 -1.9077  0.5724  0.9647
  139OSM   H14T15184   3.346   0.361   7.743 -0.0424 -0.4152 -2.1100
  139OSM   C15S15185   3.203   0.457   7.872 -0.1183 -0.2269 -0.5028
  139OSM   H15S15186   3.178   0.350   7.891 -2.7747  0.0018 -2.2758
  139OSM   H15T15187   3.112   0.518   7.854  0.5728  0.4314 -1.9145
  139OSM   C16S15188   3.284   0.514   7.993  0.2748  0.0850  0.9407
  139OSM   H16S15189   3.326   0.614   7.969 -0.5746  0.2741  0.1848
  139OSM   H16T15190   3.371   0.447   8.010  0.9323  1.0552  1.4595
  139OSM   C17S15191   3.195   0.524   8.128 -0.3477  0.0022  0.1574
  139OSM   H17S15192   3.256   0.553   8.215 -0.3549  0.5183 -0.0064
  139OSM   H17T15193   3.154   0.422   8.150  0.1671 -0.3016 -0.2779
  139OSM   C18S15194   3.074   0.623   8.134 -0.2244  0.2279  0.4227
  139OSM   H18S15195   3.065   0.661   8.239 -0.4585  1.0912  0.1023
  139OSM   H18T15196   2.981   0.570   8.103  0.2611 -0.5306  0.2440
  139OSM   H18U15197   3.087   0.707   8.063 -1.5529  0.0135 -0.1018
  139OSM    C1F15198   2.483   0.339   6.608  0.9957 -0.5148  0.4057
  139OSM     OF15199   2.495   0.243   6.537  0.3588  0.0015  0.0433
  139OSM    C2F15200   2.358   0.369   6.692  0.7669 -0.0779  0.1647
  139OSM    H2F15201   2.271   0.336   6.630  2.3986  0.7870 -2.8077
  139OSM    H2G15202   2.351   0.479   6.702  0.7011 -0.1709  1.2707
  139OSM    C3F15203   2.358   0.301   6.832  0.0595  0.3069  0.6727
  139OSM    H3F15204   2.448   0.341   6.884 -0.1576  2.2668 -0.3582
  139OSM    H3G15205   2.359   0.191   6.825  0.9235  0.2390  1.5881
  139OSM    C4F15206   2.228   0.341   6.913  0.3984  0.1037 -0.1053
  139OSM    H4F15207   2.151   0.303   6.842  0.2293 -1.6407  0.9399
  139OSM    H4G15208   2.210   0.450   6.914  1.2456  0.2468  0.7549
  139OSM    C5F15209   2.209   0.258   7.034  0.4661 -0.9509  0.4580
  139OSM    H5F15210   2.266   0.163   7.018 -1.2327 -2.0763  0.8566
  139OSM    H5G15211   2.099   0.244   7.037  0.0457  1.6726 -0.3049
  139OSM    C6F15212   2.240   0.336   7.168  0.3236  0.6758 -0.6747
  139OSM    H6F15213   2.180   0.429   7.168  0.1294  0.5767 -2.2156
  139OSM    H6G15214   2.347   0.366   7.164  0.7209 -0.0233  2.2717
  139OSM    C7F15215   2.217   0.247   7.297  0.1039 -0.7114  0.1299
  139OSM    H7F15216   2.307   0.183   7.314  0.4596 -0.2170  0.1185
  139OSM    H7G15217   2.137   0.169   7.297 -0.2383 -0.3623  0.1399
  139OSM    C8F15218   2.179   0.330   7.421 -0.0953 -0.3120 -0.6762
  139OSM    H8F15219   2.148   0.253   7.495  2.5940  0.2130  1.1321
  139OSM    H8G15220   2.090   0.388   7.388  0.4830  1.2342  0.4156
  139OSM    C9F15221   2.291   0.415   7.473  0.6140  0.4321  0.5519
  139OSM    H9F15222   2.333   0.478   7.392 -1.0266  0.4559 -0.3235
  139OSM   C10F15223   2.318   0.443   7.600 -0.0799  0.7608  0.3763
  139OSM   H10F15224   2.409   0.503   7.616  0.3131  0.2715  0.0221
  139OSM   C11F15225   2.256   0.386   7.721  0.4774  0.0496 -0.1075
  139OSM   H11F15226   2.287   0.282   7.740  0.3672 -0.8729 -4.0767
  139OSM   H11G15227   2.149   0.368   7.697  0.6829 -1.4130 -0.0226
  139OSM   C12F15228   2.261   0.481   7.840 -0.2820  0.4656 -0.7161
  139OSM   H12F15229   2.215   0.580   7.821  0.6640  0.4739 -3.2839
  139OSM   H12G15230   2.366   0.501   7.873 -0.0985  2.6907 -2.4325
  139OSM   C13F15231   2.190   0.417   7.963  0.4826  0.6085 -0.1043
  139OSM   H13F15232   2.232   0.316   7.981  0.3471  0.3121 -1.3673
  139OSM   H13G15233   2.082   0.407   7.940  0.1857 -0.6484  1.6444
  139OSM   C14F15234   2.208   0.496   8.092  0.1435 -0.0854  0.2131
  139OSM   H14F15235   2.205   0.601   8.057  2.7707 -0.1292 -0.4011
  139OSM   H14G15236   2.313   0.487   8.128  0.4588  0.5777 -0.5013
  139OSM   C15F15237   2.123   0.462   8.213 -0.3957  0.6782  0.6617
  139OSM   H15F15238   2.144   0.362   8.257 -2.0375 -0.1584 -0.3381
  139OSM   H15G15239   2.018   0.450   8.178  0.2915 -0.9170 -0.9947
  139OSM   C16F15240   2.129   0.573   8.320  0.3658  0.1452  0.4780
  139OSM   H16F15241   2.063   0.659   8.298 -0.9691 -0.5314  1.6334
  139OSM   H16G15242   2.233   0.608   8.339 -0.0303 -0.3876  4.4586
  139OSM   C17F15243   2.082   0.524   8.455 -0.5856  0.2684 -0.3173
  139OSM   H17F15244   2.117   0.597   8.532  1.9991 -0.7708 -0.3979
  139OSM   H17G15245   2.147   0.437   8.478  2.1684  2.5829  1.4549
  139OSM   C18F15246   1.934   0.493   8.464  0.0786  0.4891 -0.2215
  139OSM   H18F15247   1.895   0.467   8.565 -3.6892  0.1426 -1.6199
  139OSM   H18G15248   1.897   0.419   8.391 -2.0002  2.7529 -1.6058
  139OSM   H18H15249   1.872   0.584   8.447 -1.4385 -0.2937  0.9477
  140OSM      N15250   2.800   1.819   6.232  0.0944  0.0006  0.2093
  140OSM    C1515251   2.948   1.802   6.206  0.1444  0.2298 -0.4597
  140OSM   H15A15252   2.974   1.706   6.247 -3.2261 -0.8441 -0.4980
  140OSM   H15B15253   3.018   1.877   6.240  0.9233 -0.5890 -0.2317
  140OSM   H15C15254   2.966   1.809   6.100  0.8418 -1.4336 -0.4833
  140OSM    C1415255   2.742   1.943   6.165  0.0549 -0.6286  0.6127
  140OSM   H14A15256   2.638   1.953   6.194 -1.0335  0.4317 -3.1167
  140OSM   H14B15257   2.769   1.949   6.061  0.0325  2.3650  0.6933
  140OSM   H14C15258   2.799   2.028   6.201  1.5923 -1.0246 -0.7899
  140OSM    C1315259   2.717   1.703   6.176  0.4750 -0.2017  0.1230
  140OSM   H13A15260   2.751   1.603   6.196 -0.7242 -1.1324 -2.1607
  140OSM   H13B15261   2.716   1.701   6.068 -0.1758  1.3211  0.0769
  140OSM   H13C15262   2.615   1.704   6.210 -0.3017 -0.5928 -2.0187
  140OSM    C1215263   2.784   1.825   6.379  0.0067 -0.0856 -0.3537
  140OSM   H12A15264   2.839   1.909   6.419  0.0856  0.8777 -2.3815
  140OSM   H12B15265   2.829   1.737   6.422 -0.2567  0.4380  1.0706
  140OSM    C1115266   2.644   1.844   6.442  0.1233 -0.5375 -0.2711
  140OSM   H11A15267   2.594   1.938   6.410  1.7423 -0.1811 -1.9460
  140OSM   H11B15268   2.651   1.855   6.553  1.3050  2.2840 -0.5327
  140OSM      P15269   2.387   1.753   6.371  0.0964 -0.0265  0.2559
  140OSM    O1315270   2.362   1.840   6.257 -0.3536  0.1851  0.0816
  140OSM    O1415271   2.327   1.620   6.367 -0.1178 -0.6785  0.5957
  140OSM    O1115272   2.347   1.836   6.497 -0.8839  0.1647 -0.1718
  140OSM    O1215273   2.546   1.739   6.410  0.0137 -0.0232  0.1626
  140OSM    C1S15274   2.336   1.764   6.621  0.5062  0.6860 -0.4917
  140OSM    H1S15275   2.387   1.666   6.619 -1.5557 -0.4198 -0.7891
  140OSM    H1T15276   2.230   1.739   6.644  1.6424 -4.9783  0.0332
  140OSM     NF15277   2.391   1.746   6.866 -0.0636  0.0154  0.2886
  140OSM    HNF15278   2.332   1.780   6.940 -1.0725 -2.1618  0.5587
  140OSM    C2S15279   2.393   1.839   6.747  0.5175  0.5392  0.1807
  140OSM    H2S15280   2.498   1.864   6.721  0.4905 -0.0521 -0.5080
  140OSM    C3S15281   2.313   1.978   6.768 -0.3813  0.2738  0.1181
  140OSM    H3S15282   2.209   1.951   6.796 -0.3309  0.3810  0.4072
  140OSM     O315283   2.286   2.060   6.653  0.4977 -0.3701 -0.4671
  140OSM    HO315284   2.302   1.990   6.589  1.4231 -1.0367  0.4618
  140OSM    C4S15285   2.379   2.064   6.877  0.1522  0.5019  0.5257
  140OSM    H4S15286   2.343   2.038   6.978 -0.3839  0.1555  0.2485
  140OSM    C5S15287   2.476   2.162   6.871  0.3503  0.4594 -0.9520
  140OSM    H5S15288   2.518   2.189   6.773  0.0822 -1.4920 -1.6420
  140OSM    C6S15289   2.524   2.243   6.991  0.2239 -0.6641  0.2611
  140OSM    H6S15290   2.498   2.350   6.978 -2.3783 -1.0302  1.5888
  140OSM    H6T15291   2.633   2.249   7.010  0.1615  4.3075  0.2413
  140OSM    C7S15292   2.475   2.206   7.125 -0.0225 -0.1727 -0.7879
  140OSM    H7S15293   2.500   2.099   7.141  2.4937  0.2236 -1.6662
  140OSM    H7T15294   2.365   2.219   7.139  0.2247  2.0065 -0.4342
  140OSM    C8S15295   2.558   2.284   7.235  0.6052  0.0358  0.6838
  140OSM    H8S15296   2.580   2.384   7.193  4.0165 -0.5621  0.7669
  140OSM    H8T15297   2.653   2.226   7.239  0.6900  0.0843 -0.3383
  140OSM    C9S15298   2.490   2.296   7.368  0.5784 -0.2322  0.4580
  140OSM    H9S15299   2.454   2.194   7.393 -1.8338  0.0869 -1.3655
  140OSM    H9T15300   2.399   2.358   7.352  1.1882  1.1462  1.9880
  140OSM   C10S15301   2.582   2.350   7.479  0.1440 -0.4148 -0.2051
  140OSM   H10S15302   2.618   2.453   7.456  0.5824 -0.2155  1.2609
  140OSM   H10T15303   2.668   2.280   7.484  0.1918 -0.6068 -2.8159
  140OSM   C11S15304   2.503   2.362   7.614  0.3863 -0.7475  0.3226
  140OSM   H11S15305   2.542   2.292   7.691 -1.1288 -0.1676  1.6845
  140OSM   H11T15306   2.412   2.303   7.591  0.2923  0.0683 -1.6168
  140OSM   C12S15307   2.465   2.500   7.661 -0.0228  0.2845 -0.2044
  140OSM   H12S15308   2.354   2.505   7.666 -0.0385 -0.9711  1.8985
  140OSM   H12T15309   2.505   2.572   7.587  0.1211 -0.3200 -0.7251
  140OSM   C13S15310   2.519   2.520   7.806  0.3675  0.5638  0.2565
  140OSM   H13S15311   2.482   2.614   7.850  0.2219  0.3748  0.5418
  140OSM   H13T15312   2.630   2.515   7.803  0.4131 -4.9160 -0.7368
  140OSM   C14S15313   2.479   2.414   7.904  0.6814 -0.0702 -0.9038
  140OSM   H14S15314   2.528   2.316   7.884 -2.3467 -1.9058  0.0855
  140OSM   H14T15315   2.369   2.404   7.904  0.4912  1.6850  0.5073
  140OSM   C15S15316   2.513   2.461   8.044 -0.0232 -0.4679  0.2453
  140OSM   H15S15317   2.473   2.564   8.058  0.2492 -0.3314  0.0137
  140OSM   H15T15318   2.623   2.460   8.058  0.4378 -1.2238 -2.7965
  140OSM   C16S15319   2.449   2.375   8.155  0.1566  0.1267  0.4679
  140OSM   H16S15320   2.486   2.272   8.139  3.5545  1.4235 -0.9818
  140OSM   H16T15321   2.340   2.365   8.137  0.1851  0.9161 -0.2283
  140OSM   C17S15322   2.468   2.428   8.297  0.9864  0.5839  0.1792
  140OSM   H17S15323   2.441   2.535   8.303  2.6155  1.0849 -0.8281
  140OSM   H17T15324   2.574   2.412   8.326  0.9557 -0.1416 -0.0843
  140OSM   C18S15325   2.376   2.365   8.401  0.8091 -0.4592 -0.3374
  140OSM   H18S15326   2.423   2.387   8.500  0.1497  1.2046 -0.3640
  140OSM   H18T15327   2.360   2.256   8.387  0.4569 -0.5415  0.6144
  140OSM   H18U15328   2.273   2.404   8.391  0.9063 -0.1882 -0.2966
  140OSM    C1F15329   2.456   1.632   6.878  0.7583  0.4892  0.5415
  140OSM     OF15330   2.513   1.571   6.785  0.5383 -0.0704 -0.4900
  140OSM    C2F15331   2.441   1.564   7.012 -0.1455  0.2871 -0.0445
  140OSM    H2F15332   2.338   1.527   7.027  0.1362  0.2183  2.0747
  140OSM    H2G15333   2.472   1.629   7.097 -0.3665  1.8172 -1.0796
  140OSM    C3F15334   2.522   1.429   7.001 -0.1415 -0.3043 -0.0013
  140OSM    H3F15335   2.632   1.442   6.993 -0.1692  0.3808  0.6634
  140OSM    H3G15336   2.483   1.371   6.914  1.5030 -3.6140  1.2707
  140OSM    C4F15337   2.496   1.350   7.129 -0.1463  0.4680  0.4072
  140OSM    H4F15338   2.527   1.406   7.220 -0.7444  0.7030  0.4770
  140OSM    H4G15339   2.579   1.277   7.129 -1.9849 -1.7467 -0.4168
  140OSM    C5F15340   2.358   1.286   7.147 -0.6594  0.5148  0.1381
  140OSM    H5F15341   2.383   1.181   7.173 -0.1005  0.4031 -0.8031
  140OSM    H5G15342   2.296   1.277   7.055  0.3562 -0.0596 -0.5209
  140OSM    C6F15343   2.289   1.364   7.263  0.4019  0.5318  0.8678
  140OSM    H6F15344   2.293   1.469   7.228  0.4685 -0.7113 -3.3889
  140OSM    H6G15345   2.347   1.360   7.358  2.0105 -1.7896 -0.1238
  140OSM    C7F15346   2.145   1.309   7.295 -0.3121 -0.7192  0.5398
  140OSM    H7F15347   2.149   1.199   7.284  2.2098 -0.6727  0.5335
  140OSM    H7G15348   2.075   1.343   7.215 -2.8031 -1.0705  2.4555
  140OSM    C8F15349   2.089   1.353   7.435 -0.0127  0.1064  0.0570
  140OSM    H8F15350   2.088   1.464   7.426 -0.7423  0.0420 -0.7932
  140OSM    H8G15351   2.162   1.324   7.513 -0.0991  0.3853  0.2424
  140OSM    C9F15352   1.944   1.293   7.447  0.3091  0.0170 -0.3007
  140OSM    H9F15353   1.875   1.309   7.363 -0.5156  1.2768  0.5825
  140OSM   C10F15354   1.894   1.225   7.551 -0.4314  0.0846 -0.2620
  140OSM   H10F15355   1.785   1.209   7.542 -0.1265 -1.1602 -3.0857
  140OSM   C11F15356   1.960   1.174   7.683  0.3736 -0.1999  0.4245
  140OSM   H11F15357   2.070   1.183   7.677  0.1987  2.8649  0.0420
  140OSM   H11G15358   1.931   1.072   7.716  4.3250 -2.2872 -1.8070
  140OSM   C12F15359   1.925   1.284   7.792 -0.2175 -0.0480 -0.1286
  140OSM   H12F15360   1.815   1.292   7.792 -0.1929  0.7240  1.4884
  140OSM   H12G15361   1.968   1.381   7.758  0.7181 -0.2776  0.3598
  140OSM   C13F15362   1.962   1.238   7.933 -0.0433 -0.3797  1.4118
  140OSM   H13F15363   2.065   1.196   7.931  0.5609  0.8785 -2.3768
  140OSM   H13G15364   1.887   1.157   7.948 -1.1013  0.3119  0.0606
  140OSM   C14F15365   1.947   1.343   8.036 -0.0530  0.4887 -0.5206
  140OSM   H14F15366   1.844   1.379   8.017 -0.6342 -0.3119  0.9161
  140OSM   H14G15367   2.019   1.426   8.022  0.4497  0.0795 -0.4170
  140OSM   C15F15368   1.956   1.288   8.176 -0.1134  0.8148 -0.8911
  140OSM   H15F15369   2.060   1.257   8.198 -0.3958  1.2824  1.3968
  140OSM   H15G15370   1.887   1.202   8.193 -0.9327  1.1590 -2.2955
  140OSM   C16F15371   1.909   1.398   8.278  0.2896  0.2263 -0.0060
  140OSM   H16F15372   1.811   1.432   8.239  0.3395 -1.6093 -1.8916
  140OSM   H16G15373   1.984   1.480   8.284 -0.2829  0.6615  2.0069
  140OSM   C17F15374   1.878   1.337   8.414 -0.0430  0.5916  0.5060
  140OSM   H17F15375   1.894   1.418   8.489  0.5358  1.3583 -0.4308
  140OSM   H17G15376   1.962   1.264   8.415  0.8303  1.4676 -1.6959
  140OSM   C18F15377   1.753   1.257   8.432  0.3111  0.8266  0.3293
  140OSM   H18F15378   1.745   1.220   8.536  1.4818 -0.5759 -0.0359
  140OSM   H18G15379   1.756   1.160   8.377  2.2448  0.1543  1.5265
  140OSM   H18H15380   1.660   1.313   8.408  1.0517  1.5238 -1.0294
  141OSM      N15381   2.081   3.426   6.011  0.1668  0.0838  0.1475
  141OSM    C1515382   2.193   3.467   5.922 -0.0255 -0.6943  0.3837
  141OSM   H15A15383   2.170   3.497   5.821  0.6173  0.0642  0.4541
  141OSM   H15B15384   2.271   3.393   5.912  0.6089 -0.3793  2.5569
  141OSM   H15C15385   2.242   3.555   5.961 -1.3110 -0.3501  1.2631
  141OSM    C1415386   2.002   3.544   6.053  0.4309 -0.2378  0.5294
  141OSM   H14A15387   1.946   3.524   6.143 -2.0073 -0.6872 -0.9962
  141OSM   H14B15388   1.929   3.578   5.981  0.9000 -1.8745 -0.7835
  141OSM   H14C15389   2.065   3.619   6.099 -0.3231 -0.8597  2.6492
  141OSM    C1315390   1.994   3.322   5.951 -0.4312  0.1665 -0.5914
  141OSM   H13A15391   2.050   3.231   5.932  0.7339  0.8494 -0.4680
  141OSM   H13B15392   1.943   3.350   5.860 -0.6984 -0.3670 -0.6082
  141OSM   H13C15393   1.923   3.294   6.027  0.5455  2.5417  1.3369
  141OSM    C1215394   2.146   3.370   6.137  0.0861  0.8074 -0.6364
  141OSM   H12A15395   2.239   3.420   6.161  0.7884 -1.3209  1.3989
  141OSM   H12B15396   2.190   3.273   6.115  0.3995  0.6349  0.6936
  141OSM    C1115397   2.064   3.350   6.266  0.5380 -0.3638 -0.3867
  141OSM   H11A15398   2.130   3.287   6.329 -0.8516  0.2645  1.7992
  141OSM   H11B15399   1.971   3.295   6.240  1.0398 -1.0650 -0.7306
  141OSM      P15400   1.925   3.513   6.427  0.1805 -0.3008  0.3545
  141OSM    O1315401   1.974   3.620   6.514 -0.6636 -0.2391 -1.0783
  141OSM    O1415402   1.809   3.550   6.334  0.0396  0.0897 -0.1596
  141OSM    O1115403   1.892   3.391   6.516  0.3171 -0.0138  0.3028
  141OSM    O1215404   2.048   3.474   6.333  0.0346  0.0307  0.1912
  141OSM    C1S15405   1.986   3.341   6.612 -0.5787 -0.3408  0.5539
  141OSM    H1S15406   2.062   3.412   6.651  0.0499  0.2232 -1.5611
  141OSM    H1T15407   2.041   3.255   6.568  2.7711  1.4072  1.0273
  141OSM     NF15408   2.004   3.240   6.837 -0.0023 -0.0350  0.1369
  141OSM    HNF15409   2.012   3.142   6.850 -0.7081 -0.1857 -0.4559
  141OSM    C2S15410   1.911   3.284   6.738  0.4540  0.8291  0.2468
  141OSM    H2S15411   1.849   3.368   6.777  0.1861  1.4426 -1.4027
  141OSM    C3S15412   1.808   3.177   6.697  0.3419  0.9125  0.5484
  141OSM    H3S15413   1.872   3.101   6.648  0.6116  1.4402  0.0794
  141OSM     O315414   1.709   3.222   6.599 -0.8070  0.1526  0.4409
  141OSM    HO315415   1.766   3.290   6.563  1.4204 -0.0340  3.2758
  141OSM    C4S15416   1.742   3.106   6.820 -0.7070  0.6331  0.3830
  141OSM    H4S15417   1.809   3.039   6.875  1.5807 -0.1132 -2.9955
  141OSM    C5S15418   1.616   3.114   6.863 -0.1394 -0.0850  0.5065
  141OSM    H5S15419   1.549   3.178   6.804 -0.1991 -0.0289  0.6365
  141OSM    C6S15420   1.562   3.036   6.982  0.3175 -0.9124 -0.1476
  141OSM    H6S15421   1.638   2.966   7.023  0.7269 -0.5426 -0.2669
  141OSM    H6T15422   1.471   2.975   6.968  0.3132 -1.3504  1.5195
  141OSM    C7S15423   1.543   3.138   7.091  0.3107 -0.3994  0.2300
  141OSM    H7S15424   1.472   3.217   7.060  1.4898  1.3429  1.7825
  141OSM    H7T15425   1.636   3.192   7.120 -0.1370 -0.1062  1.1271
  141OSM    C8S15426   1.488   3.073   7.223  0.3098  0.3220  0.1235
  141OSM    H8S15427   1.541   2.976   7.232  0.4837  0.5338  1.7251
  141OSM    H8T15428   1.379   3.055   7.211  0.7011 -0.9486 -2.2350
  141OSM    C9S15429   1.513   3.159   7.352 -0.0019 -0.3791 -0.2765
  141OSM    H9S15430   1.460   3.255   7.336 -1.5464 -0.8427  1.6270
  141OSM    H9T15431   1.618   3.193   7.366 -0.8129  2.2696 -0.2508
  141OSM   C10S15432   1.444   3.101   7.476  0.1621  0.3680 -0.1352
  141OSM   H10S15433   1.462   2.992   7.489 -0.8350 -0.1266 -2.3502
  141OSM   H10T15434   1.334   3.111   7.468  0.1079 -0.3404 -0.3927
  141OSM   C11S15435   1.479   3.185   7.602 -0.3450 -0.7911 -0.1954
  141OSM   H11S15436   1.451   3.292   7.588 -0.0209 -0.4666  1.4615
  141OSM   H11T15437   1.589   3.182   7.614 -0.3825 -0.4295  0.2781
  141OSM   C12S15438   1.410   3.133   7.727 -1.0103 -0.2452 -0.7680
  141OSM   H12S15439   1.400   3.023   7.738 -1.4244 -0.5133 -3.2691
  141OSM   H12T15440   1.308   3.170   7.750  0.2132  1.2343  3.0379
  141OSM   C13S15441   1.501   3.174   7.848 -0.2897  0.3161  0.4906
  141OSM   H13S15442   1.510   3.285   7.847 -1.7572  0.4550 -0.1068
  141OSM   H13T15443   1.603   3.132   7.846 -0.3636  0.1462  0.2314
  141OSM   C14S15444   1.437   3.121   7.980  0.4746  0.7716  0.1244
  141OSM   H14S15445   1.422   3.011   7.972  2.7426  0.2823  1.6568
  141OSM   H14T15446   1.335   3.160   8.001  0.9971  1.4748  1.4385
  141OSM   C15S15447   1.510   3.141   8.111  0.6594 -0.3998  1.0751
  141OSM   H15S15448   1.531   3.248   8.132  1.0832 -0.1525 -0.4711
  141OSM   H15T15449   1.607   3.087   8.106  1.4492  0.7999  2.5152
  141OSM   C16S15450   1.424   3.083   8.223 -0.1058  0.2095 -1.1322
  141OSM   H16S15451   1.418   2.972   8.214  1.8272 -0.3129  2.1795
  141OSM   H16T15452   1.318   3.114   8.213 -0.3523 -0.0444  0.4422
  141OSM   C17S15453   1.478   3.111   8.360  0.1528  0.3131  0.2217
  141OSM   H17S15454   1.402   3.082   8.436 -1.6560 -0.6946 -1.8723
  141OSM   H17T15455   1.481   3.221   8.372  0.5151  0.7920 -3.3029
  141OSM   C18S15456   1.616   3.048   8.383  0.7384 -0.1100  1.0335
  141OSM   H18S15457   1.637   3.071   8.490 -0.4737  1.8474  0.9079
  141OSM   H18T15458   1.687   3.108   8.323 -1.6538  3.2602  1.2395
  141OSM   H18U15459   1.619   2.944   8.343  1.1043  0.5316 -0.6864
  141OSM    C1F15460   2.085   3.324   6.905 -0.1649  0.9768 -0.0328
  141OSM     OF15461   2.060   3.443   6.902 -0.1135  0.3225 -0.4088
  141OSM    C2F15462   2.210   3.268   6.969  0.2591 -0.2247  0.5672
  141OSM    H2F15463   2.288   3.262   6.891  1.9914 -2.4305  2.3412
  141OSM    H2G15464   2.201   3.161   6.998  2.1631  0.1509  2.8103
  141OSM    C3F15465   2.265   3.349   7.088  0.3768 -0.8319  1.7759
  141OSM    H3F15466   2.261   3.457   7.065 -0.3503 -1.2873 -0.4728
  141OSM    H3G15467   2.372   3.321   7.099 -0.1662 -3.8920  0.2773
  141OSM    C4F15468   2.206   3.323   7.225 -0.4881 -0.0598 -0.1307
  141OSM    H4F15469   2.186   3.214   7.224  2.1973 -0.6383 -0.4964
  141OSM    H4G15470   2.110   3.373   7.249 -0.3165 -0.3398  1.2276
  141OSM    C5F15471   2.308   3.350   7.341  0.1014 -0.1392  0.4962
  141OSM    H5F15472   2.346   3.454   7.339 -2.1588  0.8763  3.4380
  141OSM    H5G15473   2.393   3.289   7.304 -0.5065  0.9372 -3.1440
  141OSM    C6F15474   2.255   3.314   7.481  0.1704 -0.0979  0.1999
  141OSM    H6F15475   2.213   3.211   7.482  0.6162 -0.3288 -1.3300
  141OSM    H6G15476   2.162   3.374   7.495  0.5174  0.2484  1.0348
  141OSM    C7F15477   2.354   3.330   7.590  0.1582  0.7692  0.0396
  141OSM    H7F15478   2.384   3.437   7.599 -1.1871  0.9704  3.1164
  141OSM    H7G15479   2.447   3.279   7.556  1.3077  2.4367  0.5266
  141OSM    C8F15480   2.311   3.286   7.739  0.0199  0.0093 -0.3557
  141OSM    H8F15481   2.303   3.177   7.722  3.4960 -0.1620 -1.5971
  141OSM    H8G15482   2.215   3.335   7.766  0.4368 -0.3946  2.1354
  141OSM    C9F15483   2.411   3.303   7.854  0.2329  0.8119 -0.4681
  141OSM    H9F15484   2.481   3.219   7.868 -0.4494 -0.0682 -2.0691
  141OSM   C10F15485   2.413   3.411   7.936 -0.8290 -0.2580 -0.0862
  141OSM   H10F15486   2.495   3.413   8.009  0.0316 -2.1728 -0.9416
  141OSM   C11F15487   2.315   3.525   7.933 -0.5307 -0.0744  0.0245
  141OSM   H11F15488   2.285   3.558   8.035 -2.8057 -0.7257 -0.3639
  141OSM   H11G15489   2.225   3.485   7.881 -1.4188  1.3203  0.4387
  141OSM   C12F15490   2.379   3.652   7.871 -0.0993 -0.1989  0.5160
  141OSM   H12F15491   2.435   3.625   7.778 -0.3966 -0.7269  0.4864
  141OSM   H12G15492   2.459   3.687   7.939 -1.2383 -0.5128  2.0507
  141OSM   C13F15493   2.269   3.763   7.845  0.7508 -0.2551  0.3025
  141OSM   H13F15494   2.321   3.860   7.825  0.5663 -0.0922  0.5968
  141OSM   H13G15495   2.204   3.781   7.933  0.2611  0.7878 -0.2507
  141OSM   C14F15496   2.177   3.726   7.728 -0.6037  0.3988  0.1287
  141OSM   H14F15497   2.096   3.801   7.727  1.5954  2.9350 -0.8589
  141OSM   H14G15498   2.147   3.619   7.736 -0.1488  0.3710  1.8246
  141OSM   C15F15499   2.259   3.749   7.593  0.4390  0.0192 -0.1366
  141OSM   H15F15500   2.346   3.680   7.591  1.0703  0.6007  2.7850
  141OSM   H15G15501   2.299   3.853   7.599  1.9906 -0.6183  1.6505
  141OSM   C16F15502   2.175   3.735   7.468 -0.2862  0.3604  0.6535
  141OSM   H16F15503   2.069   3.759   7.489 -0.6933 -1.1740  0.5155
  141OSM   H16G15504   2.186   3.629   7.435  2.2156  0.5025  0.8055
  141OSM   C17F15505   2.232   3.836   7.364 -0.2351 -0.0112  0.0537
  141OSM   H17F15506   2.343   3.831   7.362 -0.1468 -2.9178  2.8787
  141OSM   H17G15507   2.198   3.937   7.393 -0.8505  0.2532 -1.5204
  141OSM   C18F15508   2.197   3.813   7.222 -0.6539  0.4049 -0.5303
  141OSM   H18F15509   2.235   3.710   7.203 -0.4751  0.5062 -0.7199
  141OSM   H18G15510   2.236   3.885   7.147 -2.0624  2.3772  0.5447
  141OSM   H18H15511   2.088   3.821   7.207 -0.6993  1.5063  0.2939
  142OSM      N15512   2.544   4.916   6.282  0.2940  0.3352  0.1782
  142OSM    C1515513   2.580   4.773   6.237  0.1275  0.1420  0.6517
  142OSM   H15A15514   2.617   4.771   6.136  2.3370 -1.7548  1.3949
  142OSM   H15B15515   2.492   4.711   6.232 -0.7793  1.3290  1.4154
  142OSM   H15C15516   2.661   4.735   6.298  0.8358  1.0281  0.2852
  142OSM    C1415517   2.670   4.993   6.277 -0.7651 -0.1598  0.8796
  142OSM   H14A15518   2.750   4.957   6.341  0.1232  0.0060 -0.1185
  142OSM   H14B15519   2.642   5.096   6.291 -1.2208  0.5039 -3.5831
  142OSM   H14C15520   2.710   4.996   6.177 -1.6478  1.5437  0.5353
  142OSM    C1315521   2.451   4.981   6.186  0.3670 -0.3956 -0.4318
  142OSM   H13A15522   2.478   4.964   6.082  1.2541 -0.2921 -0.2247
  142OSM   H13B15523   2.458   5.086   6.212 -0.9529 -0.6884  1.2664
  142OSM   H13C15524   2.348   4.953   6.204  1.4090 -3.1573  1.9524
  142OSM    C1215525   2.489   4.917   6.420  0.4694 -0.4988  0.1659
  142OSM   H12A15526   2.554   4.853   6.477  1.3292 -0.4232 -0.7055
  142OSM   H12B15527   2.390   4.874   6.417 -0.7727  2.0869  0.6832
  142OSM    C1115528   2.462   5.049   6.495 -0.2366 -0.0246  0.0043
  142OSM   H11A15529   2.561   5.100   6.504 -0.2126 -0.2484  1.1874
  142OSM   H11B15530   2.423   5.028   6.597 -0.8114  0.4583 -0.1085
  142OSM      P15531   2.207   5.137   6.440 -0.2158 -0.2973 -0.1648
  142OSM    O1315532   2.167   5.252   6.358  0.9924  0.0755 -0.5851
  142OSM    O1415533   2.149   5.005   6.407  0.3960  0.3552  0.0781
  142OSM    O1115534   2.182   5.162   6.592  0.0926 -0.4220 -0.8628
  142OSM    O1215535   2.370   5.136   6.424 -0.6698 -0.0374 -0.3697
  142OSM    C1S15536   2.264   5.265   6.666 -0.6283 -0.3878 -0.3279
  142OSM    H1S15537   2.254   5.367   6.626 -1.2418 -0.1936  0.3010
  142OSM    H1T15538   2.372   5.240   6.653 -0.5746 -1.3458  1.5246
  142OSM     NF15539   2.290   5.375   6.886  0.0621  0.2504  0.5227
  142OSM    HNF15540   2.333   5.355   6.974 -0.3172  0.5357  0.7761
  142OSM    C2S15541   2.234   5.268   6.815  0.6543  0.3813 -0.2402
  142OSM    H2S15542   2.123   5.277   6.817  0.6180 -0.2221  1.3316
  142OSM    C3S15543   2.271   5.137   6.878 -0.2278 -0.5020 -0.3076
  142OSM    H3S15544   2.382   5.144   6.866 -0.5213  0.5221 -3.2345
  142OSM     O315545   2.232   5.019   6.803 -0.1088 -0.6029  0.8408
  142OSM    HO315546   2.211   5.073   6.726 -0.1051  0.6364  1.6691
  142OSM    C4S15547   2.235   5.132   7.024 -0.0507  0.1803 -0.0549
  142OSM    H4S15548   2.319   5.161   7.089  2.9075 -1.0386 -3.0805
  142OSM    C5S15549   2.123   5.084   7.083 -0.0172  1.3462  0.5733
  142OSM    H5S15550   2.044   5.053   7.014  1.7266  1.2474 -1.4630
  142OSM    C6S15551   2.092   5.077   7.225  0.2041 -0.2009 -0.4221
  142OSM    H6S15552   2.079   4.970   7.253 -0.0183 -0.0516  0.0597
  142OSM    H6T15553   1.996   5.129   7.244 -0.0401 -0.8188  0.0577
  142OSM    C7S15554   2.203   5.148   7.304  0.4741 -0.4462  0.1029
  142OSM    H7S15555   2.232   5.248   7.264  2.2413 -0.7780  0.5098
  142OSM    H7T15556   2.294   5.085   7.305  1.9528  1.5299  3.1561
  142OSM    C8S15557   2.156   5.180   7.441 -0.3307 -0.6032  0.1160
  142OSM    H8S15558   2.082   5.104   7.475  0.7580 -2.6092 -1.7647
  142OSM    H8T15559   2.104   5.278   7.444  1.3826  0.5860 -3.1819
  142OSM    C9S15560   2.272   5.192   7.535  0.1512 -0.2133  0.7563
  142OSM    H9S15561   2.352   5.247   7.482 -0.3481 -1.8880 -1.9319
  142OSM    H9T15562   2.307   5.088   7.552 -3.5324 -1.6462  0.5118
  142OSM   C10S15563   2.235   5.259   7.668  0.1345  0.6237 -0.3342
  142OSM   H10S15564   2.198   5.362   7.648  0.1897  0.1380 -3.3936
  142OSM   H10T15565   2.322   5.259   7.738  0.6510 -3.4996 -0.7235
  142OSM   C11S15566   2.128   5.196   7.752 -0.2045 -0.2220 -0.3585
  142OSM   H11S15567   2.151   5.088   7.761 -2.6587 -1.0439 -2.7426
  142OSM   H11T15568   2.026   5.189   7.710 -0.7511 -3.5196  1.1931
  142OSM   C12S15569   2.126   5.262   7.893  0.0078  0.7909 -0.4894
  142OSM   H12S15570   2.110   5.372   7.891  1.3903  1.1080  2.1950
  142OSM   H12T15571   2.224   5.247   7.943 -1.3640 -0.6235  1.9800
  142OSM   C13S15572   2.006   5.207   7.972  0.3426  0.0559  0.0525
  142OSM   H13S15573   2.003   5.096   7.972 -4.3966 -0.0029  0.9602
  142OSM   H13T15574   1.912   5.243   7.926 -0.2843  2.3314  2.8013
  142OSM   C14S15575   2.004   5.263   8.119 -0.8291 -0.6186  0.3929
  142OSM   H14S15576   1.997   5.373   8.108 -0.0928 -0.6481 -0.5406
  142OSM   H14T15577   2.097   5.240   8.175 -0.0870 -1.0332 -0.9738
  142OSM   C15S15578   1.881   5.219   8.195  0.8568  0.5063  0.0742
  142OSM   H15S15579   1.903   5.115   8.228  0.0443  0.6930  1.3228
  142OSM   H15T15580   1.792   5.227   8.129  1.3973  0.2564 -0.7015
  142OSM   C16S15581   1.857   5.293   8.326  0.6212  0.3701  0.4393
  142OSM   H16S15582   1.854   5.402   8.307  3.0583  0.5741  0.8057
  142OSM   H16T15583   1.948   5.268   8.386  0.6506 -2.0345 -0.4898
  142OSM   C17S15584   1.728   5.250   8.397  0.1844  0.2995  0.1427
  142OSM   H17S15585   1.727   5.141   8.416  0.3190  0.0203 -1.3525
  142OSM   H17T15586   1.648   5.270   8.322  1.1080  2.2611 -0.3910
  142OSM   C18S15587   1.704   5.309   8.545 -0.5635  0.4864 -0.6282
  142OSM   H18S15588   1.597   5.333   8.557  0.2664  4.3264  0.4294
  142OSM   H18T15589   1.762   5.400   8.571 -1.0713  0.6966 -0.2349
  142OSM   H18U15590   1.728   5.228   8.618 -0.7555  1.3373  0.3980
  142OSM    C1F15591   2.263   5.501   6.863  0.1425 -0.1810 -0.0101
  142OSM     OF15592   2.166   5.534   6.795  0.4952 -0.5091 -0.2274
  142OSM    C2F15593   2.348   5.603   6.938  0.7793  0.2012 -0.0693
  142OSM    H2F15594   2.402   5.654   6.856 -1.4193 -0.7267 -2.2161
  142OSM    H2G15595   2.419   5.542   6.998  0.5337 -0.2766 -0.2554
  142OSM    C3F15596   2.260   5.700   7.021  0.0505  0.6719 -0.1617
  142OSM    H3F15597   2.211   5.771   6.951  0.8270  1.4047  0.0199
  142OSM    H3G15598   2.335   5.761   7.076 -1.4660  2.1349  0.3948
  142OSM    C4F15599   2.171   5.637   7.126  0.0574  0.4380 -0.1067
  142OSM    H4F15600   2.101   5.570   7.072  0.6012  0.4181 -0.8056
  142OSM    H4G15601   2.107   5.714   7.175  1.0576  2.5607 -1.9144
  142OSM    C5F15602   2.245   5.560   7.237 -0.2643 -0.4931 -0.2434
  142OSM    H5F15603   2.306   5.478   7.192 -1.8995 -1.3021 -1.0753
  142OSM    H5G15604   2.160   5.509   7.287 -0.9228  1.9339  1.2801
  142OSM    C6F15605   2.317   5.648   7.346 -0.5983 -0.1790  0.3130
  142OSM    H6F15606   2.288   5.755   7.340 -0.3975 -0.1600 -0.4260
  142OSM    H6G15607   2.424   5.650   7.319 -0.7589 -0.7243 -0.4113
  142OSM    C7F15608   2.303   5.579   7.480 -0.5450  0.5388  0.5892
  142OSM    H7F15609   2.365   5.487   7.474 -2.7929 -0.9829 -0.2102
  142OSM    H7G15610   2.198   5.544   7.486 -0.1984 -1.7102 -3.5301
  142OSM    C8F15611   2.340   5.672   7.600  0.1214 -0.0049 -0.2171
  142OSM    H8F15612   2.439   5.720   7.584 -0.7722  1.5206 -1.4661
  142OSM    H8G15613   2.357   5.606   7.688 -1.3353 -1.6241 -1.0971
  142OSM    C9F15614   2.231   5.772   7.626  1.4780 -0.2755  0.0033
  142OSM    H9F15615   2.227   5.862   7.563 -3.6612 -0.8786 -1.0433
  142OSM   C10F15616   2.142   5.760   7.730 -0.0934 -1.0043  0.0935
  142OSM   H10F15617   2.062   5.835   7.727  0.5618 -0.2631  0.5919
  142OSM   C11F15618   2.130   5.658   7.832  0.1705 -0.5490  0.3831
  142OSM   H11F15619   2.190   5.566   7.811  1.3815  0.3474 -0.2217
  142OSM   H11G15620   2.020   5.643   7.837 -0.2607  2.1480  0.7044
  142OSM   C12F15621   2.176   5.705   7.973  0.1649 -0.6892 -0.6692
  142OSM   H12F15622   2.140   5.807   7.997  0.5269 -0.8812  0.7781
  142OSM   H12G15623   2.287   5.711   7.976  0.1669 -1.0552  0.4307
  142OSM   C13F15624   2.127   5.620   8.093 -0.1236 -0.5760  0.1492
  142OSM   H13F15625   2.172   5.519   8.082 -2.4690 -1.7359  0.6018
  142OSM   H13G15626   2.019   5.595   8.104 -0.5965  0.3626 -1.9427
  142OSM   C14F15627   2.167   5.680   8.231 -0.3014 -0.3516 -0.6373
  142OSM   H14F15628   2.120   5.781   8.235 -2.3194 -1.2796  1.5455
  142OSM   H14G15629   2.277   5.685   8.241 -0.3663  3.3199 -0.3691
  142OSM   C15F15630   2.110   5.602   8.353  0.0816 -0.1368  0.7670
  142OSM   H15F15631   2.174   5.516   8.383  0.2830 -0.5557 -0.7690
  142OSM   H15G15632   2.012   5.562   8.320 -0.5608 -0.0552  2.4788
  142OSM   C16F15633   2.081   5.684   8.482 -0.6622  0.0772  0.6690
  142OSM   H16F15634   2.021   5.772   8.450 -0.9884  0.6985  2.8683
  142OSM   H16G15635   2.173   5.714   8.536  0.4989 -1.0086 -0.5985
  142OSM   C17F15636   2.005   5.608   8.583  0.2513  0.2325 -0.3089
  142OSM   H17F15637   2.040   5.502   8.583 -2.0905 -0.6097  0.5872
  142OSM   H17G15638   1.898   5.620   8.556  0.1964 -0.6641 -0.5253
  142OSM   C18F15639   2.015   5.666   8.727  0.0978  0.0541  0.6194
  142OSM   H18F15640   1.948   5.608   8.794 -0.2679 -1.4028 -0.9303
  142OSM   H18G15641   1.984   5.772   8.739  0.0066  0.0606  0.3312
  142OSM   H18H15642   2.118   5.655   8.769  0.6542  2.5471  0.0270
  143OSM      N15643   4.489   1.664   6.158 -0.4865 -0.3664 -0.1291
  143OSM    C1515644   4.574   1.636   6.041  0.2631 -0.0501 -1.0310
  143OSM   H15A15645   4.678   1.621   6.065 -0.2009 -0.2136  1.0751
  143OSM   H15B15646   4.571   1.712   5.964  0.5812  1.0186 -0.0167
  143OSM   H15C15647   4.546   1.539   6.002  0.3330 -0.8220  0.7709
  143OSM    C1415648   4.528   1.589   6.278  0.2624  0.0521 -0.1139
  143OSM   H14A15649   4.520   1.483   6.262  0.1362 -0.0474  0.5590
  143OSM   H14B15650   4.466   1.617   6.362 -0.7293  1.0142 -1.1364
  143OSM   H14C15651   4.632   1.612   6.298  0.4572  0.0016 -1.0538
  143OSM    C1315652   4.507   1.814   6.172  0.4556  0.3710  0.3823
  143OSM   H13A15653   4.605   1.844   6.206  0.8655  1.7983 -1.7941
  143OSM   H13B15654   4.433   1.850   6.241 -0.8694  0.1391 -0.8639
  143OSM   H13C15655   4.486   1.863   6.078  2.4173 -1.0857 -0.9003
  143OSM    C1215656   4.342   1.651   6.125 -0.2400  0.0210 -0.4100
  143OSM   H12A15657   4.311   1.718   6.046  0.6179 -0.8703 -1.5179
  143OSM   H12B15658   4.275   1.672   6.208  1.3302 -1.2177  1.2462
  143OSM    C1115659   4.301   1.504   6.071  0.6587 -0.0677 -0.0101
  143OSM   H11A15660   4.382   1.479   6.000  0.4952  0.0494 -0.2429
  143OSM   H11B15661   4.211   1.508   6.006  0.1114 -1.9425  0.5902
  143OSM      P15662   4.148   1.390   6.247  0.1827  0.0825  0.2249
  143OSM    O1315663   4.107   1.505   6.330  0.2762  0.4630  0.3030
  143OSM    O1415664   4.062   1.352   6.134  0.1534 -0.4202 -0.1858
  143OSM    O1115665   4.177   1.274   6.349  0.2794 -0.4406  0.0509
  143OSM    O1215666   4.284   1.414   6.179  0.1711  0.5450 -0.1125
  143OSM    C1S15667   4.291   1.274   6.440  0.4520  0.4975 -0.3173
  143OSM    H1S15668   4.332   1.378   6.445  0.1693  0.6812 -1.4771
  143OSM    H1T15669   4.373   1.213   6.398  0.4701  0.3812 -0.1099
  143OSM     NF15670   4.337   1.274   6.688 -0.6552 -0.1547 -0.0559
  143OSM    HNF15671   4.370   1.193   6.737 -0.2375  0.5123  0.7900
  143OSM    C2S15672   4.237   1.240   6.589  0.1062  0.3417  0.6010
  143OSM    H2S15673   4.143   1.298   6.597 -0.0105  0.7343 -2.5041
  143OSM    C3S15674   4.183   1.089   6.587  0.1484 -1.0676  0.3094
  143OSM    H3S15675   4.264   1.019   6.558 -0.5861 -1.4010 -1.0433
  143OSM     O315676   4.082   1.070   6.484  0.0918 -0.8437 -0.0720
  143OSM    HO315677   4.089   1.153   6.435 -0.5007 -0.6381  0.1693
  143OSM    C4S15678   4.130   1.055   6.719  0.2990  0.0126  0.3869
  143OSM    H4S15679   4.043   1.117   6.745  0.3333 -0.0482  0.6509
  143OSM    C5S15680   4.186   0.959   6.804  0.2572 -0.6897  0.6210
  143OSM    H5S15681   4.258   0.886   6.763  2.1832  2.1212 -1.3196
  143OSM    C6S15682   4.116   0.931   6.941 -0.5098 -0.2288  0.0622
  143OSM    H6S15683   4.175   0.854   6.996 -0.9561 -1.9759 -1.8036
  143OSM    H6T15684   4.024   0.872   6.920  1.5707 -2.9737 -2.1579
  143OSM    C7S15685   4.103   1.055   7.025  0.1089 -0.2435 -0.1314
  143OSM    H7S15686   4.041   1.125   6.965  1.2461 -1.9604 -3.5121
  143OSM    H7T15687   4.206   1.095   7.038 -0.3194  0.8119  0.1484
  143OSM    C8S15688   4.051   1.028   7.171 -0.0215  0.2262  0.3288
  143OSM    H8S15689   4.134   0.967   7.211  1.0075 -1.5012 -3.8770
  143OSM    H8T15690   3.957   0.969   7.164 -0.0576  0.1259  1.4417
  143OSM    C9S15691   4.027   1.168   7.239  0.2253  0.3809 -0.1978
  143OSM    H9S15692   3.937   1.221   7.202 -0.0040  0.3269  0.2780
  143OSM    H9T15693   4.116   1.226   7.204 -0.0210 -0.1836 -1.8615
  143OSM   C10S15694   4.018   1.152   7.394  0.4118 -0.7203 -0.1287
  143OSM   H10S15695   4.106   1.094   7.430 -0.8027 -1.1708  2.3162
  143OSM   H10T15696   3.926   1.092   7.407 -0.4844  0.3428 -1.3674
  143OSM   C11S15697   4.024   1.297   7.458  0.8574 -0.2218 -0.0928
  143OSM   H11S15698   3.940   1.365   7.435  0.3048 -0.8706 -0.0154
  143OSM   H11T15699   4.119   1.344   7.424 -0.4350  1.1564 -2.0141
  143OSM   C12S15700   4.024   1.280   7.610 -0.2068 -0.4031 -0.1289
  143OSM   H12S15701   4.069   1.373   7.652 -1.3366 -0.3781  1.0791
  143OSM   H12T15702   4.087   1.194   7.638  1.1858  0.2365 -1.1874
  143OSM   C13S15703   3.882   1.262   7.677 -0.0040  0.2035 -0.4219
  143OSM   H13S15704   3.832   1.172   7.633 -1.6253  1.1424 -0.5784
  143OSM   H13T15705   3.819   1.353   7.662  0.8716  0.6091 -1.8313
  143OSM   C14S15706   3.903   1.237   7.834  0.0970 -0.0197 -0.7785
  143OSM   H14S15707   3.903   1.334   7.887 -0.7991 -1.1674  1.4329
  143OSM   H14T15708   4.003   1.189   7.831 -0.2061 -0.8323  0.9581
  143OSM   C15S15709   3.793   1.146   7.885 -0.6624  0.0504 -0.1734
  143OSM   H15S15710   3.831   1.100   7.979 -1.7799 -3.0695 -1.1176
  143OSM   H15T15711   3.760   1.072   7.809 -0.4257  1.6821 -1.9311
  143OSM   C16S15712   3.667   1.219   7.938  0.0768 -0.7191  0.0853
  143OSM   H16S15713   3.709   1.279   8.022  0.4214  0.0419 -0.6214
  143OSM   H16T15714   3.595   1.146   7.980 -0.7762 -0.1354 -0.3592
  143OSM   C17S15715   3.597   1.312   7.847  0.3399 -0.5083  0.3423
  143OSM   H17S15716   3.620   1.287   7.741 -0.1224 -0.9746  0.3485
  143OSM   H17T15717   3.633   1.413   7.875 -0.8878 -0.1098  0.5238
  143OSM   C18S15718   3.452   1.316   7.879  0.6497  0.2327  0.1419
  143OSM   H18S15719   3.400   1.237   7.821  1.5483 -1.6758  1.7751
  143OSM   H18T15720   3.403   1.409   7.845 -0.7121 -0.3252  0.4864
  143OSM   H18U15721   3.430   1.314   7.988  0.3815  1.6868  0.1271
  143OSM    C1F15722   4.382   1.393   6.728  0.2905 -0.3505 -0.0895
  143OSM     OF15723   4.328   1.495   6.682 -0.7590 -0.6606 -0.1911
  143OSM    C2F15724   4.480   1.388   6.838  0.1086  0.1600  0.0366
  143OSM    H2F15725   4.490   1.288   6.887  0.0625 -0.5985 -1.4444
  143OSM    H2G15726   4.435   1.449   6.920 -0.2774 -1.7630  1.3365
  143OSM    C3F15727   4.614   1.452   6.793 -0.7176  0.6382  0.1010
  143OSM    H3F15728   4.603   1.563   6.790 -2.1973  0.4835 -2.2776
  143OSM    H3G15729   4.644   1.414   6.693  1.1447  2.7555 -0.2379
  143OSM    C4F15730   4.731   1.416   6.893 -0.3219  0.0355  0.3051
  143OSM    H4F15731   4.817   1.477   6.856  0.3642 -1.6529 -1.0037
  143OSM    H4G15732   4.753   1.308   6.880  0.7899  0.3337 -0.4132
  143OSM    C5F15733   4.717   1.460   7.037  0.5261 -0.2728  0.3361
  143OSM    H5F15734   4.651   1.388   7.090  0.9840 -1.5292 -0.7571
  143OSM    H5G15735   4.654   1.551   7.038  0.1918 -0.4793 -0.6641
  143OSM    C6F15736   4.844   1.510   7.112 -0.4978 -0.1919  0.5703
  143OSM    H6F15737   4.911   1.573   7.050  0.5288 -0.2133  1.6245
  143OSM    H6G15738   4.906   1.418   7.127  0.2828 -0.1030 -1.7118
  143OSM    C7F15739   4.803   1.594   7.236 -0.4927  0.0407 -0.1394
  143OSM    H7F15740   4.741   1.536   7.308  0.4295  0.5076  1.0681
  143OSM    H7G15741   4.739   1.677   7.197  1.2286  0.6226 -1.9097
  143OSM    C8F15742   4.926   1.657   7.303  0.4294  0.0604 -0.7786
  143OSM    H8F15743   4.982   1.708   7.221 -1.5867  3.2262 -0.3331
  143OSM    H8G15744   4.997   1.579   7.339 -0.7289  1.1374  4.7401
  143OSM    C9F15745   4.883   1.752   7.414 -0.6382 -0.7356 -0.2950
  143OSM    H9F15746   4.858   1.855   7.382  0.8711  0.0040  0.7883
  143OSM   C10F15747   4.896   1.723   7.544 -0.1307  0.5285  0.2800
  143OSM   H10F15748   4.869   1.802   7.616  1.3064 -0.2312  1.7081
  143OSM   C11F15749   4.946   1.594   7.603 -0.1710 -1.8537 -0.5665
  143OSM   H11F15750   5.051   1.589   7.639 -0.8443 -1.6629  1.5506
  143OSM   H11G15751   4.940   1.525   7.516  2.5048 -2.4885 -0.3510
  143OSM   C12F15752   4.854   1.558   7.720  0.2534  0.2337 -0.4858
  143OSM   H12F15753   4.868   1.450   7.742 -2.1055  0.2995  1.8172
  143OSM   H12G15754   4.750   1.562   7.681  1.1691  2.5574 -3.0356
  143OSM   C13F15755   4.870   1.638   7.853 -0.1659  0.5112 -0.1393
  143OSM   H13F15756   4.810   1.730   7.838  1.2456  1.3140 -1.2102
  143OSM   H13G15757   4.975   1.668   7.874  0.1930 -2.2300  2.7895
  143OSM   C14F15758   4.825   1.561   7.984 -0.2251 -0.2965 -0.4309
  143OSM   H14F15759   4.858   1.455   7.986 -1.5023 -0.7389  2.0265
  143OSM   H14G15760   4.714   1.554   7.995 -0.5700  3.8010  0.4295
  143OSM   C15F15761   4.874   1.631   8.111 -0.4985 -0.8052  0.1531
  143OSM   H15F15762   4.843   1.737   8.108 -0.6540 -0.8547  0.0334
  143OSM   H15G15763   4.985   1.626   8.115 -0.2766  1.6222 -1.3358
  143OSM   C16F15764   4.821   1.577   8.243  0.2853  0.8145  1.1909
  143OSM   H16F15765   4.843   1.468   8.236  0.4310  0.9210 -0.3035
  143OSM   H16G15766   4.711   1.589   8.249  0.3613  3.3369 -0.8829
  143OSM   C17F15767   4.887   1.640   8.364  0.1700  0.5074  0.6979
  143OSM   H17F15768   4.998   1.643   8.350 -0.0518  0.8660 -1.3628
  143OSM   H17G15769   4.864   1.581   8.455  0.2857  0.9053  0.9893
  143OSM   C18F15770   4.830   1.779   8.396  0.3293 -0.9955  0.0327
  143OSM   H18F15771   4.731   1.799   8.442  1.2757  1.7057  1.1180
  143OSM   H18G15772   4.850   1.849   8.312 -1.2892  0.1595  0.5566
  143OSM   H18H15773   4.906   1.820   8.466  0.4351 -2.4008  0.7828
  144OSM      N15774   2.643   0.811   6.161 -0.7729 -0.0465  0.1362
  144OSM    C1515775   2.668   0.879   6.030 -0.1269 -0.2228 -0.2206
  144OSM   H15A15776   2.575   0.920   5.994 -1.6613 -3.4180 -0.2450
  144OSM   H15B15777   2.689   0.803   5.956  0.6676  0.4643 -0.7228
  144OSM   H15C15778   2.749   0.951   6.032 -1.1814  1.0733 -1.6998
  144OSM    C1415779   2.562   0.902   6.241  1.0240 -0.8229  0.3691
  144OSM   H14A15780   2.491   0.953   6.178  0.5876 -0.1701  1.3490
  144OSM   H14B15781   2.610   0.986   6.289 -1.1274  0.1838  0.9129
  144OSM   H14C15782   2.503   0.852   6.317  1.1741  1.9977  2.5156
  144OSM    C1315783   2.562   0.691   6.136  0.4150  0.1862 -0.2685
  144OSM   H13A15784   2.621   0.614   6.089  1.4483  0.7909  0.0148
  144OSM   H13B15785   2.481   0.702   6.065 -0.4034 -0.3041  0.5727
  144OSM   H13C15786   2.512   0.653   6.224 -2.0150  0.9058 -1.2548
  144OSM    C1215787   2.770   0.773   6.235  0.7462 -0.0697  0.5371
  144OSM   H12A15788   2.846   0.749   6.163  2.1822  1.2190  1.5761
  144OSM   H12B15789   2.745   0.683   6.291 -1.6484  0.8341  1.0232
  144OSM    C1115790   2.836   0.883   6.325 -0.2820  0.0230  0.2769
  144OSM   H11A15791   2.938   0.847   6.352 -1.7763 -3.2428  2.2675
  144OSM   H11B15792   2.784   0.886   6.423 -0.7580 -1.6328  0.1250
  144OSM      P15793   2.840   1.142   6.342  0.0176 -0.1181  0.0179
  144OSM    O1315794   2.930   1.245   6.289  0.1131 -0.2059 -0.0649
  144OSM    O1415795   2.700   1.185   6.363  0.2390 -0.2728 -0.0749
  144OSM    O1115796   2.902   1.087   6.476  0.1925 -0.0672  0.0101
  144OSM    O1215797   2.842   1.010   6.259  0.8906  0.2017  0.5423
  144OSM    C1S15798   2.955   1.188   6.566 -0.0571  0.5901  0.1493
  144OSM    H1S15799   2.884   1.271   6.589  1.9573  2.6869 -0.7285
  144OSM    H1T15800   3.041   1.242   6.519  0.2638  2.0317  2.2690
  144OSM     NF15801   3.035   1.241   6.792 -0.6081  0.5567  0.3518
  144OSM    HNF15802   3.130   1.269   6.795 -0.1132 -1.0367  0.6867
  144OSM    C2S15803   3.004   1.125   6.706 -0.0416 -0.3441 -0.8097
  144OSM    H2S15804   2.923   1.064   6.751  1.5360 -0.6051  1.9118
  144OSM    C3S15805   3.123   1.030   6.678 -0.4302  0.2901 -0.8134
  144OSM    H3S15806   3.211   1.093   6.650  1.4106 -1.1257  1.4759
  144OSM     O315807   3.092   0.935   6.578 -0.2769  0.4245 -0.3524
  144OSM    HO315808   3.004   0.966   6.554 -0.7393  1.6105  2.5373
  144OSM    C4S15809   3.164   0.963   6.809 -0.6187  0.5321 -0.4933
  144OSM    H4S15810   3.251   1.016   6.852 -1.1501  1.6970 -0.7949
  144OSM    C5S15811   3.116   0.843   6.869  0.2030  0.1321  0.1025
  144OSM    H5S15812   3.037   0.787   6.816 -2.1832  3.7244 -0.4823
  144OSM    C6S15813   3.163   0.783   7.004  0.5661  0.2313  0.2347
  144OSM    H6S15814   3.262   0.732   7.006 -0.6188 -2.1996  2.4921
  144OSM    H6T15815   3.088   0.706   7.033 -0.5656  1.4942  0.7607
  144OSM    C7S15816   3.178   0.891   7.116 -0.6162  0.0602  0.4595
  144OSM    H7S15817   3.090   0.959   7.116  0.1481  1.0792  0.4425
  144OSM    H7T15818   3.259   0.952   7.072 -1.2257 -0.0476 -0.8641
  144OSM    C8S15819   3.204   0.826   7.261 -0.3374 -0.3123 -0.1708
  144OSM    H8S15820   3.312   0.807   7.279 -0.4111 -0.2248  0.3645
  144OSM    H8T15821   3.147   0.731   7.268 -1.6641  0.5688  1.4114
  144OSM    C9S15822   3.166   0.933   7.369  0.0508  0.8143 -0.0423
  144OSM    H9S15823   3.063   0.971   7.349 -0.0013  0.2830 -0.8559
  144OSM    H9T15824   3.234   1.021   7.372  0.8824  0.2043 -0.6075
  144OSM   C10S15825   3.167   0.871   7.513 -0.3724 -0.0145 -0.0825
  144OSM   H10S15826   3.099   0.784   7.512 -0.9975  0.4719 -0.6944
  144OSM   H10T15827   3.112   0.945   7.576  2.3121  1.0679  1.1623
  144OSM   C11S15828   3.301   0.864   7.573  0.0490 -0.4194 -0.0155
  144OSM   H11S15829   3.361   0.956   7.561  0.8679 -0.9834 -0.3504
  144OSM   H11T15830   3.358   0.781   7.525  1.5556 -0.2847  1.4275
  144OSM   C12S15831   3.295   0.830   7.723  0.0880 -0.3169 -0.8282
  144OSM   H12S15832   3.383   0.775   7.763  0.2000  0.2537 -0.2674
  144OSM   H12T15833   3.207   0.766   7.744  0.9920 -1.1866  0.4722
  144OSM   C13S15834   3.290   0.962   7.805  0.6122  0.4711 -0.5828
  144OSM   H13S15835   3.222   1.039   7.762 -2.2751 -1.6513 -0.0860
  144OSM   H13T15836   3.395   0.998   7.801  1.0376 -0.5797  0.4765
  144OSM   C14S15837   3.234   0.928   7.950  0.2680  0.1602  0.6450
  144OSM   H14S15838   3.308   0.864   8.002 -1.2452 -2.2880 -0.0304
  144OSM   H14T15839   3.134   0.880   7.942  0.6598 -0.6299  0.4182
  144OSM   C15S15840   3.217   1.062   8.032  0.0151 -0.2053  0.3140
  144OSM   H15S15841   3.130   1.111   7.984 -0.5951 -0.9273  0.6615
  144OSM   H15T15842   3.307   1.127   8.033  1.2468 -1.8540  0.7004
  144OSM   C16S15843   3.172   1.026   8.174  0.1837 -0.2876  0.0659
  144OSM   H16S15844   3.080   0.963   8.176 -0.6307  0.8796  1.8196
  144OSM   H16T15845   3.133   1.111   8.233  1.8267 -1.0751  2.4428
  144OSM   C17S15846   3.291   0.971   8.260  0.3317  0.7607 -1.3578
  144OSM   H17S15847   3.341   1.066   8.287 -1.2317  1.0958  0.5322
  144OSM   H17T15848   3.364   0.913   8.200 -0.0901  0.5122 -1.6418
  144OSM   C18S15849   3.249   0.891   8.375 -0.6322 -0.1356 -0.2566
  144OSM   H18S15850   3.177   0.944   8.440 -0.1607 -0.7257  0.7773
  144OSM   H18T15851   3.344   0.860   8.423 -1.0065 -1.4471 -0.3023
  144OSM   H18U15852   3.200   0.795   8.346 -1.3843 -0.0665  0.7327
  144OSM    C1F15853   2.948   1.315   6.862 -0.0148 -0.3602  0.1968
  144OSM     OF15854   2.826   1.298   6.861 -0.3688  0.0300  0.4914
  144OSM    C2F15855   3.016   1.420   6.938 -0.5990 -0.0615 -0.2745
  144OSM    H2F15856   2.938   1.493   6.968 -0.3529 -0.2719  0.9001
  144OSM    H2G15857   3.088   1.471   6.870  1.5921 -1.6228  0.7592
  144OSM    C3F15858   3.085   1.372   7.065  0.1224 -0.1222  0.8068
  144OSM    H3F15859   3.117   1.464   7.117  0.1324 -0.2740  1.0724
  144OSM    H3G15860   3.165   1.301   7.036  0.1446 -0.2144  1.0875
  144OSM    C4F15861   2.991   1.300   7.168 -0.5350 -0.3866  0.8060
  144OSM    H4F15862   3.052   1.268   7.255 -0.2285 -1.5897  0.1693
  144OSM    H4G15863   2.942   1.207   7.133 -0.1542 -0.4896  0.5477
  144OSM    C5F15864   2.880   1.393   7.214 -0.1260 -0.0469 -0.1935
  144OSM    H5F15865   2.799   1.409   7.140 -0.7175  3.9753  1.1010
  144OSM    H5G15866   2.916   1.496   7.236  2.8961 -1.3101  1.3145
  144OSM    C6F15867   2.824   1.347   7.352  0.5848 -0.3870 -0.5847
  144OSM    H6F15868   2.909   1.302   7.408  0.0052  1.4634  1.9639
  144OSM    H6G15869   2.747   1.266   7.345  1.7022 -1.3316 -2.9018
  144OSM    C7F15870   2.765   1.469   7.432  0.9529 -0.1748 -0.0483
  144OSM    H7F15871   2.680   1.517   7.379  0.7303 -0.6973 -0.1744
  144OSM    H7G15872   2.854   1.534   7.444  0.5394  0.5616 -0.8539
  144OSM    C8F15873   2.715   1.419   7.571  1.0813  0.0906  0.4022
  144OSM    H8F15874   2.699   1.511   7.632  1.8715  1.6542 -1.6491
  144OSM    H8G15875   2.791   1.361   7.626  1.3921  1.9112  1.9908
  144OSM    C9F15876   2.585   1.343   7.578 -0.2837  0.0198 -0.0844
  144OSM    H9F15877   2.585   1.257   7.509 -0.8223 -0.8476  0.9653
  144OSM   C10F15878   2.488   1.364   7.667  0.8630 -0.8995 -0.1995
  144OSM   H10F15879   2.397   1.302   7.669  1.6095 -2.0716 -1.2432
  144OSM   C11F15880   2.483   1.461   7.788 -0.2926  0.3456 -0.3593
  144OSM   H11F15881   2.405   1.540   7.778  0.0129  0.7192  0.1398
  144OSM   H11G15882   2.573   1.525   7.794  1.4385 -2.0437  1.0284
  144OSM   C12F15883   2.468   1.401   7.932  0.2546  0.2215 -0.3893
  144OSM   H12F15884   2.554   1.332   7.948  1.9606  2.1274 -0.9032
  144OSM   H12G15885   2.371   1.350   7.944  0.4407  0.2779  1.8205
  144OSM   C13F15886   2.462   1.514   8.039 -0.7056  0.3656 -0.9140
  144OSM   H13F15887   2.372   1.573   8.010 -0.3715  0.6933 -1.3008
  144OSM   H13G15888   2.554   1.576   8.037 -0.9253  0.7205 -0.1779
  144OSM   C14F15889   2.430   1.467   8.178  0.2232 -0.1916  0.6010
  144OSM   H14F15890   2.501   1.385   8.204 -1.0856 -1.4897  0.2447
  144OSM   H14G15891   2.335   1.414   8.156 -0.6556  1.1657  1.0320
  144OSM   C15F15892   2.412   1.572   8.289  0.2286  0.1879 -0.3328
  144OSM   H15F15893   2.352   1.655   8.246 -1.7988 -0.2925  1.3769
  144OSM   H15G15894   2.514   1.603   8.318  1.4382 -1.5599 -2.4854
  144OSM   C16F15895   2.336   1.517   8.410 -1.1089  0.5106  0.5490
  144OSM   H16F15896   2.405   1.439   8.449  1.5440  1.4119 -1.9646
  144OSM   H16G15897   2.237   1.478   8.377 -0.6580  0.9881 -1.4980
  144OSM   C17F15898   2.315   1.620   8.517  0.2152  0.0428  0.0359
  144OSM   H17F15899   2.242   1.699   8.491  1.0776  1.2834  1.2117
  144OSM   H17G15900   2.415   1.668   8.530 -0.2367  0.3868  3.2931
  144OSM   C18F15901   2.279   1.548   8.646 -0.7540  0.1609  0.5378
  144OSM   H18F15902   2.348   1.469   8.684 -1.0960 -0.4585 -0.1103
  144OSM   H18G15903   2.183   1.495   8.627 -0.9011  1.4181 -2.9069
  144OSM   H18H15904   2.263   1.614   8.734  3.8761  0.1522  1.6417
  145SAPE     N15905   2.961   0.050  10.827 -0.3170 -0.5811 -0.1878
  145SAPE   HN115906   2.998   0.032  10.922  2.1175  1.5755 -0.6308
  145SAPE   HN215907   3.018   0.001  10.755 -0.8783 -1.3262 -0.1382
  145SAPE   HN315908   2.983   0.150  10.811 -0.7635 -0.4022  0.3223
  145SAPE   C1215909   2.811   0.025  10.807 -0.5686 -0.1025  0.0799
  145SAPE  H12A15910   2.764   0.098  10.876 -2.1471  0.4877 -1.5527
  145SAPE  H12B15911   2.794  -0.079  10.842  3.2683 -1.3011 -1.0702
  145SAPE   C1115912   2.756   0.056  10.670  0.1203  0.5196  0.5595
  145SAPE  H11A15913   2.771  -0.010  10.583 -1.6644  1.1285 -0.2679
  145SAPE  H11B15914   2.797   0.152  10.632 -0.7080  0.4610 -0.5269
  145SAPE     P15915   2.509  -0.046  10.672  0.0651  0.2761  0.0856
  145SAPE   O1315916   2.564  -0.168  10.732  0.8137  0.2082  0.2803
  145SAPE   O1415917   2.378   0.004  10.728 -0.5335 -0.8163 -0.5554
  145SAPE   O1215918   2.614   0.077  10.678  0.2883  0.2336 -0.2074
  145SAPE   O1115919   2.491  -0.061  10.515 -0.0796 -0.3234  0.0832
  145SAPE    C115920   2.435   0.050  10.442  0.5684  0.0328 -0.2885
  145SAPE    HA15921   2.325   0.035  10.454  0.8670 -1.1308  1.2857
  145SAPE    HB15922   2.467   0.150  10.478  0.4087 -0.1014  0.2431
  145SAPE    C215923   2.449   0.048  10.294 -0.1123  0.5682  0.6210
  145SAPE    HS15924   2.369   0.108  10.245  1.2738 -0.1055 -2.6967
  145SAPE   O2115925   2.450  -0.084  10.236 -0.0921  0.0530 -0.1293
  145SAPE   C2115926   2.330  -0.140  10.222 -0.1487 -0.2848 -0.1608
  145SAPE   O2215927   2.221  -0.091  10.243  0.1682  0.0243  0.1796
  145SAPE   C2215928   2.345  -0.281  10.165  0.0002 -0.3756 -0.1454
  145SAPE   H2R15929   2.415  -0.286  10.079  1.4127 -1.7983  1.0105
  145SAPE   H2S15930   2.394  -0.340  10.246  0.3177  1.6698  1.2287
  145SAPE    C315931   2.583   0.118  10.253 -0.6283  0.4829  0.8932
  145SAPE    HX15932   2.660   0.058  10.306  0.2566  1.2831  0.5492
  145SAPE    HY15933   2.573   0.221  10.293  1.0776  0.6489  0.9495
  145SAPE   O3115934   2.605   0.126  10.107  0.3174 -0.4027  0.5062
  145SAPE   C3115935   2.729   0.090  10.066 -0.0832 -0.2081  0.1166
  145SAPE   O3215936   2.825   0.075  10.138  0.4298 -0.7133  0.1050
  145SAPE   C3215937   2.728   0.086   9.911  0.1075 -0.2252  0.1128
  145SAPE   H2X15938   2.827   0.113   9.869 -0.1347  1.7073  0.7074
  145SAPE   H2Y15939   2.666   0.162   9.859 -0.3973 -0.3280  0.5483
  145SAPE   C2315940   2.213  -0.342  10.134 -0.5759  0.1483 -0.5806
  145SAPE   H3R15941   2.164  -0.262  10.075  4.3256  2.2314 -2.3730
  145SAPE   H3S15942   2.165  -0.367  10.232 -0.2877 -2.7061 -1.0731
  145SAPE   C2415943   2.225  -0.472  10.049 -0.2685 -0.2581 -0.1311
  145SAPE   H4R15944   2.284  -0.545  10.108 -0.2666  0.0319  0.2327
  145SAPE   H4S15945   2.294  -0.455   9.964  1.0648 -2.0736  0.5131
  145SAPE   C2515946   2.081  -0.519  10.018  0.6568 -0.3656  0.3377
  145SAPE   H5R15947   2.013  -0.515  10.105 -0.3379  0.1765 -0.4465
  145SAPE   C2615948   2.043  -0.556   9.894 -0.0562  0.4260 -0.9889
  145SAPE   H6R15949   1.937  -0.585   9.885 -0.3121  1.4108 -1.3100
  145SAPE   C2715950   2.122  -0.554   9.767 -0.6053 -0.2163 -0.2651
  145SAPE   H7R15951   2.213  -0.618   9.772 -0.5682 -0.3108 -1.5905
  145SAPE   H7S15952   2.154  -0.449   9.754  2.1269 -0.7592  1.4526
  145SAPE   C2815953   2.038  -0.591   9.649  0.1495  0.8172  0.4678
  145SAPE   H8R15954   1.936  -0.617   9.680  1.0189 -2.1279  1.2261
  145SAPE   C2915955   2.076  -0.588   9.521  0.8691 -0.0406 -0.3223
  145SAPE   H9R15956   2.004  -0.624   9.445 -0.8480  0.7919  0.8428
  145SAPE  C21015957   2.208  -0.549   9.458 -0.1213 -0.8259 -0.4916
  145SAPE  H10R15958   2.277  -0.530   9.543  0.2700  0.8196 -1.1429
  145SAPE  H10S15959   2.205  -0.455   9.400  1.0387  0.2051  1.0411
  145SAPE  C21115960   2.271  -0.656   9.373  0.2457  0.5056  0.4736
  145SAPE  H11R15961   2.301  -0.751   9.420 -0.7640 -1.5220 -2.7109
  145SAPE  C21215962   2.296  -0.644   9.244  0.0633 -0.2835 -0.2012
  145SAPE  H12R15963   2.347  -0.729   9.196  1.7311  0.0418  0.8909
  145SAPE  C21315964   2.260  -0.524   9.163 -0.1759 -0.7026 -0.2691
  145SAPE  H13R15965   2.345  -0.455   9.179  0.3961 -1.1297 -1.3869
  145SAPE  H13S15966   2.162  -0.486   9.202  0.5921  1.3188 -0.1561
  145SAPE  C21415967   2.239  -0.554   9.020 -0.8324 -0.9367  0.2944
  145SAPE  H14R15968   2.158  -0.627   9.003 -2.0559  0.7534 -1.5732
  145SAPE  C21515969   2.324  -0.524   8.918  0.3139  0.2603 -0.7487
  145SAPE  H15R15970   2.292  -0.546   8.815  0.0253  1.7146 -0.9930
  145SAPE  C21615971   2.455  -0.454   8.940  0.9627  0.1051  0.4724
  145SAPE  H16R15972   2.519  -0.470   9.029 -1.1978  1.7606  2.4566
  145SAPE  H16S15973   2.447  -0.344   8.945 -0.9440  0.1538 -1.8911
  145SAPE  C21715974   2.539  -0.489   8.819  0.1671  0.3468 -0.2451
  145SAPE  H17R15975   2.544  -0.599   8.803 -2.1357  0.2602 -0.7450
  145SAPE  H17S15976   2.643  -0.450   8.827 -0.2564  2.1164 -2.2828
  145SAPE  C21815977   2.485  -0.446   8.677  0.8678 -0.0665 -0.0210
  145SAPE  H18R15978   2.394  -0.504   8.654  0.6865 -0.2538  1.1161
  145SAPE  H18S15979   2.561  -0.466   8.599 -0.8702  1.4009 -2.2049
  145SAPE  C21915980   2.464  -0.301   8.658 -0.4593 -0.0933 -1.0460
  145SAPE  H19R15981   2.556  -0.254   8.698 -0.3617 -1.8567  1.0284
  145SAPE  H19S15982   2.388  -0.281   8.737  0.4992 -3.0189  0.7775
  145SAPE  C22015983   2.418  -0.264   8.516  0.7421  0.1988  0.4233
  145SAPE  H20R15984   2.472  -0.316   8.435  0.3673  1.3659 -0.6011
  145SAPE  H20S15985   2.435  -0.156   8.492  1.4883  0.2108  0.9633
  145SAPE  H20T15986   2.311  -0.280   8.492  1.1508 -0.7810 -0.8639
  145SAPE   C3315987   2.681  -0.048   9.854 -0.6800 -0.6997  0.3965
  145SAPE   H3X15988   2.740  -0.128   9.904  0.2303  0.2910  0.9289
  145SAPE   H3Y15989   2.716  -0.047   9.748  4.0817 -0.1178  1.7670
  145SAPE   C3415990   2.542  -0.089   9.872  0.1491 -0.6330  0.4811
  145SAPE   H4X15991   2.461  -0.019   9.843  3.1685  3.1774  0.3704
  145SAPE   H4Y15992   2.527  -0.129   9.974  1.6410 -2.8868 -0.1167
  145SAPE   C3515993   2.508  -0.222   9.797  0.7798 -0.4863 -0.7959
  145SAPE   H5X15994   2.401  -0.247   9.812  0.7313  0.2322  0.2194
  145SAPE   H5Y15995   2.576  -0.300   9.839  1.7893  0.4280 -0.6777
  145SAPE   C3615996   2.531  -0.205   9.649  0.5589 -0.1754  0.8722
  145SAPE   H6X15997   2.641  -0.208   9.633  0.6356 -1.1671  1.4759
  145SAPE   H6Y15998   2.488  -0.110   9.609 -1.5420 -1.6706 -0.6476
  145SAPE   C3715999   2.459  -0.306   9.556 -0.5267 -0.9335  0.6044
  145SAPE   H7X16000   2.355  -0.311   9.593  0.7496 -0.0019  4.7638
  145SAPE   H7Y16001   2.496  -0.406   9.588  0.4859  0.0615  2.7429
  145SAPE   C3816002   2.482  -0.258   9.413 -0.0469 -0.0151 -0.1235
  145SAPE   H8X16003   2.442  -0.154   9.404  1.7905  0.8059  0.6187
  145SAPE   H8Y16004   2.437  -0.327   9.339 -1.1392  1.0700 -0.5120
  145SAPE   C3916005   2.631  -0.242   9.376 -0.2620 -0.0061  0.5334
  145SAPE   H9X16006   2.670  -0.338   9.418  0.8697  0.2502  0.1120
  145SAPE   H9Y16007   2.675  -0.158   9.435  0.4503 -0.6471  0.9303
  145SAPE  C31016008   2.661  -0.233   9.222  0.2337  0.5443 -0.2365
  145SAPE  H10X16009   2.604  -0.144   9.188  0.4099  1.0568  0.7607
  145SAPE  H10Y16010   2.626  -0.327   9.174 -0.0268  0.6361 -0.2303
  145SAPE  C31116011   2.808  -0.214   9.194  0.2010 -0.6265  0.5040
  145SAPE  H11X16012   2.834  -0.118   9.243  0.8928 -1.9120  2.7861
  145SAPE  H11Y16013   2.817  -0.194   9.085 -1.7013  2.8491  0.8382
  145SAPE  C31216014   2.893  -0.324   9.251  0.3981  0.4641 -0.4118
  145SAPE  H12X16015   2.856  -0.421   9.210  2.1246  0.7965 -2.9610
  145SAPE  H12Y16016   2.885  -0.333   9.361 -0.7526 -0.2467 -0.5264
  145SAPE  C31316017   3.041  -0.320   9.212 -0.0920  0.0163 -0.2967
  145SAPE  H13X16018   3.079  -0.218   9.234  2.7582 -1.2175  0.9928
  145SAPE  H13Y16019   3.066  -0.340   9.105  2.2286  0.8528  0.0295
  145SAPE  C31416020   3.131  -0.411   9.299 -0.2780 -1.0577  0.1829
  145SAPE  H14X16021   3.091  -0.387   9.400 -1.8467  1.9168 -1.0042
  145SAPE  H14Y16022   3.239  -0.388   9.285 -0.3835 -1.2396 -1.0955
  145SAPE  C31516023   3.112  -0.552   9.277 -0.4104  0.6696  0.0034
  145SAPE  H15X16024   3.125  -0.577   9.170  0.4786  3.6237 -0.6630
  145SAPE  H15Y16025   3.020  -0.585   9.329 -0.5322  0.2005 -0.5078
  145SAPE  C31616026   3.219  -0.640   9.342 -0.2185  0.1385  0.8369
  145SAPE  H16X16027   3.241  -0.609   9.447  2.0926  2.4281 -0.2154
  145SAPE  H16Y16028   3.316  -0.616   9.294  0.9526 -1.1585  2.4162
  145SAPE  C31716029   3.187  -0.787   9.352 -0.1920 -0.2688 -0.2825
  145SAPE  H17X16030   3.175  -0.832   9.251 -0.8453 -1.7864  0.4441
  145SAPE  H17Y16031   3.091  -0.798   9.406 -1.1827 -1.4354 -2.1864
  145SAPE  C31816032   3.304  -0.859   9.415 -0.4134  0.6590 -0.1869
  145SAPE  H18X16033   3.389  -0.877   9.345 -0.2621 -3.5785  0.8564
  145SAPE  H18Y16034   3.280  -0.962   9.445 -1.0296  0.4511 -1.3386
  145SAPE  H18Z16035   3.350  -0.803   9.500 -0.8997  0.9615 -0.1159
  146SAPE     N16036   2.500   1.320  10.846  0.0681 -0.5975 -0.5992
  146SAPE   HN116037   2.458   1.255  10.915 -1.7537 -0.8186 -1.8424
  146SAPE   HN216038   2.589   1.362  10.881 -0.3012 -1.1123  1.0337
  146SAPE   HN316039   2.440   1.401  10.819  0.7514  0.2798  0.4221
  146SAPE   C1216040   2.526   1.239  10.724  0.1606 -0.2305  0.0239
  146SAPE  H12A16041   2.605   1.169  10.756  0.5366  0.7222  1.2577
  146SAPE  H12B16042   2.571   1.298  10.641  0.0576 -1.7611 -1.1679
  146SAPE   C1116043   2.405   1.168  10.670 -0.5839  0.2679 -0.1525
  146SAPE  H11A16044   2.434   1.107  10.582 -2.3290  1.7011 -1.8256
  146SAPE  H11B16045   2.322   1.232  10.632 -1.2678 -1.1683 -1.1722
  146SAPE     P16046   2.375   0.936  10.789  0.5318  0.3484 -0.2153
  146SAPE   O1316047   2.521   0.911  10.801 -0.1064  0.1648 -0.2617
  146SAPE   O1416048   2.296   0.879  10.899 -0.5184  0.0258  0.7863
  146SAPE   O1216049   2.345   1.091  10.775 -0.0577  0.5400 -0.3288
  146SAPE   O1116050   2.315   0.879  10.657 -0.0908  0.2486  0.0237
  146SAPE    C116051   2.179   0.825  10.644  0.3337  0.0746  0.5839
  146SAPE    HA16052   2.180   0.723  10.687 -0.7891  0.6166  2.0097
  146SAPE    HB16053   2.103   0.880  10.704 -1.8057 -1.4946 -0.5290
  146SAPE    C216054   2.138   0.811  10.496  0.0424  0.1476 -0.5615
  146SAPE    HS16055   2.180   0.716  10.454 -2.0782 -1.7126  1.2572
  146SAPE   O2116056   2.183   0.927  10.432 -0.5988  0.7524 -0.7190
  146SAPE   C2116057   2.256   0.910  10.324 -0.6504  0.4226 -1.1885
  146SAPE   O2216058   2.273   0.805  10.270 -0.4055  0.4542 -0.4703
  146SAPE   C2216059   2.298   1.050  10.274 -0.2144  0.0280  0.3343
  146SAPE   H2R16060   2.216   1.073  10.203 -0.9952  1.8185  1.7502
  146SAPE   H2S16061   2.298   1.133  10.348 -0.0744 -0.1189  0.5001
  146SAPE    C316062   1.987   0.794  10.483  0.2811 -0.0745 -0.2043
  146SAPE    HX16063   1.937   0.886  10.519  1.5516  0.3338  0.5717
  146SAPE    HY16064   1.949   0.713  10.548  0.3670 -0.5361 -0.7192
  146SAPE   O3116065   1.940   0.770  10.353 -0.1068 -0.6925  0.0450
  146SAPE   C3116066   1.936   0.647  10.310  0.1126  0.4426 -0.0169
  146SAPE   O3216067   1.970   0.547  10.376  0.0247  0.3233  0.0860
  146SAPE   C3216068   1.910   0.650  10.159 -0.9471 -0.5199 -0.4373
  146SAPE   H2X16069   1.834   0.725  10.132 -0.7736  1.1631  3.1683
  146SAPE   H2Y16070   1.889   0.548  10.120  0.0863 -0.2934 -1.6565
  146SAPE   C2316071   2.444   1.052  10.219 -0.0072  0.4564  0.0130
  146SAPE   H3R16072   2.454   0.999  10.122 -0.3782 -1.6575  1.0779
  146SAPE   H3S16073   2.516   1.004  10.289 -0.5951  1.4672  1.3681
  146SAPE   C2416074   2.505   1.201  10.196  0.5452 -0.4724 -0.1631
  146SAPE   H4R16075   2.612   1.199  10.165  0.2388 -0.3868 -1.2863
  146SAPE   H4S16076   2.510   1.239  10.300 -1.5194 -0.2920 -0.1036
  146SAPE   C2516077   2.419   1.283  10.101  0.3852  0.1075 -0.2639
  146SAPE   H5R16078   2.364   1.363  10.153 -0.3802 -1.1988  1.0200
  146SAPE   C2616079   2.402   1.277   9.967 -0.1283  0.0657 -0.1324
  146SAPE   H6R16080   2.336   1.348   9.916  0.9583  0.0392 -1.6305
  146SAPE   C2716081   2.461   1.180   9.869 -0.0973  0.8820  0.7832
  146SAPE   H7R16082   2.557   1.143   9.912  0.3193  1.1472  0.0923
  146SAPE   H7S16083   2.493   1.243   9.784  1.1400  1.2256  1.4800
  146SAPE   C2816084   2.368   1.069   9.824  0.5771  0.0722 -0.4606
  146SAPE   H8R16085   2.341   0.992   9.898 -0.5971  1.0794  0.2036
  146SAPE   C2916086   2.301   1.064   9.709  0.0180 -0.5168 -0.7020
  146SAPE   H9R16087   2.237   0.977   9.685  0.0851 -0.3184 -1.6422
  146SAPE  C21016088   2.309   1.167   9.598  0.3022 -0.2634 -0.1294
  146SAPE  H10R16089   2.330   1.265   9.644  0.9216 -0.0687 -0.8047
  146SAPE  H10S16090   2.216   1.182   9.539  1.2329  0.7941 -1.3905
  146SAPE  C21116091   2.421   1.130   9.506  0.4228  0.3493  0.0958
  146SAPE  H11R16092   2.483   1.049   9.546  1.1668  1.0714  0.4296
  146SAPE  C21216093   2.448   1.171   9.381  0.8064  0.0620  0.0423
  146SAPE  H12R16094   2.538   1.130   9.333  0.5044 -0.9443  0.3210
  146SAPE  C21316095   2.370   1.272   9.299 -0.7404  0.7179  0.0352
  146SAPE  H13R16096   2.438   1.327   9.230 -0.9093  0.5819 -0.2436
  146SAPE  H13S16097   2.329   1.349   9.368  1.8270  1.5344  0.7406
  146SAPE  C21416098   2.258   1.201   9.226  0.2759 -0.4768 -0.1919
  146SAPE  H14R16099   2.174   1.193   9.297  0.1843  2.0839  0.0589
  146SAPE  C21516100   2.248   1.160   9.100 -0.9577  0.9942 -0.4738
  146SAPE  H15R16101   2.164   1.095   9.070 -1.4140  1.6218 -0.5747
  146SAPE  C21616102   2.357   1.174   9.003 -0.4301  0.3211 -0.5273
  146SAPE  H16R16103   2.427   1.255   9.032 -2.2380  1.1677  1.8363
  146SAPE  H16S16104   2.317   1.213   8.906 -1.0040  2.8525  0.6452
  146SAPE  C21716105   2.442   1.056   8.967 -0.0227 -0.2204  0.0304
  146SAPE  H17R16106   2.496   1.087   8.875  1.4962  1.6252  1.4539
  146SAPE  H17S16107   2.375   0.973   8.936 -1.2907 -0.2656  2.6284
  146SAPE  C21816108   2.534   0.994   9.071  0.1146 -0.3470 -0.2436
  146SAPE  H18R16109   2.483   0.998   9.169 -1.9884 -1.8648 -1.2115
  146SAPE  H18S16110   2.620   1.065   9.077 -0.3461  0.3681 -1.6344
  146SAPE  C21916111   2.604   0.859   9.042  0.6074  0.7594  0.3673
  146SAPE  H19R16112   2.532   0.775   9.049  2.5951 -0.9175  2.6046
  146SAPE  H19S16113   2.667   0.836   9.131 -3.0089 -1.8634  2.5337
  146SAPE  C22016114   2.680   0.862   8.915 -0.2312  0.5768 -0.1677
  146SAPE  H20R16115   2.613   0.864   8.826 -1.2452 -0.6060  0.5402
  146SAPE  H20S16116   2.741   0.770   8.900 -0.7366  0.2945 -0.5338
  146SAPE  H20T16117   2.762   0.936   8.920 -1.0017  1.3564  1.9685
  146SAPE   C3316118   2.039   0.697  10.081 -0.2771  0.1713  0.2725
  146SAPE   H3X16119   2.125   0.634  10.111 -3.2110 -4.4647 -0.0952
  146SAPE   H3Y16120   2.056   0.805  10.104 -0.3616 -0.0116  1.2500
  146SAPE   C3416121   2.013   0.699   9.928 -0.0474  0.3030 -1.0071
  146SAPE   H4X16122   1.942   0.782   9.907  0.3427  1.8636  2.8569
  146SAPE   H4Y16123   1.966   0.601   9.907 -0.6678  0.7917 -1.9520
  146SAPE   C3516124   2.141   0.718   9.853  0.2483 -0.5056  0.0146
  146SAPE   H5X16125   2.218   0.659   9.907 -0.0440 -0.9923 -0.0942
  146SAPE   H5Y16126   2.169   0.825   9.856  1.3264 -0.7724 -0.0186
  146SAPE   C3616127   2.144   0.667   9.709  0.8843 -0.0851 -0.2557
  146SAPE   H6X16128   2.125   0.558   9.722  1.3215 -0.0055  1.2654
  146SAPE   H6Y16129   2.241   0.673   9.655  1.1825 -1.2088  0.1166
  146SAPE   C3716130   2.049   0.738   9.617 -0.3172  0.5507  0.4737
  146SAPE   H7X16131   2.042   0.849   9.629 -2.2685  0.4712  0.3191
  146SAPE   H7Y16132   1.953   0.695   9.651  0.0176 -0.3670  0.2781
  146SAPE   C3816133   2.087   0.712   9.472  0.0493  0.1045 -0.4547
  146SAPE   H8X16134   2.097   0.604   9.449 -1.1105 -0.4227  1.3367
  146SAPE   H8Y16135   2.182   0.765   9.449 -0.6928  1.2168 -1.0600
  146SAPE   C3916136   1.974   0.764   9.375 -0.0135  0.3166  0.7312
  146SAPE   H9X16137   1.942   0.864   9.413 -2.5843  0.8944 -2.5327
  146SAPE   H9Y16138   1.881   0.703   9.381 -0.8171  1.4676  0.2165
  146SAPE  C31016139   2.017   0.778   9.224  0.1892 -0.2741 -0.6564
  146SAPE  H10X16140   2.100   0.851   9.219  0.1858 -0.2459 -0.2995
  146SAPE  H10Y16141   1.931   0.812   9.162 -0.7152 -1.0440  0.1342
  146SAPE  C31116142   2.068   0.644   9.167 -0.6862  0.5054 -0.1916
  146SAPE  H11X16143   2.137   0.590   9.236 -1.4269 -1.0947 -0.6628
  146SAPE  H11Y16144   2.126   0.664   9.074 -2.5946 -0.7523 -1.7259
  146SAPE  C31216145   1.962   0.544   9.121  0.4971 -0.1807  0.4276
  146SAPE  H12X16146   1.914   0.584   9.029 -0.9310  0.7833  1.5428
  146SAPE  H12Y16147   1.882   0.529   9.197 -0.8675 -2.6023 -1.3493
  146SAPE  C31316148   2.014   0.401   9.092  0.4035 -0.0478  0.0922
  146SAPE  H13X16149   2.058   0.348   9.179  0.0855  0.2918  0.4642
  146SAPE  H13Y16150   2.088   0.412   9.010 -0.2096  0.8006 -0.3679
  146SAPE  C31416151   1.893   0.318   9.045 -0.2935  0.5679  0.5690
  146SAPE  H14X16152   1.924   0.217   9.009 -1.0539 -0.4008  2.5242
  146SAPE  H14Y16153   1.848   0.367   8.956 -1.2194 -1.3063 -0.0323
  146SAPE  C31516154   1.779   0.301   9.143  0.2559  0.1358 -0.3854
  146SAPE  H15X16155   1.716   0.391   9.157 -1.5605 -1.1998  0.4188
  146SAPE  H15Y16156   1.809   0.268   9.245 -0.0168  2.2726  0.4457
  146SAPE  C31616157   1.677   0.204   9.088  0.1926  0.0101 -0.3276
  146SAPE  H16X16158   1.703   0.102   9.051 -0.5939  0.1093 -1.1995
  146SAPE  H16Y16159   1.628   0.255   9.003 -1.3599 -1.3461 -0.3031
  146SAPE  C31716160   1.562   0.181   9.192  0.2461 -0.1292  0.5476
  146SAPE  H17X16161   1.519   0.279   9.222  1.0435  0.6638 -0.7852
  146SAPE  H17Y16162   1.613   0.154   9.286  0.6643  0.4438  0.4915
  146SAPE  C31816163   1.460   0.082   9.145 -0.3261  0.1310  0.0908
  146SAPE  H18X16164   1.412   0.100   9.046  0.8725 -0.3431 -0.5948
  146SAPE  H18Y16165   1.372   0.084   9.212  0.0797  0.6984  0.6209
  146SAPE  H18Z16166   1.504  -0.020   9.136  3.1272  1.5800 -1.2506
  147SAPE     N16167   2.968   3.899  10.946  0.1037 -0.1253  0.1538
  147SAPE   HN116168   2.868   3.899  10.975 -0.4471 -0.3580 -1.5819
  147SAPE   HN216169   3.026   3.867  11.026 -1.4826 -0.0534  1.3896
  147SAPE   HN316170   3.001   3.994  10.919  0.6269 -0.0724  0.9522
  147SAPE   C1216171   2.958   3.812  10.827 -0.2811  0.7458  0.0955
  147SAPE  H12A16172   2.869   3.843  10.769 -0.8952 -3.5867 -1.6666
  147SAPE  H12B16173   2.947   3.707  10.863  1.3419  0.6834  0.5109
  147SAPE   C1116174   3.077   3.827  10.725 -0.1208  0.2105 -0.2648
  147SAPE  H11A16175   3.069   3.933  10.692  2.5979  0.4704 -0.3042
  147SAPE  H11B16176   3.067   3.760  10.637 -2.1106  1.6048 -1.1812
  147SAPE     P16177   3.259   3.683  10.832 -0.6428 -0.6106  0.0428
  147SAPE   O1316178   3.410   3.686  10.820  0.4558  0.2075 -0.5258
  147SAPE   O1416179   3.199   3.652  10.966 -0.3217 -0.2876  0.1198
  147SAPE   O1216180   3.204   3.820  10.784  0.1763 -0.3516 -0.0668
  147SAPE   O1116181   3.197   3.581  10.734 -0.1928  0.0665 -0.2906
  147SAPE    C116182   3.271   3.508  10.643  0.7819  0.5015  0.1480
  147SAPE    HA16183   3.371   3.553  10.625  0.3305  1.4719  0.0337
  147SAPE    HB16184   3.276   3.405  10.686  1.4090  0.4006 -0.1494
  147SAPE    C216185   3.197   3.491  10.502  0.6169 -0.9869  0.0712
  147SAPE    HS16186   3.238   3.414  10.433 -0.4923 -0.5359 -1.1312
  147SAPE   O2116187   3.191   3.627  10.434 -0.8374  0.2105  0.0444
  147SAPE   C2116188   3.301   3.664  10.385  0.3833 -0.6210  0.3195
  147SAPE   O2216189   3.400   3.595  10.385  0.2913  0.0717  0.1772
  147SAPE   C2216190   3.295   3.802  10.308  0.1320  0.0472 -0.3195
  147SAPE   H2R16191   3.196   3.813  10.258 -0.1641 -4.3486 -1.1317
  147SAPE   H2S16192   3.297   3.877  10.390  1.0081 -0.4844  0.1604
  147SAPE    C316193   3.044   3.462  10.517  0.5499  0.6288 -0.1418
  147SAPE    HX16194   2.982   3.552  10.536 -0.2442  0.0322  0.1517
  147SAPE    HY16195   3.024   3.404  10.610  3.1723  0.7560  0.5941
  147SAPE   O3116196   2.990   3.398  10.393  0.3953 -0.1056  0.0137
  147SAPE   C3116197   2.970   3.265  10.405  0.2026  0.0257  0.1712
  147SAPE   O3216198   3.018   3.200  10.498  0.3961  0.2515 -0.3652
  147SAPE   C3216199   2.892   3.219  10.284  0.6670 -0.8124  0.5518
  147SAPE   H2X16200   2.889   3.111  10.308  1.7708 -0.6167  1.6721
  147SAPE   H2Y16201   2.947   3.238  10.190  0.7330  0.2572  0.7875
  147SAPE   C2316202   3.408   3.822  10.208 -0.3986  0.0192 -0.4612
  147SAPE   H3R16203   3.507   3.807  10.256 -0.9830  1.5746  1.3671
  147SAPE   H3S16204   3.406   3.931  10.188  1.3325 -0.0703 -1.2595
  147SAPE   C2416205   3.390   3.741  10.079  0.7130 -0.0802  0.5299
  147SAPE   H4R16206   3.282   3.747  10.052  0.7382  2.1756  0.7406
  147SAPE   H4S16207   3.422   3.638  10.105  0.4206 -1.3743 -3.5585
  147SAPE   C2516208   3.493   3.797   9.979  0.0489 -0.4360  0.4076
  147SAPE   H5R16209   3.580   3.843  10.028 -1.3066  1.0477  1.5556
  147SAPE   C2616210   3.477   3.787   9.846 -0.2684 -0.1073  1.4620
  147SAPE   H6R16211   3.560   3.823   9.784  0.9454  0.8407  3.5176
  147SAPE   C2716212   3.371   3.711   9.765 -0.2137  0.6633 -0.4035
  147SAPE   H7R16213   3.315   3.788   9.708  2.8710  2.3216 -1.4446
  147SAPE   H7S16214   3.295   3.671   9.834  0.0854  0.8424  0.0350
  147SAPE   C2816215   3.440   3.602   9.679  0.5094  0.0268 -0.1239
  147SAPE   H8R16216   3.481   3.518   9.738 -2.1034 -2.1959 -1.2508
  147SAPE   C2916217   3.431   3.590   9.545  0.1910 -0.3781  0.3324
  147SAPE   H9R16218   3.479   3.506   9.493 -0.3408 -0.2043 -0.4590
  147SAPE  C21016219   3.366   3.691   9.453  0.2830 -0.6957 -0.1355
  147SAPE  H10R16220   3.284   3.737   9.513 -0.0242  0.0008 -1.0725
  147SAPE  H10S16221   3.310   3.644   9.370 -0.4453 -0.4684  0.2131
  147SAPE  C21116222   3.465   3.788   9.384  0.5007 -0.5125  0.2698
  147SAPE  H11R16223   3.518   3.856   9.452 -0.3770  0.0062  0.4602
  147SAPE  C21216224   3.478   3.794   9.255 -0.5498 -0.2128  0.3320
  147SAPE  H12R16225   3.548   3.864   9.206 -0.7348  0.5384  1.1178
  147SAPE  C21316226   3.416   3.716   9.142 -0.4470 -0.0513 -0.3848
  147SAPE  H13R16227   3.379   3.784   9.062 -0.7994  0.7098  0.4150
  147SAPE  H13S16228   3.329   3.659   9.179  1.1878 -2.2203  0.3458
  147SAPE  C21416229   3.509   3.604   9.099 -0.5804 -0.0620 -0.0864
  147SAPE  H14R16230   3.512   3.526   9.177 -3.8994 -0.9968 -0.7468
  147SAPE  C21516231   3.552   3.578   8.976  0.2730  0.0753  0.2085
  147SAPE  H15R16232   3.604   3.484   8.955  1.1271 -0.1011  2.7545
  147SAPE  C21616233   3.535   3.666   8.854  0.2005  0.4084 -0.0150
  147SAPE  H16R16234   3.639   3.698   8.835  0.8681 -0.9329  1.1744
  147SAPE  H16S16235   3.476   3.760   8.862  0.3167  0.5766 -1.0018
  147SAPE  C21716236   3.482   3.598   8.716 -0.3371 -0.1935  0.7339
  147SAPE  H17R16237   3.488   3.687   8.650  0.9937 -1.9271 -1.6175
  147SAPE  H17S16238   3.378   3.564   8.735  0.6898 -2.5117  2.6841
  147SAPE  C21816239   3.571   3.480   8.666  0.1008 -0.1881 -0.4896
  147SAPE  H18R16240   3.558   3.401   8.744 -2.7000  2.6533  2.2041
  147SAPE  H18S16241   3.676   3.514   8.654 -0.6501  1.7002 -2.1584
  147SAPE  C21916242   3.532   3.433   8.524  0.4375 -0.0296 -0.0843
  147SAPE  H19R16243   3.421   3.438   8.521  0.1804 -3.4459 -0.2387
  147SAPE  H19S16244   3.552   3.326   8.499 -0.7361 -0.4127  0.5476
  147SAPE  C22016245   3.592   3.515   8.408 -0.6399 -0.1827  0.3625
  147SAPE  H20R16246   3.566   3.623   8.421 -1.2450 -0.4754  1.7139
  147SAPE  H20S16247   3.542   3.480   8.315 -2.5052 -2.3526  2.0663
  147SAPE  H20T16248   3.703   3.503   8.405 -0.7219 -1.3067  1.2291
  147SAPE   C3316249   2.741   3.248  10.293  0.3292  0.2730 -0.0108
  147SAPE   H3X16250   2.718   3.354  10.269  1.9331  0.3719 -1.2487
  147SAPE   H3Y16251   2.708   3.236  10.398  2.2282 -0.6792  0.5245
  147SAPE   C3416252   2.656   3.160  10.203 -0.4984  0.1456  0.1536
  147SAPE   H4X16253   2.550   3.193  10.205 -0.1130  1.7113 -2.0488
  147SAPE   H4Y16254   2.648   3.056  10.241 -0.9902  0.1012 -0.0583
  147SAPE   C3516255   2.707   3.155  10.058 -0.1087  0.0288 -0.2036
  147SAPE   H5X16256   2.642   3.085  10.002 -0.0976  0.3698 -0.6537
  147SAPE   H5Y16257   2.810   3.119  10.040 -0.7386 -1.1542 -1.6811
  147SAPE   C3616258   2.682   3.288   9.983 -0.0920 -0.0229  0.3437
  147SAPE   H6X16259   2.772   3.348  10.006  2.7017 -2.4893 -3.0800
  147SAPE   H6Y16260   2.590   3.339  10.019  1.2532  2.6392  0.2073
  147SAPE   C3716261   2.675   3.263   9.829  0.0869  0.5662  0.0902
  147SAPE   H7X16262   2.631   3.361   9.800  0.0702  0.9386  1.3211
  147SAPE   H7Y16263   2.610   3.180   9.795  1.1362  0.3773 -1.5667
  147SAPE   C3816264   2.809   3.254   9.760 -0.2808 -0.4674  0.1038
  147SAPE   H8X16265   2.867   3.172   9.806  0.6174 -0.8085 -1.5429
  147SAPE   H8Y16266   2.870   3.346   9.770 -3.0968  1.5638 -0.1413
  147SAPE   C3916267   2.793   3.234   9.610 -0.6084  0.0869  0.2706
  147SAPE   H9X16268   2.894   3.253   9.568 -0.6749 -0.0890  0.0352
  147SAPE   H9Y16269   2.726   3.305   9.557 -0.9898 -1.0418 -0.7888
  147SAPE  C31016270   2.743   3.101   9.565 -0.4960 -0.2538  0.3209
  147SAPE  H10X16271   2.633   3.094   9.579 -0.9123  0.5436 -2.0680
  147SAPE  H10Y16272   2.787   3.021   9.628 -0.1983  0.2742  0.7886
  147SAPE  C31116273   2.789   3.074   9.419 -0.0369 -0.3964  0.1805
  147SAPE  H11X16274   2.749   2.980   9.375 -0.2991  0.2963 -1.1201
  147SAPE  H11Y16275   2.898   3.056   9.423 -0.1759 -1.6454 -1.0271
  147SAPE  C31216276   2.737   3.197   9.330  0.4330 -0.1329  0.6177
  147SAPE  H12X16277   2.803   3.286   9.340 -1.7247  1.7926 -1.2691
  147SAPE  H12Y16278   2.634   3.211   9.369  0.8098  2.1699  0.9003
  147SAPE  C31316279   2.732   3.150   9.174 -0.7145  0.9001  0.8633
  147SAPE  H13X16280   2.706   3.227   9.099  0.4169 -0.4968 -1.0319
  147SAPE  H13Y16281   2.648   3.077   9.170 -0.7363  0.8878  1.4231
  147SAPE  C31416282   2.867   3.078   9.127  0.1741 -0.2375 -0.4429
  147SAPE  H14X16283   2.889   2.998   9.200  2.1169  1.4009  0.9014
  147SAPE  H14Y16284   2.946   3.156   9.135  1.0202 -1.1539  0.4078
  147SAPE  C31516285   2.868   3.018   8.991 -0.8452  0.1515 -0.2477
  147SAPE  H15X16286   2.867   3.096   8.912  0.6547 -0.1355 -0.5749
  147SAPE  H15Y16287   2.768   2.976   8.969 -0.7039  0.6928 -2.0749
  147SAPE  C31616288   2.992   2.925   8.980 -0.0600 -0.3511 -0.3629
  147SAPE  H16X16289   2.958   2.823   9.008 -3.1549  0.3763 -1.0544
  147SAPE  H16Y16290   3.076   2.957   9.046  1.2756 -1.3201 -1.5460
  147SAPE  C31716291   3.053   2.914   8.840 -0.1676  0.0272  0.9131
  147SAPE  H17X16292   3.145   2.852   8.850 -0.1083 -0.1313 -0.4286
  147SAPE  H17Y16293   3.095   3.011   8.803  0.2981 -0.6351 -0.3687
  147SAPE  C31816294   2.961   2.846   8.736 -0.1806  0.8874 -0.2457
  147SAPE  H18X16295   3.018   2.823   8.644  0.9835  0.1890  0.6283
  147SAPE  H18Y16296   2.878   2.914   8.704  1.3477  2.3894 -1.1954
  147SAPE  H18Z16297   2.921   2.746   8.762  0.3201  0.5063 -0.9307
  148SAPE     N16298   5.188   5.328  10.446  0.8543 -0.5402 -0.0788
  148SAPE   HN116299   5.254   5.249  10.437  0.8021 -0.3478 -4.1389
  148SAPE   HN216300   5.208   5.388  10.528 -3.0031 -0.1131  0.7762
  148SAPE   HN316301   5.090   5.306  10.473  1.2802 -2.9694 -0.3252
  148SAPE   C1216302   5.224   5.420  10.331  0.8131  0.0630  0.0813
  148SAPE  H12A16303   5.130   5.477  10.317 -1.0233 -2.1687  2.3531
  148SAPE  H12B16304   5.246   5.356  10.242  2.0502 -2.4672  2.0688
  148SAPE   C1116305   5.351   5.514  10.354  0.7476  0.8592  0.2732
  148SAPE  H11A16306   5.361   5.576  10.262  1.7440  2.2031  1.2306
  148SAPE  H11B16307   5.436   5.446  10.376 -0.9532 -1.5393 -0.2489
  148SAPE     P16308   5.432   5.684  10.536  0.5183 -0.5671 -0.0570
  148SAPE   O1316309   5.414   5.687  10.684  0.5776 -0.0917  0.1631
  148SAPE   O1416310   5.567   5.650  10.491 -0.2640  0.3052 -0.0197
  148SAPE   O1216311   5.322   5.584  10.476 -0.2697 -0.4880  0.1391
  148SAPE   O1116312   5.391   5.828  10.487 -0.3441 -0.2051  0.4282
  148SAPE    C116313   5.402   5.859  10.344  0.8388  0.8091 -0.0954
  148SAPE    HA16314   5.429   5.966  10.345 -0.6255  1.2460 -1.5869
  148SAPE    HB16315   5.478   5.800  10.290  1.1127 -0.8965  2.0291
  148SAPE    C216316   5.266   5.858  10.266  0.6229 -0.0936  0.6504
  148SAPE    HS16317   5.211   5.764  10.285  0.1649 -0.3034 -1.5076
  148SAPE   O2116318   5.276   5.886  10.123 -0.1747 -0.3222 -0.0867
  148SAPE   C2116319   5.272   5.778  10.037  0.4446 -0.3662 -0.9538
  148SAPE   O2216320   5.250   5.661  10.069 -0.1182 -0.0618  0.0212
  148SAPE   C2216321   5.297   5.833   9.896  0.2745 -0.4014 -0.3943
  148SAPE   H2R16322   5.201   5.887   9.883  0.3624 -0.5309 -1.7273
  148SAPE   H2S16323   5.393   5.888   9.887 -0.1807  0.1847 -2.1652
  148SAPE    C316324   5.176   5.970  10.329 -0.0181  0.5335 -0.7507
  148SAPE    HX16325   5.225   6.064  10.295  0.5158  0.0573 -1.3182
  148SAPE    HY16326   5.182   5.958  10.440  0.5116  1.5712 -0.6480
  148SAPE   O3116327   5.034   5.962  10.290 -1.3926  0.2434 -0.2406
  148SAPE   C3116328   4.985   6.069  10.238  0.0575 -0.6878  0.6506
  148SAPE   O3216329   5.038   6.180  10.247  0.0873  0.4112  0.1349
  148SAPE   C3216330   4.847   6.040  10.175 -0.1093  0.8479 -0.1533
  148SAPE   H2X16331   4.768   6.089  10.236 -1.7567  2.6606 -3.4418
  148SAPE   H2Y16332   4.832   5.930  10.180  0.5107  0.8125  1.2453
  148SAPE   C2316333   5.296   5.734   9.776  0.4347 -0.5097 -0.3576
  148SAPE   H3R16334   5.210   5.665   9.788  2.0346 -2.5431 -0.0229
  148SAPE   H3S16335   5.383   5.666   9.784 -0.3034 -1.5625 -0.9994
  148SAPE   C2416336   5.308   5.796   9.634  0.3312  1.1510  0.3010
  148SAPE   H4R16337   5.391   5.871   9.636  1.3667  0.2497 -3.0028
  148SAPE   H4S16338   5.217   5.856   9.612  0.5883  0.8095 -1.9121
  148SAPE   C2516339   5.328   5.686   9.531 -0.7584 -1.1268 -0.4520
  148SAPE   H5R16340   5.389   5.602   9.566 -0.1949 -0.2229  0.8367
  148SAPE   C2616341   5.281   5.685   9.404  0.1426 -0.5343 -0.4539
  148SAPE   H6R16342   5.301   5.599   9.338 -1.6272 -0.2309 -1.4678
  148SAPE   C2716343   5.193   5.793   9.345 -0.2099  0.7621  1.0184
  148SAPE   H7R16344   5.114   5.822   9.418  1.0027  1.3804  2.1328
  148SAPE   H7S16345   5.128   5.739   9.273  3.4114 -1.9540 -0.5089
  148SAPE   C2816346   5.252   5.917   9.291 -0.4155  0.5624  0.2589
  148SAPE   H8R16347   5.296   5.986   9.364 -0.1722  0.3038  0.3592
  148SAPE   C2916348   5.264   5.934   9.162 -0.0814 -0.9594  0.8169
  148SAPE   H9R16349   5.296   6.033   9.126 -0.1678 -0.9107  0.8712
  148SAPE  C21016350   5.227   5.843   9.054 -0.1454 -0.8002  0.1695
  148SAPE  H10R16351   5.166   5.903   8.983 -0.0212 -0.0969  0.6456
  148SAPE  H10S16352   5.168   5.754   9.084  0.0464 -1.4009 -1.1645
  148SAPE  C21116353   5.349   5.782   8.998 -0.0970 -0.6380 -0.0128
  148SAPE  H11R16354   5.441   5.782   9.059  0.4332  1.0199 -0.7447
  148SAPE  C21216355   5.370   5.737   8.870  0.8589  0.5383  0.1799
  148SAPE  H12R16356   5.470   5.704   8.838  0.4401 -0.3546 -0.2533
  148SAPE  C21316357   5.260   5.754   8.762 -0.2519  0.3631 -0.2054
  148SAPE  H13R16358   5.274   5.857   8.722  1.5802  0.5365  0.7633
  148SAPE  H13S16359   5.161   5.747   8.812  0.4603  1.6549  1.5099
  148SAPE  C21416360   5.273   5.658   8.654  0.6503 -1.1845  0.1234
  148SAPE  H14R16361   5.340   5.572   8.670  1.6547 -1.2374 -3.5566
  148SAPE  C21516362   5.214   5.666   8.533 -0.1015  0.2822 -0.4505
  148SAPE  H15R16363   5.240   5.596   8.452  0.6704  0.3402 -0.2568
  148SAPE  C21616364   5.113   5.769   8.491 -0.6654  0.1586  0.0851
  148SAPE  H16R16365   5.089   5.823   8.585  0.2367  0.9286 -0.1204
  148SAPE  H16S16366   5.027   5.722   8.438  0.6544 -1.5360 -0.6844
  148SAPE  C21716367   5.176   5.874   8.399  0.1981  0.0303  1.1972
  148SAPE  H17R16368   5.117   5.963   8.371  0.5403 -0.6331 -1.9361
  148SAPE  H17S16369   5.189   5.833   8.297 -0.3091  1.1549  0.6577
  148SAPE  C21816370   5.298   5.944   8.460  0.4954 -0.0362 -0.0268
  148SAPE  H18R16371   5.378   5.875   8.496  0.9945  0.2026 -0.6588
  148SAPE  H18S16372   5.254   5.999   8.545 -2.5128 -2.3669  0.1011
  148SAPE  C21916373   5.380   6.026   8.365  0.4280  0.7163  0.0094
  148SAPE  H19R16374   5.334   6.121   8.331  0.6155  0.5891 -0.6134
  148SAPE  H19S16375   5.408   5.962   8.279 -1.3819 -0.4934  0.2671
  148SAPE  C22016376   5.512   6.074   8.433 -0.7993  0.3326 -0.3433
  148SAPE  H20R16377   5.583   5.991   8.452  2.4134  3.0588  0.3886
  148SAPE  H20S16378   5.484   6.129   8.526 -4.2796 -1.7744  0.0446
  148SAPE  H20T16379   5.571   6.132   8.359 -0.0204  0.8597  0.6623
  148SAPE   C3316380   4.837   6.097  10.028 -0.0448 -0.1132 -0.2575
  148SAPE   H3X16381   4.892   6.193  10.016 -1.1141  0.3839 -1.3591
  148SAPE   H3Y16382   4.730   6.116  10.005  0.1729  0.6217 -0.6961
  148SAPE   C3416383   4.894   6.005   9.914  0.2434 -0.3559 -0.0501
  148SAPE   H4X16384   4.831   5.914   9.921  0.5333 -0.5261  0.3781
  148SAPE   H4Y16385   5.000   5.979   9.936 -0.0784 -2.0994 -0.3849
  148SAPE   C3516386   4.881   6.071   9.775  0.5001 -0.0485 -0.2967
  148SAPE   H5X16387   4.926   6.173   9.776 -0.0559  0.2316 -1.7755
  148SAPE   H5Y16388   4.773   6.090   9.756  0.4846  0.8445  0.5673
  148SAPE   C3616389   4.932   5.981   9.667 -0.0965 -0.3434 -0.0845
  148SAPE   H6X16390   4.873   5.888   9.683 -0.2092 -0.4499 -1.0333
  148SAPE   H6Y16391   5.038   5.958   9.688 -0.3421  1.0389  3.2895
  148SAPE   C3716392   4.910   6.030   9.522  1.2931  0.4317  0.1416
  148SAPE   H7X16393   4.813   6.084   9.515  1.2266  0.2223 -0.6932
  148SAPE   H7Y16394   4.917   5.941   9.456  1.0871 -1.3491  2.3908
  148SAPE   C3816395   5.017   6.125   9.473 -0.1198  0.2846  0.0226
  148SAPE   H8X16396   5.107   6.062   9.487  0.0045 -0.6091 -3.8008
  148SAPE   H8Y16397   5.028   6.211   9.543  2.1561 -0.9751  1.3075
  148SAPE   C3916398   4.994   6.176   9.330  0.4099 -0.6359 -1.0184
  148SAPE   H9X16399   5.092   6.213   9.293  0.8311 -1.5260 -0.8250
  148SAPE   H9Y16400   4.929   6.266   9.336  1.5214  0.1224  0.1570
  148SAPE  C31016401   4.926   6.068   9.236  0.3378  0.0240 -0.4913
  148SAPE  H10X16402   4.832   6.036   9.286  0.8969 -2.6788 -1.0236
  148SAPE  H10Y16403   4.987   5.975   9.229 -0.1912 -0.4597  0.9907
  148SAPE  C31116404   4.900   6.133   9.101 -0.4806 -0.1513  0.5208
  148SAPE  H11X16405   4.986   6.173   9.043 -1.0258 -0.1796 -0.3424
  148SAPE  H11Y16406   4.843   6.221   9.138 -0.4348 -0.3003  0.9502
  148SAPE  C31216407   4.818   6.040   9.013  0.7239  0.4579  1.1965
  148SAPE  H12X16408   4.745   5.986   9.078 -1.0128 -0.7798 -1.6046
  148SAPE  H12Y16409   4.883   5.959   8.975  2.0031  2.3270 -0.8717
  148SAPE  C31316410   4.737   6.109   8.907 -0.0535 -0.4317 -0.2255
  148SAPE  H13X16411   4.677   6.192   8.950  0.7694  0.2901 -0.4246
  148SAPE  H13Y16412   4.657   6.042   8.869 -0.4579 -0.1741  0.1620
  148SAPE  C31416413   4.815   6.147   8.775  0.2222  0.6290 -0.3485
  148SAPE  H14X16414   4.746   6.155   8.688 -2.0439 -0.9050  1.2226
  148SAPE  H14Y16415   4.876   6.056   8.757  0.4328  0.6286  0.3257
  148SAPE  C31516416   4.888   6.284   8.786 -0.0903  0.4367 -0.4349
  148SAPE  H15X16417   4.969   6.272   8.861  0.4376 -0.1720 -1.0735
  148SAPE  H15Y16418   4.816   6.352   8.834  0.3756  0.4591  0.2406
  148SAPE  C31616419   4.942   6.340   8.651  1.0380 -0.3256 -0.0419
  148SAPE  H16X16420   4.877   6.425   8.622  0.2522 -0.7608  0.4329
  148SAPE  H16Y16421   4.954   6.282   8.556 -0.1164 -0.6976  0.0301
  148SAPE  C31716422   5.076   6.421   8.669 -0.4092  0.5261 -0.2504
  148SAPE  H17X16423   5.149   6.347   8.707 -1.3524  0.0250  0.6533
  148SAPE  H17Y16424   5.063   6.506   8.739 -3.4770  0.4000 -0.5319
  148SAPE  C31816425   5.119   6.485   8.538  0.6020 -0.0319 -0.1174
  148SAPE  H18X16426   5.045   6.565   8.517  0.1887 -0.8190 -1.8834
  148SAPE  H18Y16427   5.120   6.418   8.450  1.3685  1.6960 -1.4780
  148SAPE  H18Z16428   5.211   6.547   8.527 -1.9250  4.2109  0.2361
  149SAPE     N16429   6.335   0.813  11.223  0.3771 -0.2824  0.6683
  149SAPE   HN116430   6.408   0.878  11.187 -0.6918  0.8081  0.3998
  149SAPE   HN216431   6.274   0.872  11.283  0.5709  2.4559 -1.5985
  149SAPE   HN316432   6.385   0.743  11.281 -0.2998 -1.3015  0.0449
  149SAPE   C1216433   6.265   0.764  11.103 -0.8064 -0.0338  0.1860
  149SAPE  H12A16434   6.299   0.830  11.020  1.9405 -1.5978 -0.0700
  149SAPE  H12B16435   6.156   0.774  11.122 -0.9217  2.1681 -1.2900
  149SAPE   C1116436   6.308   0.619  11.078  0.1782  0.2954  0.1667
  149SAPE  H11A16437   6.236   0.574  11.007 -0.7572  2.5667 -0.4101
  149SAPE  H11B16438   6.302   0.567  11.176 -0.8928  0.0906  0.0027
  149SAPE     P16439   6.537   0.500  11.020  0.2570  0.1704 -0.3934
  149SAPE   O1316440   6.552   0.478  11.166  0.6011  0.0800  0.4120
  149SAPE   O1416441   6.471   0.400  10.939 -0.3617  0.3503  0.2905
  149SAPE   O1216442   6.438   0.624  11.012 -0.2025 -0.2192  0.5257
  149SAPE   O1116443   6.658   0.566  10.949 -0.0012 -0.4909  0.3478
  149SAPE    C116444   6.734   0.507  10.843 -0.7044  0.1555 -1.3317
  149SAPE    HA16445   6.824   0.458  10.885 -0.7294  2.0613  1.1450
  149SAPE    HB16446   6.672   0.426  10.799 -0.2238 -1.4655  0.8371
  149SAPE    C216447   6.775   0.608  10.740  0.9601 -0.2600  0.1532
  149SAPE    HS16448   6.859   0.673  10.773  0.0119  0.9436  0.2754
  149SAPE   O2116449   6.668   0.699  10.703  0.4350 -0.7736 -0.0265
  149SAPE   C2116450   6.650   0.806  10.777 -0.0762  0.1637  1.2260
  149SAPE   O2216451   6.709   0.838  10.880 -0.1992  0.5570 -0.1001
  149SAPE   C2216452   6.541   0.892  10.715  0.1996  0.4245  0.0969
  149SAPE   H2R16453   6.537   0.855  10.610 -0.0274 -1.6847  0.8010
  149SAPE   H2S16454   6.444   0.880  10.767 -0.6759  1.0072 -1.3416
  149SAPE    C316455   6.825   0.532  10.613 -0.1342  0.0038 -0.1695
  149SAPE    HX16456   6.749   0.457  10.583  1.7125 -1.4729 -1.4174
  149SAPE    HY16457   6.917   0.475  10.639  0.2584  0.8450  0.2881
  149SAPE   O3116458   6.865   0.618  10.507 -0.5114 -0.4371  0.1905
  149SAPE   C3116459   6.876   0.567  10.386  0.4411  0.1379 -0.1140
  149SAPE   O3216460   6.865   0.448  10.359  0.9104  0.2684  0.1135
  149SAPE   C3216461   6.926   0.677  10.294  0.4469 -0.9205 -0.2484
  149SAPE   H2X16462   7.015   0.722  10.342 -0.9219 -0.3581  1.9217
  149SAPE   H2Y16463   6.844   0.751  10.286  1.4696  0.1091 -1.5774
  149SAPE   C2316464   6.574   1.040  10.707 -0.4344 -0.4158 -0.2490
  149SAPE   H3R16465   6.679   1.049  10.672 -0.1916 -0.2328  0.4968
  149SAPE   H3S16466   6.573   1.074  10.813  0.3025 -0.7505 -0.1228
  149SAPE   C2416467   6.468   1.120  10.628 -0.1433  0.3364 -0.0112
  149SAPE   H4R16468   6.474   1.227  10.656 -0.0011  0.2580  0.2659
  149SAPE   H4S16469   6.365   1.082  10.645 -0.6475  2.1030  1.1321
  149SAPE   C2516470   6.499   1.109  10.478 -0.6930  0.4603 -0.2814
  149SAPE   H5R16471   6.519   1.004  10.454 -1.8599  0.3218 -0.7016
  149SAPE   C2616472   6.494   1.208  10.382 -0.7266  0.2249  0.4903
  149SAPE   H6R16473   6.527   1.192  10.278 -1.9908  1.4191 -0.1264
  149SAPE   C2716474   6.464   1.348  10.408 -0.1432 -0.9659  0.6637
  149SAPE   H7R16475   6.533   1.417  10.354 -2.2642  3.0719  2.6230
  149SAPE   H7S16476   6.488   1.382  10.511  0.3081 -0.3948  0.3754
  149SAPE   C2816477   6.330   1.400  10.377  0.3299  0.7559  0.0445
  149SAPE   H8R16478   6.247   1.358  10.434  0.4091  2.7055  1.7111
  149SAPE   C2916479   6.290   1.510  10.305  0.0476 -0.4261  0.7782
  149SAPE   H9R16480   6.186   1.516  10.271  0.4573 -2.2448 -0.9899
  149SAPE  C21016481   6.389   1.586  10.213 -0.2025 -0.1849 -1.3144
  149SAPE  H10R16482   6.483   1.598  10.271 -1.1286  0.5275  0.0906
  149SAPE  H10S16483   6.344   1.684  10.184 -0.6452  0.3871  1.1147
  149SAPE  C21116484   6.426   1.513  10.078  0.1545 -0.0470  0.1847
  149SAPE  H11R16485   6.514   1.447  10.074 -0.0596 -0.2662 -1.3434
  149SAPE  C21216486   6.353   1.507   9.965 -0.0181 -0.6985 -0.2247
  149SAPE  H12R16487   6.393   1.437   9.891 -0.6819 -1.1936 -0.1268
  149SAPE  C21316488   6.214   1.577   9.937 -0.6273 -0.5959 -0.0073
  149SAPE  H13R16489   6.150   1.588  10.027 -1.3015 -2.4697 -0.2198
  149SAPE  H13S16490   6.145   1.514   9.878  0.1643 -0.3382 -1.2405
  149SAPE  C21416491   6.231   1.710   9.868 -0.0192  0.1137 -0.6776
  149SAPE  H14R16492   6.250   1.789   9.942  0.4183 -2.0961  1.7249
  149SAPE  C21516493   6.211   1.735   9.735  0.5595  0.3364  0.2598
  149SAPE  H15R16494   6.235   1.837   9.700  0.9449 -0.1501 -0.9438
  149SAPE  C21616495   6.179   1.627   9.634 -0.6508  0.7411 -0.4313
  149SAPE  H16R16496   6.100   1.665   9.565 -1.1238 -1.9650 -1.5017
  149SAPE  H16S16497   6.124   1.548   9.690 -1.0627 -0.8236 -2.8882
  149SAPE  C21716498   6.282   1.566   9.538 -0.9017 -0.3509  0.0481
  149SAPE  H17R16499   6.224   1.501   9.469 -2.8044  0.8484  0.4571
  149SAPE  H17S16500   6.346   1.496   9.596 -0.6050 -0.2339 -0.1353
  149SAPE  C21816501   6.357   1.653   9.443 -0.5710  0.1196  0.2766
  149SAPE  H18R16502   6.399   1.739   9.498  0.5340 -0.0582 -0.2690
  149SAPE  H18S16503   6.279   1.703   9.382 -1.7312  0.5762  2.0511
  149SAPE  C21916504   6.455   1.581   9.358  0.0928 -0.9321  0.0241
  149SAPE  H19R16505   6.415   1.490   9.309 -1.6530 -0.0283 -0.3007
  149SAPE  H19S16506   6.534   1.546   9.428 -0.0974 -0.3897  0.5102
  149SAPE  C22016507   6.511   1.666   9.252  0.0488 -0.5272  0.0943
  149SAPE  H20R16508   6.428   1.699   9.185 -0.3698 -3.0327 -0.7246
  149SAPE  H20S16509   6.573   1.617   9.174 -2.1242  1.0256 -2.7889
  149SAPE  H20T16510   6.558   1.760   9.287  0.1274 -0.8911  0.9902
  149SAPE   C3316511   6.974   0.621  10.157  0.0338  1.0738 -0.0098
  149SAPE   H3X16512   6.898   0.556  10.108  2.2029 -2.3740  0.8523
  149SAPE   H3Y16513   7.057   0.550  10.177 -0.6164  0.3049  0.0052
  149SAPE   C3416514   7.021   0.716  10.048 -0.8623 -0.2029  0.1563
  149SAPE   H4X16515   7.085   0.798  10.088 -2.6590  0.9855  0.7166
  149SAPE   H4Y16516   6.938   0.778  10.009  1.1164  0.5463 -3.3048
  149SAPE   C3516517   7.088   0.646   9.932  0.1521  0.2024  0.8396
  149SAPE   H5X16518   7.013   0.588   9.874  0.5841  0.3471  0.1272
  149SAPE   H5Y16519   7.170   0.578   9.965  0.8801  0.8313  0.3681
  149SAPE   C3616520   7.167   0.741   9.826 -0.4985 -0.2739  0.5317
  149SAPE   H6X16521   7.245   0.783   9.894  0.9242  1.8134 -2.1675
  149SAPE   H6Y16522   7.099   0.823   9.794 -0.6311 -0.4233  0.4293
  149SAPE   C3716523   7.224   0.663   9.714  0.4656  0.3575  0.5316
  149SAPE   H7X16524   7.141   0.615   9.658  0.5093 -1.0460  1.6321
  149SAPE   H7Y16525   7.287   0.586   9.763  2.9514  0.8159 -1.7056
  149SAPE   C3816526   7.298   0.726   9.598  0.0611 -0.3276 -0.1291
  149SAPE   H8X16527   7.317   0.662   9.509 -0.4113 -0.9561  0.2182
  149SAPE   H8Y16528   7.393   0.778   9.623 -0.2863  1.0183 -1.4254
  149SAPE   C3916529   7.214   0.836   9.525 -0.2387 -0.7858 -0.6103
  149SAPE   H9X16530   7.275   0.893   9.452 -1.1267  0.4792 -0.4039
  149SAPE   H9Y16531   7.174   0.902   9.605 -2.4567 -4.3543  1.4955
  149SAPE  C31016532   7.094   0.783   9.453 -0.4778  0.7773  0.2812
  149SAPE  H10X16533   7.015   0.860   9.450 -2.1810 -0.8987  0.0697
  149SAPE  H10Y16534   7.042   0.700   9.506  1.1890  0.3058  1.2393
  149SAPE  C31116535   7.124   0.749   9.298  0.7304  0.2126 -0.1323
  149SAPE  H11X16536   7.178   0.654   9.278 -0.9136 -1.0539  1.1193
  149SAPE  H11Y16537   7.189   0.824   9.248  2.9084 -1.0437  0.7048
  149SAPE  C31216538   6.988   0.750   9.229  0.2597 -0.1999  0.7951
  149SAPE  H12X16539   6.924   0.837   9.253  0.4728  0.2403 -0.2129
  149SAPE  H12Y16540   6.926   0.663   9.261  1.8871 -1.3197  1.0410
  149SAPE  C31316541   7.004   0.742   9.069  0.1772  0.5586  0.3357
  149SAPE  H13X16542   7.057   0.645   9.059 -0.1714  0.1297  2.2193
  149SAPE  H13Y16543   7.066   0.830   9.041 -1.2225  1.3454 -0.3910
  149SAPE  C31416544   6.877   0.724   8.985 -0.5688  0.4852 -0.0371
  149SAPE  H14X16545   6.818   0.818   8.991 -1.1048  0.2635 -1.5474
  149SAPE  H14Y16546   6.806   0.650   9.030 -2.9512  1.4053 -2.0667
  149SAPE  C31516547   6.915   0.686   8.840  0.6193  0.3765 -0.0805
  149SAPE  H15X16548   6.991   0.606   8.853 -0.8490 -0.7561  2.2414
  149SAPE  H15Y16549   6.947   0.780   8.789 -0.2278  0.1864 -0.9812
  149SAPE  C31616550   6.793   0.626   8.758 -1.0843 -0.1978 -0.0413
  149SAPE  H16X16551   6.698   0.674   8.790 -0.6748  1.5294 -1.3056
  149SAPE  H16Y16552   6.783   0.519   8.785 -0.2253 -0.1648  0.4358
  149SAPE  C31716553   6.818   0.638   8.607  0.5505  0.2876  0.9330
  149SAPE  H17X16554   6.815   0.744   8.574  0.7587  0.3114  0.9881
  149SAPE  H17Y16555   6.731   0.592   8.557  0.2789  2.3733 -0.6423
  149SAPE  C31816556   6.945   0.569   8.559  0.3656 -0.5684 -0.2952
  149SAPE  H18X16557   7.039   0.628   8.568 -0.4419  1.1435 -2.1446
  149SAPE  H18Y16558   6.939   0.565   8.448 -1.5764 -0.0148 -0.2546
  149SAPE  H18Z16559   6.948   0.463   8.592 -1.1788 -1.0061 -1.4156
  150SAPE     N16560   0.998   0.585  11.015  0.1606 -0.1432  0.7473
  150SAPE   HN116561   0.921   0.519  11.038  1.0647 -0.9951  1.3760
  150SAPE   HN216562   0.957   0.649  10.944  1.5243 -0.1028 -0.0349
  150SAPE   HN316563   1.067   0.524  10.966 -2.9012 -2.2365 -1.3793
  150SAPE   C1216564   1.054   0.662  11.125 -0.0902 -0.2454 -0.5304
  150SAPE  H12A16565   1.142   0.601  11.156 -0.6884 -1.0244 -0.3447
  150SAPE  H12B16566   0.987   0.671  11.213  0.6970  3.0423 -0.1287
  150SAPE   C1116567   1.092   0.794  11.074 -0.8563 -0.5234  0.0278
  150SAPE  H11A16568   1.151   0.784  10.980 -0.5892 -2.2097  0.3300
  150SAPE  H11B16569   1.156   0.845  11.149  0.6561 -0.0589 -1.5229
  150SAPE     P16570   0.933   0.996  11.141 -0.1721 -0.4016 -0.0660
  150SAPE   O1316571   0.814   1.064  11.090 -0.6815 -0.4411  0.5189
  150SAPE   O1416572   0.925   0.937  11.279 -0.5468 -0.0493  0.3100
  150SAPE   O1216573   0.981   0.875  11.046  0.3026  0.3202 -0.0603
  150SAPE   O1116574   1.052   1.098  11.141 -0.4134  0.7723  0.2764
  150SAPE    C116575   1.056   1.224  11.084  0.4703 -0.2727  0.1785
  150SAPE    HA16576   0.954   1.266  11.073  0.3500  0.0208  2.1070
  150SAPE    HB16577   1.102   1.290  11.161  1.0013 -1.2606  0.7248
  150SAPE    C216578   1.132   1.218  10.945  0.8102  0.1854  0.3757
  150SAPE    HS16579   1.158   1.318  10.904  1.7570  0.6719  2.0547
  150SAPE   O2116580   1.051   1.141  10.856 -0.8049 -0.0502 -0.2516
  150SAPE   C2116581   0.944   1.199  10.809 -0.7120 -0.1024 -0.0042
  150SAPE   O2216582   0.915   1.318  10.826  0.5639  0.6773 -0.1881
  150SAPE   C2216583   0.870   1.085  10.733 -0.1194  0.1078  0.2378
  150SAPE   H2R16584   0.953   1.018  10.702 -0.1159  0.7965 -1.3477
  150SAPE   H2S16585   0.799   1.032  10.800 -0.5198  0.7544  0.3374
  150SAPE    C316586   1.268   1.146  10.961  0.1326  0.1587 -0.5281
  150SAPE    HX16587   1.254   1.038  10.983 -1.6704 -0.1197 -2.7223
  150SAPE    HY16588   1.305   1.205  11.047  1.3565  0.6953 -1.4078
  150SAPE   O3116589   1.352   1.167  10.851 -0.0365  0.3378 -0.9178
  150SAPE   C3116590   1.371   1.057  10.776 -0.6478 -0.0984  1.2839
  150SAPE   O3216591   1.299   0.955  10.782  0.3365  0.0614 -0.2798
  150SAPE   C3216592   1.490   1.086  10.679 -0.3661 -0.5457 -0.2561
  150SAPE   H2X16593   1.569   1.143  10.731 -0.1531  0.7535 -1.9165
  150SAPE   H2Y16594   1.435   1.157  10.614  0.8360 -0.2039 -0.9351
  150SAPE   C2316595   0.790   1.133  10.607  0.8119  0.1471 -0.0073
  150SAPE   H3R16596   0.693   1.179  10.636  0.0821 -1.5233  0.2844
  150SAPE   H3S16597   0.764   1.039  10.555  1.6906  1.0936 -2.2853
  150SAPE   C2416598   0.867   1.229  10.511 -0.4848  1.0194 -0.2363
  150SAPE   H4R16599   0.909   1.309  10.576  1.4024  1.3102 -1.7269
  150SAPE   H4S16600   0.793   1.269  10.437 -2.4218 -1.3220  0.2895
  150SAPE   C2516601   0.982   1.169  10.436 -0.0561 -0.0370 -0.4572
  150SAPE   H5R16602   1.058   1.109  10.487  0.2552  1.0468  0.3799
  150SAPE   C2616603   0.991   1.174  10.301 -0.6259  0.2427  0.1102
  150SAPE   H6R16604   1.080   1.135  10.250 -0.5080  1.2022 -0.4586
  150SAPE   C2716605   0.896   1.237  10.199 -0.0745 -0.5707 -0.6873
  150SAPE   H7R16606   0.934   1.339  10.180  1.5027 -0.3006  3.0445
  150SAPE   H7S16607   0.795   1.258  10.241  0.1297  0.5588 -0.7287
  150SAPE   C2816608   0.882   1.155  10.079 -0.8306  0.0522  0.0496
  150SAPE   H8R16609   0.961   1.078  10.070  0.2241  1.0547  0.5129
  150SAPE   C2916610   0.766   1.143  10.006  0.2971  0.0974  0.6932
  150SAPE   H9R16611   0.767   1.069   9.925  1.4840 -0.5949  1.3124
  150SAPE  C21016612   0.632   1.211  10.024  0.6239  0.0681 -0.0464
  150SAPE  H10R16613   0.635   1.257  10.125 -0.7893  0.1198 -0.0164
  150SAPE  H10S16614   0.550   1.137  10.017  2.2187 -2.0522  1.8393
  150SAPE  C21116615   0.614   1.329   9.932 -0.6083 -0.4076 -0.1274
  150SAPE  H11R16616   0.634   1.428   9.974  0.9913 -0.2403 -1.1862
  150SAPE  C21216617   0.570   1.326   9.807 -0.1209  0.2480 -0.5764
  150SAPE  H12R16618   0.568   1.426   9.760  3.1393  1.8189  2.2166
  150SAPE  C21316619   0.528   1.213   9.710  0.4606 -0.5269 -0.3966
  150SAPE  H13R16620   0.540   1.261   9.610 -3.2865  3.0889  0.5937
  150SAPE  H13S16621   0.425   1.183   9.739  0.5629  1.5002  2.5048
  150SAPE  C21416622   0.604   1.086   9.698  0.1437  0.7244  0.3759
  150SAPE  H14R16623   0.572   0.997   9.754  1.3636 -1.0393 -1.5750
  150SAPE  C21516624   0.721   1.065   9.632 -0.4315 -0.2708 -0.1282
  150SAPE  H15R16625   0.774   0.972   9.653 -0.9407 -0.2035  1.5665
  150SAPE  C21616626   0.790   1.170   9.555 -0.4067  0.0571 -0.2488
  150SAPE  H16R16627   0.892   1.183   9.595 -0.7030  0.9877  0.2432
  150SAPE  H16S16628   0.751   1.273   9.571 -0.1793 -0.1629  2.0843
  150SAPE  C21716629   0.789   1.136   9.405  0.5715  0.0471  0.7026
  150SAPE  H17R16630   0.686   1.106   9.379  1.0661 -1.4066  0.3562
  150SAPE  H17S16631   0.858   1.051   9.384 -0.0460 -0.2565 -0.1214
  150SAPE  C21816632   0.825   1.252   9.316 -0.3174 -0.6041  0.4130
  150SAPE  H18R16633   0.743   1.324   9.338 -0.3922 -0.2995 -0.7817
  150SAPE  H18S16634   0.819   1.219   9.210 -0.0261 -0.0609  0.2181
  150SAPE  C21916635   0.961   1.315   9.328  0.0874  0.7156 -0.5879
  150SAPE  H19R16636   0.975   1.363   9.427 -0.2165 -0.9375  0.2891
  150SAPE  H19S16637   0.982   1.395   9.253  1.0013  0.4772 -0.6030
  150SAPE  C22016638   1.079   1.213   9.312 -0.1235 -0.3701 -0.0655
  150SAPE  H20R16639   1.178   1.255   9.340 -0.5818  0.7674 -0.1122
  150SAPE  H20S16640   1.087   1.180   9.206  1.0541 -0.7443  0.1185
  150SAPE  H20T16641   1.060   1.136   9.390  1.4849 -0.7647 -0.0183
  150SAPE   C3316642   1.541   0.964  10.605 -0.0705  0.0811  0.6967
  150SAPE   H3X16643   1.470   0.880  10.619 -0.7852  0.2125 -1.7403
  150SAPE   H3Y16644   1.635   0.934  10.656  1.6927  2.1440 -1.1445
  150SAPE   C3416645   1.585   0.978  10.460  0.0257 -0.7572 -0.6565
  150SAPE   H4X16646   1.601   0.873  10.428  0.7239 -0.5160 -1.1299
  150SAPE   H4Y16647   1.684   1.030  10.456 -0.9905  1.3890  0.3870
  150SAPE   C3516648   1.481   1.054  10.365 -0.4221 -0.1210  0.5963
  150SAPE   H5X16649   1.482   1.157  10.405 -2.5358 -0.0107  0.4617
  150SAPE   H5Y16650   1.376   1.019  10.377 -0.0056 -1.4364  0.5902
  150SAPE   C3616651   1.525   1.055  10.209 -0.2837  0.1089 -0.2970
  150SAPE   H6X16652   1.629   1.093  10.223 -0.4266  0.0652  1.0878
  150SAPE   H6Y16653   1.472   1.133  10.151  0.4413  1.6954  1.0702
  150SAPE   C3716654   1.540   0.924  10.136  0.7483  0.8363 -0.0421
  150SAPE   H7X16655   1.434   0.890  10.136  0.8090  0.5436  1.5198
  150SAPE   H7Y16656   1.604   0.849  10.187  1.0501 -0.2797 -1.9925
  150SAPE   C3816657   1.595   0.947   9.992 -0.1583  0.4982  0.2353
  150SAPE   H8X16658   1.704   0.962  10.005  0.2070 -2.5133  1.5323
  150SAPE   H8Y16659   1.550   1.043   9.957  0.8985  0.7147 -0.5636
  150SAPE   C3916660   1.574   0.822   9.899  1.0364 -0.2501  0.3688
  150SAPE   H9X16661   1.464   0.811   9.893  0.5996  3.2569 -0.6480
  150SAPE   H9Y16662   1.617   0.735   9.953  0.4880 -0.9683 -0.3464
  150SAPE  C31016663   1.630   0.833   9.763  0.2898  0.0814  0.4082
  150SAPE  H10X16664   1.741   0.829   9.769  0.3983 -1.2483 -1.5054
  150SAPE  H10Y16665   1.607   0.927   9.709 -0.7533  0.1665  0.9762
  150SAPE  C31116666   1.589   0.723   9.667 -0.2413  0.5109 -0.1250
  150SAPE  H11X16667   1.479   0.716   9.681 -0.2905 -0.8319 -1.0113
  150SAPE  H11Y16668   1.632   0.628   9.706 -0.0784 -0.5145 -2.5818
  150SAPE  C31216669   1.623   0.751   9.523  0.3998 -0.4306  0.3407
  150SAPE  H12X16670   1.732   0.774   9.521  0.5230 -0.7029  2.1352
  150SAPE  H12Y16671   1.574   0.846   9.495 -0.0980  0.2638  3.2050
  150SAPE  C31316672   1.573   0.637   9.432  0.3668 -0.1836 -0.2640
  150SAPE  H13X16673   1.465   0.620   9.452 -0.2308  2.7533 -0.4228
  150SAPE  H13Y16674   1.620   0.541   9.462 -0.3078 -0.4026  0.1220
  150SAPE  C31416675   1.608   0.654   9.280 -0.1159  0.6204  0.7501
  150SAPE  H14X16676   1.624   0.553   9.238 -2.3321  0.7177 -0.5366
  150SAPE  H14Y16677   1.701   0.714   9.282  0.0467  0.3582  1.0067
  150SAPE  C31516678   1.518   0.739   9.191  0.0054  0.5306 -0.5549
  150SAPE  H15X16679   1.494   0.836   9.239  1.7203  0.5658  0.2809
  150SAPE  H15Y16680   1.418   0.692   9.199  0.4953 -0.3752  0.4983
  150SAPE  C31616681   1.565   0.761   9.048  0.2829 -0.4702 -0.2106
  150SAPE  H16X16682   1.536   0.666   8.997  1.0600 -1.9071  1.8948
  150SAPE  H16Y16683   1.676   0.767   9.041  0.2307  2.1902  0.2859
  150SAPE  C31716684   1.502   0.878   8.971 -0.6504 -0.0955 -0.0200
  150SAPE  H17X16685   1.516   0.968   9.035  1.4624  1.9100 -2.9926
  150SAPE  H17Y16686   1.391   0.866   8.973 -0.8697  1.6193  2.0064
  150SAPE  C31816687   1.552   0.882   8.831  0.6009 -0.7181  0.7760
  150SAPE  H18X16688   1.662   0.869   8.827  0.6046 -0.5673  0.3765
  150SAPE  H18Y16689   1.526   0.978   8.783  3.0838  0.0231  0.7722
  150SAPE  H18Z16690   1.514   0.793   8.777 -0.6462 -0.8660  1.8328
  151SAPE     N16691   5.091   4.332  10.792  0.3002  0.2634 -0.0682
  151SAPE   HN116692   5.160   4.258  10.816  1.2404  1.5352  1.4078
  151SAPE   HN216693   5.140   4.422  10.812  1.0666  0.1858 -1.4727
  151SAPE   HN316694   5.005   4.314  10.848  0.0406  0.5464 -0.3705
  151SAPE   C1216695   5.053   4.344  10.648 -0.3008 -0.4514  0.0452
  151SAPE  H12A16696   5.135   4.387  10.587  2.0090  0.3214  3.4186
  151SAPE  H12B16697   4.970   4.417  10.643  0.4909  0.3868 -1.2993
  151SAPE   C1116698   4.997   4.215  10.587  0.5139 -0.5188 -0.5787
  151SAPE  H11A16699   4.968   4.232  10.480  0.3748 -2.7525 -0.9359
  151SAPE  H11B16700   4.904   4.197  10.645  1.5760 -0.2495  1.2701
  151SAPE     P16701   5.190   4.073  10.491 -0.4832  0.2676 -0.3720
  151SAPE   O1316702   5.294   4.177  10.500  0.1474 -0.0791 -0.0058
  151SAPE   O1416703   5.244   3.934  10.511 -0.3998 -0.0500  0.0873
  151SAPE   O1216704   5.081   4.099  10.599  0.2742  0.2173 -0.2424
  151SAPE   O1116705   5.118   4.087  10.352  0.4768 -0.5372 -0.2549
  151SAPE    C116706   5.128   3.983  10.254 -0.0019  0.6092  0.1148
  151SAPE    HA16707   5.200   4.015  10.175 -0.7413  2.0151 -0.0248
  151SAPE    HB16708   5.151   3.880  10.290  1.6044  0.8479 -0.1610
  151SAPE    C216709   4.996   3.973  10.175 -0.2974  0.2376 -0.1434
  151SAPE    HS16710   5.020   3.899  10.095  0.8753  1.4448 -0.9340
  151SAPE   O2116711   4.975   4.099  10.115 -0.2156 -0.0411  0.8066
  151SAPE   C2116712   4.913   4.093   9.987 -0.2620  0.8641 -0.2817
  151SAPE   O2216713   4.877   3.985   9.940 -0.4234  0.2617 -0.7408
  151SAPE   C2216714   4.883   4.225   9.921 -0.3143  0.5703  0.5159
  151SAPE   H2R16715   4.856   4.189   9.819  1.1870 -0.8943  0.5881
  151SAPE   H2S16716   4.794   4.252   9.981 -0.5732 -0.9198  0.8482
  151SAPE    C316717   4.875   3.921  10.261 -0.0711  0.1673  0.4650
  151SAPE    HX16718   4.863   3.991  10.347  2.9939  1.5937 -0.1257
  151SAPE    HY16719   4.904   3.818  10.289 -2.4036 -0.8100 -0.4555
  151SAPE   O3116720   4.756   3.911  10.186  0.7201 -0.0251 -0.1229
  151SAPE   C3116721   4.733   3.793  10.124 -0.6237  0.4153 -0.6214
  151SAPE   O3216722   4.816   3.698  10.123  0.3483  0.2864  0.2611
  151SAPE   C3216723   4.597   3.795  10.061  0.2586  0.4094  0.6611
  151SAPE   H2X16724   4.564   3.901  10.049 -0.8140 -0.1052 -1.1954
  151SAPE   H2Y16725   4.530   3.767  10.145 -2.3219  1.6908 -0.8338
  151SAPE   C2316726   4.994   4.328   9.933  0.3046 -0.4632 -0.3412
  151SAPE   H3R16727   5.005   4.360  10.039  0.1009  1.8418 -0.9660
  151SAPE   H3S16728   4.957   4.417   9.878 -2.6212 -0.2924  1.6450
  151SAPE   C2416729   5.131   4.283   9.877 -0.2162  0.2573  0.0184
  151SAPE   H4R16730   5.114   4.210   9.794  0.9962 -1.6383  1.3775
  151SAPE   H4S16731   5.188   4.225   9.951  1.8628  0.3957 -1.3923
  151SAPE   C2516732   5.223   4.387   9.832 -0.1366  0.0506 -0.0072
  151SAPE   H5R16733   5.283   4.433   9.913  1.2940 -0.0191 -0.9979
  151SAPE   C2616734   5.226   4.435   9.707 -0.1272 -0.3261 -0.1428
  151SAPE   H6R16735   5.299   4.511   9.677 -1.8323 -0.3342 -5.2886
  151SAPE   C2716736   5.154   4.386   9.588  0.1179 -0.0131 -0.0661
  151SAPE   H7R16737   5.057   4.353   9.633  1.4325 -1.5396  1.8220
  151SAPE   H7S16738   5.196   4.296   9.539  0.9889  0.8297 -0.9126
  151SAPE   C2816739   5.120   4.492   9.495  0.0816  0.3150 -0.5748
  151SAPE   H8R16740   5.077   4.579   9.547 -0.0302  0.1478 -0.3864
  151SAPE   C2916741   5.125   4.496   9.364  0.6552  0.1665 -0.0806
  151SAPE   H9R16742   5.094   4.585   9.307 -0.3335 -0.1261 -0.0087
  151SAPE  C21016743   5.169   4.374   9.284 -0.1921  0.5911  0.8803
  151SAPE  H10R16744   5.083   4.306   9.266 -0.4931  0.8722  1.2376
  151SAPE  H10S16745   5.229   4.304   9.346  1.5726 -0.8689 -2.2529
  151SAPE  C21116746   5.244   4.411   9.157  0.0973  0.4319 -0.8611
  151SAPE  H11R16747   5.351   4.386   9.156  0.0361  0.0299  0.5401
  151SAPE  C21216748   5.194   4.453   9.042 -0.3290 -0.9181 -0.2771
  151SAPE  H12R16749   5.258   4.478   8.956 -0.7152 -0.1503 -0.3500
  151SAPE  C21316750   5.046   4.480   9.014 -0.3331  0.3319  0.4038
  151SAPE  H13R16751   4.985   4.456   9.104  2.4201 -4.2869  1.3529
  151SAPE  H13S16752   5.009   4.415   8.932  0.2106  0.2112  0.2499
  151SAPE  C21416753   5.028   4.622   8.965 -0.5517  0.3519  0.5263
  151SAPE  H14R16754   5.026   4.684   9.056 -2.1439 -0.6611  1.2250
  151SAPE  C21516755   5.034   4.671   8.839 -0.4244 -0.2453 -0.7276
  151SAPE  H15R16756   5.041   4.780   8.825  1.2443 -0.0056  1.3085
  151SAPE  C21616757   5.056   4.593   8.716 -0.0866  1.2567 -0.4587
  151SAPE  H16R16758   5.043   4.485   8.740 -3.2307  1.5650 -0.3784
  151SAPE  H16S16759   5.158   4.619   8.680  0.1592 -0.6377 -1.2511
  151SAPE  C21716760   4.972   4.620   8.591 -0.1471 -0.8330 -0.6403
  151SAPE  H17R16761   4.870   4.600   8.629 -0.7591  0.8979 -1.2773
  151SAPE  H17S16762   5.001   4.550   8.510  0.3879 -0.3292 -0.8952
  151SAPE  C21816763   4.998   4.764   8.545  0.3456 -0.4870  0.2220
  151SAPE  H18R16764   5.107   4.782   8.553  0.4310  0.3197 -2.1283
  151SAPE  H18S16765   4.949   4.826   8.623 -3.0489 -2.8798  0.2483
  151SAPE  C21916766   4.955   4.796   8.407  0.0597 -0.5787  0.8785
  151SAPE  H19R16767   4.844   4.805   8.404  0.1086 -0.3366 -0.7125
  151SAPE  H19S16768   4.972   4.721   8.327 -0.7565  0.1249  0.0267
  151SAPE  C22016769   4.993   4.927   8.348 -1.1245  0.6662  0.7148
  151SAPE  H20R16770   4.987   5.008   8.424  0.6776 -0.0672  1.7097
  151SAPE  H20S16771   4.947   4.951   8.250  0.5294  0.4156 -0.1523
  151SAPE  H20T16772   5.103   4.930   8.332 -0.8289  4.4544  2.3755
  151SAPE   C3316773   4.584   3.711   9.934  0.0459  0.5138 -0.4440
  151SAPE   H3X16774   4.483   3.695   9.890  0.8871 -0.8564 -2.0206
  151SAPE   H3Y16775   4.623   3.613   9.968  3.2675  1.4523 -1.0505
  151SAPE   C3416776   4.667   3.768   9.827 -0.3340 -0.3806  0.1077
  151SAPE   H4X16777   4.776   3.757   9.846  0.5352  2.0718 -2.6853
  151SAPE   H4Y16778   4.655   3.878   9.825  0.3896 -0.2631  1.1821
  151SAPE   C3516779   4.620   3.723   9.684 -0.9772  0.1504  0.3009
  151SAPE   H5X16780   4.670   3.782   9.604 -0.1017 -2.4506 -1.2046
  151SAPE   H5Y16781   4.513   3.752   9.677 -0.3941  2.5691  0.5916
  151SAPE   C3616782   4.646   3.571   9.660 -0.2369 -0.1285  0.5352
  151SAPE   H6X16783   4.604   3.513   9.745  0.9914 -0.7577  0.7350
  151SAPE   H6Y16784   4.755   3.551   9.653 -0.2221  0.1946 -0.1903
  151SAPE   C3716785   4.572   3.530   9.527  0.8601  0.0170  0.1062
  151SAPE   H7X16786   4.567   3.621   9.462  1.3784 -0.3441 -0.4533
  151SAPE   H7Y16787   4.471   3.489   9.548  1.5827 -1.1425  1.4950
  151SAPE   C3816788   4.642   3.422   9.447 -0.5940  0.3163 -0.6518
  151SAPE   H8X16789   4.649   3.326   9.503  1.2407  0.5702 -0.3853
  151SAPE   H8Y16790   4.747   3.451   9.428  0.4189 -0.7455  2.6611
  151SAPE   C3916791   4.572   3.394   9.313 -0.1436 -0.2696  0.2164
  151SAPE   H9X16792   4.505   3.477   9.282  1.0624  0.5305 -0.3399
  151SAPE   H9Y16793   4.526   3.293   9.320 -0.1088 -0.5505 -2.4416
  151SAPE  C31016794   4.676   3.379   9.199  0.3069  0.5767  0.3885
  151SAPE  H10X16795   4.738   3.290   9.223 -1.5791 -1.1985 -1.0162
  151SAPE  H10Y16796   4.728   3.478   9.194 -1.3334  1.5217  1.2194
  151SAPE  C31116797   4.618   3.350   9.063  0.3548 -0.9179 -0.0155
  151SAPE  H11X16798   4.597   3.444   9.008 -0.5941 -0.9990  0.1971
  151SAPE  H11Y16799   4.527   3.287   9.069 -0.3363  0.0306 -0.2822
  151SAPE  C31216800   4.711   3.278   8.968 -0.0189  0.1386 -0.0690
  151SAPE  H12X16801   4.721   3.178   9.017 -0.4559  0.1406  0.0297
  151SAPE  H12Y16802   4.812   3.323   8.977 -0.2017  0.1489  2.7190
  151SAPE  C31316803   4.655   3.247   8.832 -0.3238 -0.0790 -0.3386
  151SAPE  H13X16804   4.669   3.335   8.765 -1.1496  0.7200  0.5155
  151SAPE  H13Y16805   4.551   3.208   8.836 -0.5851  0.6752  1.8775
  151SAPE  C31416806   4.729   3.133   8.763 -0.4095  0.3341 -0.5632
  151SAPE  H14X16807   4.727   3.043   8.828  1.5288 -0.7060 -1.8543
  151SAPE  H14Y16808   4.835   3.164   8.750 -0.6911  2.1879  1.0601
  151SAPE  C31516809   4.670   3.096   8.622  0.1319 -0.3338  0.3855
  151SAPE  H15X16810   4.697   3.174   8.547  1.6254  1.7077  2.8866
  151SAPE  H15Y16811   4.559   3.098   8.633 -0.0030  3.3136 -0.3355
  151SAPE  C31616812   4.720   2.957   8.579 -0.2268  0.4399  0.4041
  151SAPE  H16X16813   4.828   2.965   8.606 -0.6672  0.2964  2.3809
  151SAPE  H16Y16814   4.711   2.939   8.470  1.1064 -0.7176  0.4564
  151SAPE  C31716815   4.647   2.849   8.648  0.3091  0.0681  0.2094
  151SAPE  H17X16816   4.538   2.869   8.636  0.4812  2.3993  2.0771
  151SAPE  H17Y16817   4.653   2.857   8.758 -1.6731 -0.8548  0.4291
  151SAPE  C31816818   4.708   2.722   8.610  0.5817  0.2497 -0.0747
  151SAPE  H18X16819   4.645   2.639   8.648 -0.7517  0.7769 -1.0732
  151SAPE  H18Y16820   4.816   2.717   8.637  0.2605 -0.2021  1.1947
  151SAPE  H18Z16821   4.711   2.705   8.500 -1.3995  1.5363 -0.3899
  152SAPE     N16822   5.861   3.982  10.699  0.5633 -0.2475 -0.2249
  152SAPE   HN116823   5.964   3.992  10.698  0.4380  1.1467 -0.8161
  152SAPE   HN216824   5.817   3.997  10.606  1.0291 -0.1880 -0.4356
  152SAPE   HN316825   5.835   4.053  10.770  0.1616  0.5417 -1.1393
  152SAPE   C1216826   5.839   3.840  10.758  0.4458 -0.1820 -0.4091
  152SAPE  H12A16827   5.729   3.827  10.764  0.4194  0.4315  3.4080
  152SAPE  H12B16828   5.884   3.852  10.859 -1.6107 -0.3523  0.5859
  152SAPE   C1116829   5.907   3.729  10.679  0.5567 -0.1699 -0.5006
  152SAPE  H11A16830   5.846   3.707  10.589  0.8658  0.7234 -0.9401
  152SAPE  H11B16831   5.921   3.636  10.739 -2.0517 -0.6029 -0.4655
  152SAPE     P16832   6.103   3.751  10.502 -0.1524 -0.3202  0.1660
  152SAPE   O1316833   6.058   3.862  10.421  0.7893 -0.1803 -0.3815
  152SAPE   O1416834   6.252   3.731  10.497  0.2251  0.8461 -0.2558
  152SAPE   O1216835   6.050   3.761  10.654 -0.2712  0.1129  0.0430
  152SAPE   O1116836   6.023   3.630  10.456  0.1900  0.0280  0.1640
  152SAPE    C116837   6.052   3.499  10.498 -0.2592  0.3973 -0.2978
  152SAPE    HA16838   6.103   3.504  10.597  1.5464  2.1456 -1.2453
  152SAPE    HB16839   5.959   3.439  10.509  1.8007 -2.9322  0.3661
  152SAPE    C216840   6.151   3.425  10.401 -0.0783 -0.2234 -1.0402
  152SAPE    HS16841   6.244   3.485  10.402  1.3038 -2.2376  1.1832
  152SAPE   O2116842   6.102   3.427  10.267  0.6818  0.2142  0.4731
  152SAPE   C2116843   6.125   3.513  10.175 -0.3210  0.6619 -0.1079
  152SAPE   O2216844   6.195   3.614  10.187 -0.0134  0.8638  0.6508
  152SAPE   C2216845   6.050   3.462  10.051 -0.6920 -0.2710  0.4460
  152SAPE   H2R16846   6.054   3.351  10.040 -0.6065 -0.1975 -0.3143
  152SAPE   H2S16847   5.941   3.482  10.059 -1.2190 -2.0528 -1.3750
  152SAPE    C316848   6.183   3.281  10.446  0.0134 -0.2698  0.5038
  152SAPE    HX16849   6.096   3.216  10.424 -0.3947  0.2603  0.5211
  152SAPE    HY16850   6.206   3.273  10.555  0.1961  1.5432  0.6375
  152SAPE   O3116851   6.289   3.235  10.358  0.3937  0.4893 -0.1806
  152SAPE   C3116852   6.403   3.206  10.419 -0.0772  0.3717 -0.2143
  152SAPE   O3216853   6.427   3.217  10.539  0.4343 -0.6805 -0.0252
  152SAPE   C3216854   6.502   3.171  10.311  0.1140 -0.5562 -0.2434
  152SAPE   H2X16855   6.608   3.170  10.345  0.3334 -0.1614 -0.8858
  152SAPE   H2Y16856   6.491   3.260  10.245  0.9453 -1.0300 -1.0519
  152SAPE   C2316857   6.090   3.531   9.920  0.0104  0.5286 -0.7886
  152SAPE   H3R16858   6.200   3.541   9.914 -0.1129  3.3220  0.0187
  152SAPE   H3S16859   6.070   3.641   9.918  2.5138  1.0531 -0.5116
  152SAPE   C2416860   6.029   3.478   9.788  0.0711 -0.9032  0.1372
  152SAPE   H4R16861   6.008   3.559   9.715  1.6156  0.3822  1.0455
  152SAPE   H4S16862   5.934   3.425   9.811  0.3206 -0.9862  1.0347
  152SAPE   C2516863   6.116   3.372   9.729  0.9069  0.0887  0.1447
  152SAPE   H5R16864   6.193   3.341   9.802  0.2781 -1.9185  0.0315
  152SAPE   C2616865   6.111   3.325   9.600  0.1793  0.1353  0.1204
  152SAPE   H6R16866   6.177   3.241   9.575 -0.3229  0.0287 -0.8697
  152SAPE   C2716867   6.025   3.371   9.495 -0.2705  0.2326 -0.5397
  152SAPE   H7R16868   6.071   3.467   9.463  1.1096  0.3546  1.6224
  152SAPE   H7S16869   5.927   3.404   9.536  0.5997 -0.9591  2.8105
  152SAPE   C2816870   5.988   3.272   9.387 -0.0906 -0.0729 -0.6982
  152SAPE   H8R16871   5.887   3.229   9.398 -0.2797  0.6091  0.4076
  152SAPE   C2916872   6.066   3.241   9.278 -0.2751 -0.4514  0.1407
  152SAPE   H9R16873   6.031   3.158   9.215 -0.9218 -0.3589  0.3651
  152SAPE  C21016874   6.208   3.284   9.239 -0.1595 -0.0328 -0.1645
  152SAPE  H10R16875   6.261   3.196   9.196  0.6552  0.0140  0.7177
  152SAPE  H10S16876   6.271   3.310   9.326  0.7321  2.3191 -1.4391
  152SAPE  C21116877   6.207   3.383   9.126 -0.5530  0.7699 -0.3192
  152SAPE  H11R16878   6.119   3.384   9.061  1.3877  0.5849 -3.1478
  152SAPE  C21216879   6.305   3.470   9.091 -0.1868  0.8627  0.0356
  152SAPE  H12R16880   6.287   3.527   8.999 -2.0972 -0.4179 -0.4507
  152SAPE  C21316881   6.430   3.484   9.168 -0.2599  0.0158 -0.3251
  152SAPE  H13R16882   6.469   3.387   9.206  3.4733  1.1324 -0.8812
  152SAPE  H13S16883   6.426   3.550   9.257  0.0257 -0.4715  0.0639
  152SAPE  C21416884   6.535   3.539   9.066 -0.0269  1.2353 -0.0738
  152SAPE  H14R16885   6.554   3.646   9.078  1.3267  0.8409  1.7569
  152SAPE  C21516886   6.612   3.462   8.982 -0.2504 -0.2319 -0.3286
  152SAPE  H15R16887   6.678   3.522   8.917 -1.0549  0.9297 -0.1247
  152SAPE  C21616888   6.620   3.313   8.991 -0.2332 -0.2208  0.0425
  152SAPE  H16R16889   6.573   3.273   9.084  1.5766 -1.8478  0.3188
  152SAPE  H16S16890   6.725   3.279   8.990 -0.8091 -2.2528 -2.0319
  152SAPE  C21716891   6.553   3.243   8.867  1.4308 -0.1583 -0.5399
  152SAPE  H17R16892   6.457   3.297   8.859  2.0395  1.3542  1.4966
  152SAPE  H17S16893   6.538   3.135   8.890  4.4466  0.0055  3.2893
  152SAPE  C21816894   6.614   3.265   8.734 -0.7605 -0.4925 -0.4224
  152SAPE  H18R16895   6.709   3.209   8.717 -0.1661  0.0925  0.8466
  152SAPE  H18S16896   6.639   3.370   8.707  1.0453 -0.4220  1.3551
  152SAPE  C21916897   6.518   3.224   8.626 -0.4932 -0.3608  0.2829
  152SAPE  H19R16898   6.434   3.291   8.654  0.5725  1.9682 -1.7186
  152SAPE  H19S16899   6.488   3.119   8.646 -1.4784 -0.1157  0.1103
  152SAPE  C22016900   6.554   3.241   8.475 -0.3847 -0.2581  0.0191
  152SAPE  H20R16901   6.584   3.346   8.454  2.8045 -0.9517  0.5919
  152SAPE  H20S16902   6.469   3.203   8.414  0.0183 -2.4084  0.7116
  152SAPE  H20T16903   6.639   3.175   8.447 -1.0877 -1.2102  0.0732
  152SAPE   C3316904   6.455   3.039  10.243  0.0860  0.2240 -0.3051
  152SAPE   H3X16905   6.347   3.016  10.254 -0.2166  1.3170 -0.7964
  152SAPE   H3Y16906   6.510   2.957  10.295  1.1286  1.7892  1.1935
  152SAPE   C3416907   6.490   3.031  10.098  0.2052 -0.0616  0.5407
  152SAPE   H4X16908   6.517   2.924  10.079 -0.9000 -0.8240  2.8663
  152SAPE   H4Y16909   6.576   3.094  10.067  2.0899 -2.3412  0.7989
  152SAPE   C3516910   6.362   3.056  10.008 -0.1026 -1.0015  0.0994
  152SAPE   H5X16911   6.327   3.161  10.016 -0.8541 -1.2404  0.1168
  152SAPE   H5Y16912   6.278   2.989  10.037 -0.7522 -0.6355 -0.8706
  152SAPE   C3616913   6.401   3.031   9.856 -0.2205 -0.1964 -0.6909
  152SAPE   H6X16914   6.468   2.944   9.844 -1.3741 -1.1058 -0.7583
  152SAPE   H6Y16915   6.448   3.121   9.812 -0.6642  0.4262  0.0848
  152SAPE   C3716916   6.269   3.009   9.782 -0.7665 -0.9779  0.0537
  152SAPE   H7X16917   6.191   3.089   9.788 -0.2363 -0.5359  3.5575
  152SAPE   H7Y16918   6.219   2.922   9.831  0.6570 -2.0159 -0.2829
  152SAPE   C3816919   6.297   2.964   9.640  0.9149  0.3851  0.4417
  152SAPE   H8X16920   6.372   2.882   9.640  0.5955  0.0877 -0.1622
  152SAPE   H8Y16921   6.337   3.045   9.574 -1.2145  0.5689 -0.7153
  152SAPE   C3916922   6.173   2.896   9.572  0.7963 -0.5976 -1.4374
  152SAPE   H9X16923   6.090   2.967   9.591  0.8028 -0.7199 -0.9198
  152SAPE   H9Y16924   6.155   2.799   9.623  0.0552 -1.4745 -3.2949
  152SAPE  C31016925   6.188   2.866   9.427 -0.4862 -0.0499  0.0405
  152SAPE  H10X16926   6.268   2.789   9.418 -1.4098 -1.1124  0.6632
  152SAPE  H10Y16927   6.222   2.951   9.364 -2.1359  0.4570 -0.2251
  152SAPE  C31116928   6.056   2.809   9.369  0.3200 -0.2626  0.0493
  152SAPE  H11X16929   5.981   2.890   9.382 -1.0249 -1.5370  0.5437
  152SAPE  H11Y16930   6.020   2.720   9.425 -3.1469  1.5387  1.0250
  152SAPE  C31216931   6.057   2.771   9.217 -0.0787 -0.0773  0.6755
  152SAPE  H12X16932   5.958   2.738   9.177  0.5466  0.4642 -1.4373
  152SAPE  H12Y16933   6.120   2.680   9.221 -1.6092 -1.1517  1.5676
  152SAPE  C31316934   6.124   2.879   9.134  0.2154  0.4352  0.4554
  152SAPE  H13X16935   6.233   2.885   9.154  0.2930  0.2894  0.0853
  152SAPE  H13Y16936   6.074   2.973   9.165  0.1070  0.4466  0.2492
  152SAPE  C31416937   6.113   2.871   8.980  0.0766  0.6055 -1.2399
  152SAPE  H14X16938   6.010   2.834   8.958 -0.1564 -0.4978  1.2940
  152SAPE  H14Y16939   6.181   2.792   8.942 -0.0477 -0.2659  0.2877
  152SAPE  C31516940   6.142   3.001   8.903  0.7852 -0.0877 -0.6737
  152SAPE  H15X16941   6.235   3.038   8.951 -0.2816  0.1323  1.3116
  152SAPE  H15Y16942   6.059   3.069   8.931  0.5184 -0.0266 -1.5673
  152SAPE  C31616943   6.168   2.978   8.759 -0.0224  1.0506  0.5962
  152SAPE  H16X16944   6.259   2.916   8.749 -1.5360 -1.1850  0.0122
  152SAPE  H16Y16945   6.172   3.076   8.706  0.4876  0.9151  0.3817
  152SAPE  C31716946   6.077   2.880   8.689 -0.6643 -0.2015  0.4231
  152SAPE  H17X16947   6.073   2.784   8.744  0.9028  1.1268  3.0878
  152SAPE  H17Y16948   6.121   2.861   8.589 -1.4746  1.5485 -0.3060
  152SAPE  C31816949   5.934   2.926   8.676 -0.5555  0.0925  0.0348
  152SAPE  H18X16950   5.951   3.022   8.623  0.0228 -0.1363 -0.2065
  152SAPE  H18Y16951   5.883   2.943   8.773 -1.8609 -1.5461 -0.3287
  152SAPE  H18Z16952   5.882   2.849   8.614 -0.1593  0.7939 -1.2028
  153SAPE     N16953   5.919   4.509  10.767  0.1270 -0.3444  0.1248
  153SAPE   HN116954   5.992   4.440  10.739 -0.9221 -1.3470 -0.2168
  153SAPE   HN216955   5.964   4.559  10.847  0.2630 -3.1099  1.9020
  153SAPE   HN316956   5.839   4.449  10.795  1.0530 -3.7668 -3.6205
  153SAPE   C1216957   5.880   4.607  10.657  0.8830  0.6285 -0.1552
  153SAPE  H12A16958   5.789   4.665  10.684  0.1433 -0.7390  0.4140
  153SAPE  H12B16959   5.858   4.551  10.564  1.3382  2.7895 -1.6165
  153SAPE   C1116960   5.991   4.701  10.629  0.5246 -0.1175  0.2058
  153SAPE  H11A16961   5.953   4.760  10.542  0.6287  1.3597  1.1289
  153SAPE  H11B16962   6.078   4.647  10.586  0.7622  0.5460 -0.1639
  153SAPE     P16963   6.097   4.927  10.715 -0.1696  0.0257 -0.2060
  153SAPE   O1316964   5.998   5.028  10.741  1.1349  0.2694 -0.2192
  153SAPE   O1416965   6.219   4.931  10.797 -0.3230  0.5758 -0.6396
  153SAPE   O1216966   6.022   4.790  10.737 -0.0163  0.1147  0.0009
  153SAPE   O1116967   6.132   4.926  10.560 -0.5931 -0.1317 -0.6027
  153SAPE    C116968   6.252   4.847  10.520 -0.0227  0.6209  0.4189
  153SAPE    HA16969   6.328   4.839  10.600 -1.6898 -0.8844  1.9160
  153SAPE    HB16970   6.231   4.742  10.491  1.4128  1.0731 -2.8001
  153SAPE    C216971   6.322   4.908  10.398  0.4941  0.1949  0.2029
  153SAPE    HS16972   6.387   4.827  10.357  1.7816 -0.6716  3.6028
  153SAPE   O2116973   6.392   5.027  10.442  1.1174  0.4339  0.3740
  153SAPE   C2116974   6.513   5.044  10.386  0.0632 -0.3436  0.0648
  153SAPE   O2216975   6.568   4.963  10.313  0.2148  0.5989 -0.2351
  153SAPE   C2216976   6.583   5.168  10.442  0.3797  0.3663 -0.5737
  153SAPE   H2R16977   6.582   5.156  10.552  2.7799  0.5711 -0.4869
  153SAPE   H2S16978   6.687   5.180  10.405  1.5150  1.6485  2.7166
  153SAPE    C316979   6.227   4.938  10.282  0.2442  0.0897  0.2254
  153SAPE    HX16980   6.160   5.024  10.306  1.0572  0.3289  1.7489
  153SAPE    HY16981   6.154   4.855  10.276  1.1684 -0.7692  0.6738
  153SAPE   O3116982   6.293   4.958  10.156 -0.6064  0.2924 -0.0566
  153SAPE   C3116983   6.318   4.848  10.081  0.1975  0.0823  0.3900
  153SAPE   O3216984   6.263   4.742  10.097  0.3195 -0.3021  0.6078
  153SAPE   C3216985   6.418   4.877   9.972 -1.0185 -0.1150  0.4237
  153SAPE   H2X16986   6.499   4.947  10.000 -1.6738 -0.0568  2.3239
  153SAPE   H2Y16987   6.364   4.911   9.882  0.0501 -1.4156 -0.7553
  153SAPE   C2316988   6.497   5.302  10.418 -0.2585 -0.0359 -0.4000
  153SAPE   H3R16989   6.541   5.384  10.479 -0.8925 -0.0074  0.0195
  153SAPE   H3S16990   6.398   5.289  10.466 -0.8733  0.2657 -1.5380
  153SAPE   C2416991   6.482   5.341  10.275  0.8342  0.7115 -0.2746
  153SAPE   H4R16992   6.412   5.423  10.251 -2.3233 -1.4813  0.8522
  153SAPE   H4S16993   6.427   5.259  10.225  1.5219 -0.0292  0.1567
  153SAPE   C2516994   6.613   5.378  10.217  0.3419 -0.3491 -0.5825
  153SAPE   H5R16995   6.656   5.463  10.272 -2.3305  0.8949 -0.2820
  153SAPE   C2616996   6.669   5.327  10.101 -0.5512 -0.8754  0.8917
  153SAPE   H6R16997   6.752   5.380  10.051 -0.2972 -2.2763 -0.2273
  153SAPE   C2716998   6.600   5.218  10.023  0.0241  0.3343  0.4775
  153SAPE   H7R16999   6.545   5.276   9.945  1.4601  0.2647 -0.6348
  153SAPE   H7S17000   6.531   5.161  10.088  1.2018  0.2744  1.7159
  153SAPE   C2817001   6.697   5.119   9.962 -0.3803 -0.2196  0.0364
  153SAPE   H8R17002   6.753   5.062  10.038  2.2299  1.7592 -0.2262
  153SAPE   C2917003   6.726   5.100   9.830  0.2729 -0.4676  0.4938
  153SAPE   H9R17004   6.802   5.025   9.801 -0.0912  0.2318 -2.6678
  153SAPE  C21017005   6.673   5.174   9.706  0.5828  0.0224 -0.0372
  153SAPE  H10R17006   6.757   5.202   9.638 -2.1136  2.4903 -2.6515
  153SAPE  H10S17007   6.620   5.264   9.744 -2.8184 -1.6965 -0.3505
  153SAPE  C21117008   6.578   5.085   9.639 -0.4068  0.7332  0.3635
  153SAPE  H11R17009   6.502   5.035   9.701 -0.0517 -1.5787 -0.9350
  153SAPE  C21217010   6.580   5.033   9.511  0.4900  0.8067  0.5228
  153SAPE  H12R17011   6.490   4.975   9.485 -1.0800  3.1287  0.3798
  153SAPE  C21317012   6.668   5.070   9.396  0.6146 -0.9140 -0.4480
  153SAPE  H13R17013   6.756   5.123   9.438 -0.1002  1.5050 -1.8304
  153SAPE  H13S17014   6.607   5.143   9.339  0.9983  0.3244  0.6598
  153SAPE  C21417015   6.718   4.952   9.320  0.3594 -0.1985 -0.2039
  153SAPE  H14R17016   6.761   4.866   9.373 -0.2355  0.3171  1.1561
  153SAPE  C21517017   6.736   4.937   9.188 -0.2620 -0.5836  0.2673
  153SAPE  H15R17018   6.795   4.853   9.147  0.7604  0.6903 -1.0178
  153SAPE  C21617019   6.706   5.043   9.080  0.0184  0.3791  0.1291
  153SAPE  H16R17020   6.799   5.050   9.021 -0.8197  0.5524 -1.2022
  153SAPE  H16S17021   6.694   5.145   9.124  2.8546  0.0464  1.9439
  153SAPE  C21717022   6.600   5.003   8.973 -0.1565  0.4823  0.1716
  153SAPE  H17R17023   6.503   4.989   9.026 -0.3191  0.5940 -0.0931
  153SAPE  H17S17024   6.634   4.907   8.929 -3.0799  0.0652 -1.4914
  153SAPE  C21817025   6.594   5.097   8.860 -0.5981 -0.6813 -0.2316
  153SAPE  H18R17026   6.688   5.106   8.803  0.8415 -1.1550  1.9312
  153SAPE  H18S17027   6.563   5.200   8.888  0.6910 -0.7486  1.5883
  153SAPE  C21917028   6.497   5.050   8.750 -0.3206 -0.8151  0.2415
  153SAPE  H19R17029   6.392   5.044   8.788 -0.2264 -0.5070  0.5548
  153SAPE  H19S17030   6.524   4.946   8.721 -1.1887 -0.8691 -0.4096
  153SAPE  C22017031   6.501   5.153   8.629  0.5043 -0.2904 -0.3268
  153SAPE  H20R17032   6.478   5.249   8.680  0.3280  0.3822 -1.6271
  153SAPE  H20S17033   6.409   5.134   8.569  1.2193  0.4475 -1.6932
  153SAPE  H20T17034   6.590   5.151   8.563 -0.6715 -0.1465 -2.0016
  153SAPE   C3317035   6.489   4.739   9.936  0.0238 -0.8236 -0.4839
  153SAPE   H3X17036   6.416   4.655   9.942 -2.4591  1.2415  0.2119
  153SAPE   H3Y17037   6.571   4.720  10.009  0.2673  1.1221 -0.1968
  153SAPE   C3417038   6.556   4.735   9.791  0.2117 -0.6885 -0.5940
  153SAPE   H4X17039   6.635   4.814   9.786  2.0017 -2.3516  0.1994
  153SAPE   H4Y17040   6.475   4.772   9.724  0.0974  0.8842  0.3469
  153SAPE   C3517041   6.623   4.604   9.768 -0.4112 -0.1788  0.2145
  153SAPE   H5X17042   6.549   4.524   9.748 -1.8964  1.3277 -0.5453
  153SAPE   H5Y17043   6.696   4.585   9.849  1.3584  1.1765 -0.9629
  153SAPE   C3617044   6.704   4.624   9.640 -0.1152 -0.0216 -0.0984
  153SAPE   H6X17045   6.773   4.708   9.663  0.6908 -0.5779 -0.4387
  153SAPE   H6Y17046   6.631   4.660   9.564 -1.7370 -2.0931  0.3757
  153SAPE   C3717047   6.786   4.505   9.589 -0.1345 -0.0501  0.2850
  153SAPE   H7X17048   6.722   4.415   9.602  1.2510 -1.1902 -0.3863
  153SAPE   H7Y17049   6.876   4.492   9.653  0.1739 -0.5350 -0.2289
  153SAPE   C3817050   6.825   4.527   9.439 -0.3839 -0.3961  0.3951
  153SAPE   H8X17051   6.894   4.614   9.434  0.5942 -1.1848 -0.1301
  153SAPE   H8Y17052   6.733   4.545   9.380  1.0463 -0.1976 -1.8869
  153SAPE   C3917053   6.915   4.412   9.381  0.2164  0.0680  0.5895
  153SAPE   H9X17054   6.860   4.317   9.398  0.8791 -0.4773 -0.2589
  153SAPE   H9Y17055   7.008   4.405   9.441  1.1223 -0.3228 -0.8370
  153SAPE  C31017056   6.948   4.426   9.229  0.4846 -0.2534 -0.1684
  153SAPE  H10X17057   6.987   4.529   9.231  1.0664 -0.4320 -1.5233
  153SAPE  H10Y17058   6.854   4.430   9.170  0.3148  2.8624  0.1432
  153SAPE  C31117059   7.054   4.331   9.177  0.0493  0.4591  0.1343
  153SAPE  H11X17060   7.024   4.224   9.185 -0.7165  0.7681  1.7272
  153SAPE  H11Y17061   7.147   4.326   9.238 -0.0045  1.4936  0.3202
  153SAPE  C31217062   7.086   4.365   9.029  0.3081 -0.0319 -0.4752
  153SAPE  H12X17063   7.136   4.463   9.025 -0.8911  0.6658  0.7682
  153SAPE  H12Y17064   6.997   4.367   8.962 -0.0717 -0.1643  0.0208
  153SAPE  C31317065   7.178   4.264   8.963 -0.3105 -0.1349 -0.5040
  153SAPE  H13X17066   7.149   4.156   8.972  0.6797 -0.2200  4.0018
  153SAPE  H13Y17067   7.273   4.269   9.019 -1.1492 -0.4869  1.0084
  153SAPE  C31417068   7.202   4.305   8.815 -0.4908  0.0150 -0.7171
  153SAPE  H14X17069   7.230   4.412   8.820 -0.9704  0.0790  2.0035
  153SAPE  H14Y17070   7.108   4.292   8.757  0.5164  0.4270 -2.5112
  153SAPE  C31517071   7.305   4.213   8.747 -0.1271  1.1265  0.0557
  153SAPE  H15X17072   7.257   4.113   8.749 -0.2485  1.1859  0.1422
  153SAPE  H15Y17073   7.394   4.215   8.813  0.2599 -1.5391 -0.3009
  153SAPE  C31617074   7.345   4.247   8.607  0.0899  0.3043  0.9841
  153SAPE  H16X17075   7.399   4.160   8.564  0.6684  0.9590  0.3579
  153SAPE  H16Y17076   7.428   4.320   8.609  2.3710 -2.0478 -0.6158
  153SAPE  C31717077   7.233   4.305   8.518  0.2726  0.0879  0.5987
  153SAPE  H17X17078   7.187   4.401   8.551  1.3605  0.0594  2.3127
  153SAPE  H17Y17079   7.150   4.231   8.523 -1.6339  1.9394 -1.1483
  153SAPE  C31817080   7.271   4.323   8.370  0.0475 -0.3445 -0.5161
  153SAPE  H18X17081   7.305   4.229   8.321  0.3463 -0.8798  0.6867
  153SAPE  H18Y17082   7.355   4.395   8.359 -0.8927  0.5790 -2.0466
  153SAPE  H18Z17083   7.187   4.355   8.305 -1.5700 -1.2308  1.0728
  154SAPE     N17084   0.940   5.885  11.153  0.5833 -0.3607 -0.3581
  154SAPE   HN117085   0.852   5.895  11.098  0.3907  0.6528  0.1160
  154SAPE   HN217086   0.932   5.817  11.232 -0.8211  0.3341  0.1349
  154SAPE   HN317087   0.967   5.980  11.185  0.3903  0.4568 -2.4405
  154SAPE   C1217088   1.042   5.841  11.050 -0.2875  0.9106 -0.4037
  154SAPE  H12A17089   0.991   5.764  10.987 -3.5984  1.0097  1.8775
  154SAPE  H12B17090   1.126   5.796  11.106 -1.7142  0.4116  1.4452
  154SAPE   C1117091   1.083   5.952  10.956  0.1305 -0.6917 -0.2493
  154SAPE  H11A17092   1.165   5.917  10.890 -1.1040 -2.3214 -0.9870
  154SAPE  H11B17093   1.129   6.037  11.011 -0.3662 -0.4533 -0.2001
  154SAPE     P17094   0.972   6.101  10.768  0.1632  0.0708 -0.0717
  154SAPE   O1317095   0.837   6.160  10.757  0.4773  0.7061 -0.3007
  154SAPE   O1417096   1.087   6.192  10.791 -0.2995  0.4092  0.3468
  154SAPE   O1217097   0.973   6.001  10.887 -0.0619  0.4276  0.1010
  154SAPE   O1117098   1.013   6.020  10.642 -0.3681 -0.1986  0.0513
  154SAPE    C117099   0.947   5.899  10.591  0.1743 -0.2233  0.5282
  154SAPE    HA17100   0.844   5.879  10.628 -1.3411  1.5657 -2.3459
  154SAPE    HB17101   0.928   5.906  10.482  0.2391 -0.0655  0.5280
  154SAPE    C217102   1.039   5.776  10.599 -0.2549 -0.6957 -0.6080
  154SAPE    HS17103   1.057   5.748  10.705  1.7856  1.9332 -0.1706
  154SAPE   O2117104   1.154   5.813  10.525  0.0402  0.0391  0.3157
  154SAPE   C2117105   1.252   5.723  10.534 -0.2977 -0.7118  0.1140
  154SAPE   O2217106   1.247   5.627  10.611 -0.6217  0.1907  0.3316
  154SAPE   C2217107   1.364   5.752  10.434  0.3443  0.5717  0.8960
  154SAPE   H2R17108   1.358   5.862  10.420 -0.5458  0.6460  1.7486
  154SAPE   H2S17109   1.463   5.732  10.480  0.3329  1.6019  1.3969
  154SAPE    C317110   0.967   5.649  10.533 -0.6625 -0.5920  0.0078
  154SAPE    HX17111   0.872   5.628  10.588  0.4256 -0.6492  1.9497
  154SAPE    HY17112   1.035   5.561  10.534  0.1939  0.0377 -1.0356
  154SAPE   O3117113   0.932   5.679  10.401  0.0867  0.1764  0.2607
  154SAPE   C3117114   0.844   5.600  10.337  0.4344 -0.7626 -0.4103
  154SAPE   O3217115   0.790   5.500  10.382  0.4494  0.1835 -0.2586
  154SAPE   C3217116   0.831   5.646  10.189  0.2506 -0.0288  0.7633
  154SAPE   H2X17117   0.928   5.695  10.168  1.1620 -2.9025 -2.8461
  154SAPE   H2Y17118   0.752   5.723  10.179  2.1213  1.7030 -2.1612
  154SAPE   C2317119   1.357   5.666  10.306 -0.0998 -0.0406 -0.1290
  154SAPE   H3R17120   1.342   5.558  10.327  0.8501 -0.5187 -1.7216
  154SAPE   H3S17121   1.446   5.679  10.240  1.4788 -0.5968  1.7816
  154SAPE   C2417122   1.235   5.694  10.224  0.6644 -0.6485 -0.3480
  154SAPE   H4R17123   1.221   5.804  10.212 -2.3520 -0.7709  1.2720
  154SAPE   H4S17124   1.146   5.670  10.285 -0.0057  0.1296 -0.9928
  154SAPE   C2517125   1.230   5.625  10.096 -0.0975 -0.6959 -0.3105
  154SAPE   H5R17126   1.227   5.515  10.096  0.9696 -0.7351  0.5090
  154SAPE   C2617127   1.219   5.690   9.976  0.0698  0.2200 -0.6302
  154SAPE   H6R17128   1.218   5.629   9.885  1.3412  0.2138 -0.6586
  154SAPE   C2717129   1.208   5.839   9.952  0.0753 -0.1701  0.7908
  154SAPE   H7R17130   1.221   5.848   9.842  1.4306 -0.9920  0.8563
  154SAPE   H7S17131   1.288   5.902   9.997 -0.3481  1.9709 -1.2504
  154SAPE   C2817132   1.071   5.906   9.976  0.3336  0.4754 -0.2912
  154SAPE   H8R17133   1.043   5.933  10.079  1.1911  2.0215 -0.4456
  154SAPE   C2917134   0.967   5.924   9.886 -0.7689  0.7321  1.1978
  154SAPE   H9R17135   0.874   5.977   9.914 -1.7702 -0.9165  1.1083
  154SAPE  C21017136   0.982   5.872   9.748  0.4167  0.3373 -0.2106
  154SAPE  H10R17137   0.878   5.852   9.714  0.5075  0.5264 -0.6063
  154SAPE  H10S17138   1.037   5.776   9.744  0.4851  0.3516  0.3062
  154SAPE  C21117139   1.046   5.966   9.649  0.2997 -0.3994 -0.0982
  154SAPE  H11R17140   1.093   6.055   9.693 -1.7326  1.2274 -1.0677
  154SAPE  C21217141   1.027   5.948   9.519  0.3426  0.5343  0.5226
  154SAPE  H12R17142   1.071   6.023   9.451 -1.5246  0.6275 -0.6706
  154SAPE  C21317143   0.947   5.831   9.455 -0.0622  0.0917 -0.4287
  154SAPE  H13R17144   0.867   5.802   9.526  0.4272  1.1260  0.5771
  154SAPE  H13S17145   1.010   5.741   9.441  0.0341  0.1297 -0.2403
  154SAPE  C21417146   0.876   5.856   9.326 -0.0436  0.2090 -0.4425
  154SAPE  H14R17147   0.767   5.842   9.328 -0.1415  0.9051  2.5615
  154SAPE  C21517148   0.927   5.886   9.210 -0.3153  0.2584 -0.2828
  154SAPE  H15R17149   0.859   5.914   9.128 -2.0957 -1.2129  0.6076
  154SAPE  C21617150   1.075   5.903   9.179 -0.3951  0.6021  1.0925
  154SAPE  H16R17151   1.103   5.823   9.107 -0.0090 -0.4168  2.3201
  154SAPE  H16S17152   1.143   5.888   9.266 -0.5754  0.8329  1.2728
  154SAPE  C21717153   1.098   6.043   9.129 -0.8905  0.1051 -0.2043
  154SAPE  H17R17154   1.091   6.115   9.214 -0.2432 -1.1852  0.9925
  154SAPE  H17S17155   1.024   6.063   9.049 -1.4876 -0.4346  0.2001
  154SAPE  C21817156   1.247   6.064   9.083  0.1383 -0.3850 -0.4520
  154SAPE  H18R17157   1.299   6.031   9.175 -2.4279  1.3234  1.7778
  154SAPE  H18S17158   1.258   6.173   9.061 -1.6471  0.1687  1.1562
  154SAPE  C21917159   1.284   5.990   8.953 -0.5981  0.2523 -0.3323
  154SAPE  H19R17160   1.320   5.889   8.984  2.0474  1.2986  0.2774
  154SAPE  H19S17161   1.369   6.042   8.903 -1.4816  0.1241 -2.0423
  154SAPE  C22017162   1.173   5.959   8.849  0.4119  0.2697 -0.2103
  154SAPE  H20R17163   1.137   6.051   8.799  0.7989 -0.5836 -2.1628
  154SAPE  H20S17164   1.088   5.908   8.899  1.6188 -2.4536 -0.7670
  154SAPE  H20T17165   1.200   5.884   8.772 -2.1412 -0.9245 -0.0300
  154SAPE   C3317166   0.819   5.529  10.086  0.0249  0.0854 -0.1643
  154SAPE   H3X17167   0.743   5.455  10.120 -1.5694  1.2879 -0.9432
  154SAPE   H3Y17168   0.920   5.483  10.082 -0.0046 -0.1303  0.9891
  154SAPE   C3417169   0.780   5.579   9.942 -0.2707 -0.2296 -0.3001
  154SAPE   H4X17170   0.804   5.493   9.876  1.8120  0.2295 -0.1975
  154SAPE   H4Y17171   0.855   5.655   9.910 -0.1087  0.1723  0.9865
  154SAPE   C3517172   0.642   5.634   9.918  0.8594 -0.2744 -0.3299
  154SAPE   H5X17173   0.631   5.730   9.973 -1.3356  1.0624 -2.8634
  154SAPE   H5Y17174   0.561   5.565   9.949  1.3576 -0.0244  1.6099
  154SAPE   C3617175   0.615   5.661   9.765  0.1089 -0.5069 -0.3174
  154SAPE   H6X17176   0.562   5.577   9.715  1.0883 -0.6430 -1.1608
  154SAPE   H6Y17177   0.713   5.687   9.719 -0.6520  1.0109 -1.1706
  154SAPE   C3717178   0.534   5.790   9.756 -0.8181  0.3775  0.1251
  154SAPE   H7X17179   0.585   5.879   9.801  2.0379  0.1125 -2.3138
  154SAPE   H7Y17180   0.438   5.780   9.812  0.0406 -0.1024  1.5598
  154SAPE   C3817181   0.509   5.834   9.612 -0.2237 -0.0588  0.6993
  154SAPE   H8X17182   0.607   5.841   9.561  0.1129 -0.7690  1.2248
  154SAPE   H8Y17183   0.469   5.937   9.603 -0.5385 -0.2598 -0.3403
  154SAPE   C3917184   0.418   5.739   9.527  0.2698 -0.4009 -0.8141
  154SAPE   H9X17185   0.313   5.741   9.563  0.6134 -2.4412  0.4655
  154SAPE   H9Y17186   0.454   5.635   9.546 -2.5974 -1.0369  1.9048
  154SAPE  C31017187   0.427   5.775   9.375 -0.7828  0.2208 -0.0698
  154SAPE  H10X17188   0.378   5.699   9.311  0.7077 -0.4492 -0.4630
  154SAPE  H10Y17189   0.536   5.776   9.351 -0.6370 -1.1660  0.4472
  154SAPE  C31117190   0.374   5.911   9.337 -0.5228  0.4579 -0.0281
  154SAPE  H11X17191   0.444   5.989   9.374 -0.6282  0.0218  1.1264
  154SAPE  H11Y17192   0.275   5.922   9.387 -0.3383 -0.0860  0.4687
  154SAPE  C31217193   0.346   5.920   9.186 -0.5332  0.3519 -0.0800
  154SAPE  H12X17194   0.345   6.026   9.151  0.6069 -0.0023 -1.2366
  154SAPE  H12Y17195   0.242   5.884   9.174 -0.3664 -1.0153  1.9839
  154SAPE  C31317196   0.447   5.856   9.094  0.3136 -0.0752 -0.0177
  154SAPE  H13X17197   0.472   5.756   9.135 -0.1464  0.0043  0.4663
  154SAPE  H13Y17198   0.537   5.921   9.082 -0.3903  0.7523 -1.0110
  154SAPE  C31417199   0.395   5.827   8.957 -0.1821 -0.2424  0.4447
  154SAPE  H14X17200   0.322   5.744   8.960 -1.7464  1.1075  2.1065
  154SAPE  H14Y17201   0.475   5.804   8.883  0.5122  0.2528  1.0339
  154SAPE  C31517202   0.324   5.951   8.894  0.1192 -0.6115  0.0320
  154SAPE  H15X17203   0.392   6.039   8.899  0.6244 -0.9958  0.1128
  154SAPE  H15Y17204   0.240   5.967   8.964 -0.1382 -1.7257  0.0082
  154SAPE  C31617205   0.275   5.935   8.754  1.4466  0.4160  0.2618
  154SAPE  H16X17206   0.165   5.933   8.738  1.5300  1.5792 -0.6230
  154SAPE  H16Y17207   0.297   5.829   8.732  0.8258  0.2439  0.4497
  154SAPE  C31717208   0.342   6.038   8.664 -0.2105  0.5552 -0.4816
  154SAPE  H17X17209   0.444   6.049   8.706 -0.1395  1.0711 -0.7798
  154SAPE  H17Y17210   0.290   6.137   8.664 -0.3174  0.5048 -1.4385
  154SAPE  C31817211   0.344   6.010   8.519 -0.0299 -0.4669  0.2456
  154SAPE  H18X17212   0.381   5.907   8.497 -0.6680 -0.9238  1.2422
  154SAPE  H18Y17213   0.399   6.086   8.459 -4.9039  2.2814 -1.3027
  154SAPE  H18Z17214   0.243   6.008   8.474  0.8734 -0.8166 -1.8885
  155SAPE     N17215   1.271   6.366  10.692  0.3492 -0.7533 -0.2595
  155SAPE   HN117216   1.230   6.324  10.778 -0.2665 -3.8853 -1.9276
  155SAPE   HN217217   1.351   6.427  10.716 -1.8258  0.9926  3.4401
  155SAPE   HN317218   1.197   6.420  10.644 -0.2471 -2.0327 -0.8350
  155SAPE   C1217219   1.301   6.257  10.591 -0.5170 -0.0605 -0.3001
  155SAPE  H12A17220   1.373   6.305  10.522 -2.5846  2.2847 -0.9779
  155SAPE  H12B17221   1.208   6.227  10.538  0.7258 -2.4537 -1.2851
  155SAPE   C1117222   1.382   6.138  10.653 -0.0396 -0.8733 -0.6848
  155SAPE  H11A17223   1.417   6.081  10.564 -0.8551 -0.2149 -1.4540
  155SAPE  H11B17224   1.308   6.072  10.702 -0.7187 -0.9304 -1.7432
  155SAPE     P17225   1.549   6.083  10.838  0.2196 -0.4396  0.0555
  155SAPE   O1317226   1.667   6.152  10.898  0.0382 -0.0227  0.4703
  155SAPE   O1417227   1.443   6.034  10.926  0.4735 -1.0865 -0.5722
  155SAPE   O1217228   1.487   6.182  10.734  0.1876 -0.2738  0.0886
  155SAPE   O1117229   1.597   5.966  10.752 -0.6591  0.3688  0.3931
  155SAPE    C117230   1.730   5.918  10.766 -0.2495  0.0616  0.2782
  155SAPE    HA17231   1.804   5.999  10.749  1.8694 -1.9930 -0.9131
  155SAPE    HB17232   1.744   5.885  10.871  0.0136 -0.4137  0.0968
  155SAPE    C217233   1.758   5.801  10.679  1.0380  0.4666 -0.2529
  155SAPE    HS17234   1.861   5.766  10.700  1.8656  3.6886  1.6186
  155SAPE   O2117235   1.733   5.821  10.541 -0.1824  0.3856 -0.3371
  155SAPE   C2117236   1.798   5.916  10.487 -0.2686 -0.5937  1.1010
  155SAPE   O2217237   1.891   5.985  10.526  0.0184  0.3626  0.1181
  155SAPE   C2217238   1.731   5.933  10.346 -0.2354  0.0273  0.4500
  155SAPE   H2R17239   1.626   5.962  10.367 -0.4425  1.4551 -2.2562
  155SAPE   H2S17240   1.773   6.020  10.291  1.8201  0.6990  2.8652
  155SAPE    C317241   1.669   5.678  10.724 -0.0116 -0.8788 -0.6551
  155SAPE    HX17242   1.566   5.719  10.723  0.3844  0.1277 -0.6378
  155SAPE    HY17243   1.686   5.670  10.834  0.3935  5.2547  0.0435
  155SAPE   O3117244   1.684   5.560  10.650 -0.5008 -0.1037  0.1119
  155SAPE   C3117245   1.605   5.466  10.687 -0.5298 -0.1971  0.1386
  155SAPE   O3217246   1.510   5.478  10.764 -0.5147  0.4014  0.3110
  155SAPE   C3217247   1.653   5.331  10.621 -0.0340 -0.3598 -0.1386
  155SAPE   H2X17248   1.716   5.278  10.695 -1.0780  0.5049  1.4221
  155SAPE   H2Y17249   1.720   5.351  10.535  2.0814 -3.6970  0.5524
  155SAPE   C2317250   1.742   5.820  10.240  0.3592 -0.5645  0.0568
  155SAPE   H3R17251   1.685   5.727  10.259  0.4712 -1.1727 -2.3246
  155SAPE   H3S17252   1.847   5.802  10.211  0.4493 -0.3620  0.2542
  155SAPE   C2417253   1.678   5.878  10.103 -0.7191  0.1065 -0.2558
  155SAPE   H4R17254   1.588   5.940  10.122 -0.3413  0.8117 -0.7438
  155SAPE   H4S17255   1.633   5.789  10.053 -1.3070  0.7447 -0.8809
  155SAPE   C2517256   1.777   5.938  10.004 -0.2051 -0.2003 -0.0864
  155SAPE   H5R17257   1.857   6.000  10.047 -0.7682 -0.5791  1.5667
  155SAPE   C2617258   1.788   5.930   9.873  0.7208  0.1027  1.0438
  155SAPE   H6R17259   1.864   5.984   9.813 -2.2245  1.2400 -1.9948
  155SAPE   C2717260   1.703   5.848   9.778  0.9037 -0.4905  0.8403
  155SAPE   H7R17261   1.669   5.755   9.829 -0.0379 -2.0093 -2.3373
  155SAPE   H7S17262   1.753   5.803   9.690 -2.3589  1.1382 -2.1076
  155SAPE   C2817263   1.579   5.922   9.734  0.3180 -0.0234  0.1421
  155SAPE   H8R17264   1.487   5.922   9.794  0.2811  0.1370  0.0878
  155SAPE   C2917265   1.574   5.981   9.616 -0.1794 -0.0901 -0.2051
  155SAPE   H9R17266   1.488   6.049   9.599 -0.2503 -0.1973 -0.2752
  155SAPE  C21017267   1.687   5.996   9.507 -0.1241  0.2094 -0.2356
  155SAPE  H10R17268   1.768   5.921   9.525  0.3482  1.1246  1.7981
  155SAPE  H10S17269   1.730   6.097   9.523 -0.5453  0.6654 -1.8376
  155SAPE  C21117270   1.641   5.969   9.368 -0.4162  0.2055  0.2201
  155SAPE  H11R17271   1.594   5.871   9.351  2.7385 -0.8629 -3.8357
  155SAPE  C21217272   1.656   6.043   9.251 -0.0354 -0.0244 -0.4160
  155SAPE  H12R17273   1.614   6.004   9.156 -2.2438  1.3307 -0.0564
  155SAPE  C21317274   1.719   6.184   9.247 -0.3848 -0.4887 -0.5588
  155SAPE  H13R17275   1.744   6.224   9.347 -0.8780  2.0188 -1.3752
  155SAPE  H13S17276   1.642   6.256   9.211  1.2241  1.6560  0.1167
  155SAPE  C21417277   1.826   6.188   9.140 -0.3277  0.2996  0.4200
  155SAPE  H14R17278   1.928   6.175   9.181 -1.6518 -2.3271  3.2820
  155SAPE  C21517279   1.811   6.192   9.005 -0.6646 -0.6527 -0.0842
  155SAPE  H15R17280   1.902   6.207   8.944 -1.2743  0.5536 -0.7339
  155SAPE  C21617281   1.673   6.201   8.941 -0.2009 -0.2314 -1.0216
  155SAPE  H16R17282   1.602   6.150   9.011  2.6274 -0.2716  2.0799
  155SAPE  H16S17283   1.681   6.140   8.849  0.3996 -0.5543 -0.7636
  155SAPE  C21717284   1.622   6.343   8.911 -0.4579  0.1404  0.2185
  155SAPE  H17R17285   1.682   6.416   8.853 -2.4904  2.8772  1.3487
  155SAPE  H17S17286   1.611   6.403   9.004  0.7426  0.9852 -0.1717
  155SAPE  C21817287   1.498   6.339   8.832  0.1300 -0.0289 -0.0297
  155SAPE  H18R17288   1.463   6.444   8.826 -0.2918 -0.2029 -0.7450
  155SAPE  H18S17289   1.422   6.278   8.885 -1.2565  0.1682 -1.6899
  155SAPE  C21917290   1.505   6.272   8.692  0.6659 -0.5243  0.4040
  155SAPE  H19R17291   1.405   6.257   8.645  0.2064  2.2823  0.3102
  155SAPE  H19S17292   1.556   6.175   8.707  2.1302  0.3644  1.4400
  155SAPE  C22017293   1.577   6.361   8.589 -0.5345  0.9436  0.1949
  155SAPE  H20R17294   1.672   6.406   8.625 -1.0142  1.2014  1.1893
  155SAPE  H20S17295   1.511   6.443   8.552  0.2920 -0.2573 -4.5587
  155SAPE  H20T17296   1.593   6.314   8.490 -0.2221 -1.1794  1.2125
  155SAPE   C3317297   1.533   5.240  10.570  1.1295 -0.9510 -0.8357
  155SAPE   H3X17298   1.459   5.218  10.651  1.2129  2.3814  0.2996
  155SAPE   H3Y17299   1.579   5.139  10.564 -0.7598 -2.2990  3.1230
  155SAPE   C3417300   1.457   5.286  10.452  0.7658  0.6514 -0.1503
  155SAPE   H4X17301   1.481   5.393  10.431 -0.0368  0.6993 -0.8633
  155SAPE   H4Y17302   1.347   5.280  10.468  0.8691 -0.8215  0.0956
  155SAPE   C3517303   1.498   5.203  10.322  0.0743 -0.1364 -0.1947
  155SAPE   H5X17304   1.495   5.095  10.346 -2.3071 -0.4557 -1.6013
  155SAPE   H5Y17305   1.604   5.232  10.305 -0.2549  1.0578 -0.2972
  155SAPE   C3617306   1.398   5.225  10.207  0.1700  0.0695 -0.0650
  155SAPE   H6X17307   1.426   5.318  10.153 -0.7217  1.2546  1.4164
  155SAPE   H6Y17308   1.295   5.231  10.247 -0.3235  1.2460 -1.4460
  155SAPE   C3717309   1.399   5.107  10.106 -0.5543  0.0969  0.2691
  155SAPE   H7X17310   1.377   5.017  10.169 -0.9549  0.0682  0.0928
  155SAPE   H7Y17311   1.493   5.107  10.048 -1.7512  2.5427 -1.8796
  155SAPE   C3817312   1.277   5.108  10.014  0.2970  0.1533  0.4464
  155SAPE   H8X17313   1.186   5.122  10.077 -0.4809 -1.9941 -0.0974
  155SAPE   H8Y17314   1.271   5.006   9.971 -1.8973 -1.0526  3.2924
  155SAPE   C3917315   1.281   5.220   9.913  0.1844  0.1705 -0.6031
  155SAPE   H9X17316   1.376   5.215   9.855 -0.3030  0.8043 -1.4914
  155SAPE   H9Y17317   1.290   5.312   9.975  0.4920 -0.9081  1.0091
  155SAPE  C31017318   1.165   5.217   9.814  0.2942 -0.1979  0.1076
  155SAPE  H10X17319   1.081   5.177   9.875  0.6723 -0.5153  0.4193
  155SAPE  H10Y17320   1.185   5.138   9.737  2.5538 -0.3151  0.7449
  155SAPE  C31117321   1.132   5.355   9.746  0.9099 -0.0105 -0.2506
  155SAPE  H11X17322   1.221   5.377   9.683 -0.5839 -0.9035 -2.8598
  155SAPE  H11Y17323   1.127   5.433   9.825 -1.5383  1.3232 -1.6125
  155SAPE  C31217324   1.004   5.356   9.665 -0.0179  0.1284  0.1059
  155SAPE  H12X17325   0.920   5.320   9.728 -1.1959  0.1126 -1.4351
  155SAPE  H12Y17326   1.018   5.285   9.581 -3.7302 -1.9607  1.0650
  155SAPE  C31317327   0.972   5.493   9.609 -0.1134  0.1144  0.3245
  155SAPE  H13X17328   1.054   5.531   9.545 -0.5541  1.7220  0.6728
  155SAPE  H13Y17329   0.974   5.560   9.698  0.0464 -1.1954  1.3396
  155SAPE  C31417330   0.841   5.499   9.532  0.4496  0.0752  0.2113
  155SAPE  H14X17331   0.811   5.606   9.531  3.2203  0.9246 -0.2436
  155SAPE  H14Y17332   0.759   5.438   9.577  4.4361 -2.9151  4.3079
  155SAPE  C31517333   0.857   5.451   9.385 -0.5772 -0.1733 -0.3624
  155SAPE  H15X17334   0.889   5.345   9.397 -1.5049 -0.4520 -0.3297
  155SAPE  H15Y17335   0.950   5.500   9.348  1.5084 -1.6578  2.5059
  155SAPE  C31617336   0.732   5.446   9.300 -0.0899 -0.0095  0.0798
  155SAPE  H16X17337   0.681   5.544   9.313  2.3022  1.3218 -0.0318
  155SAPE  H16Y17338   0.648   5.383   9.336 -1.5363  2.1036  0.6326
  155SAPE  C31717339   0.750   5.422   9.152  0.6072  1.1251 -0.6347
  155SAPE  H17X17340   0.791   5.319   9.145  1.7964  1.6277 -1.4674
  155SAPE  H17Y17341   0.823   5.483   9.095  1.9347  0.3432  0.1705
  155SAPE  C31817342   0.616   5.443   9.085  0.3507 -0.5899  0.1491
  155SAPE  H18X17343   0.620   5.406   8.980  0.4185  0.2144 -0.1448
  155SAPE  H18Y17344   0.584   5.550   9.081  3.2013  0.4862  2.3811
  155SAPE  H18Z17345   0.535   5.383   9.131 -0.2607 -0.4967 -0.7748
  156SAPE     N17346   5.373   4.368  10.321 -0.7918  0.2076 -0.3698
  156SAPE   HN117347   5.356   4.300  10.398 -0.2577 -0.8905 -1.2111
  156SAPE   HN217348   5.459   4.417  10.352  0.4900 -1.0851 -1.7530
  156SAPE   HN317349   5.287   4.427  10.311  0.5046  2.0924 -0.9435
  156SAPE   C1217350   5.409   4.297  10.198 -0.5205  0.0263 -0.1674
  156SAPE  H12A17351   5.476   4.367  10.143 -3.2051  2.9117 -0.0459
  156SAPE  H12B17352   5.318   4.278  10.137 -0.9274 -0.7631  0.6719
  156SAPE   C1117353   5.487   4.170  10.230  0.5616  0.2093  0.3433
  156SAPE  H11A17354   5.534   4.132  10.137 -1.6333 -2.8476  0.3262
  156SAPE  H11B17355   5.410   4.093  10.253  0.1797  0.1719 -1.0077
  156SAPE     P17356   5.672   4.063  10.360  0.1488  0.1041  0.5787
  156SAPE   O1317357   5.784   4.073  10.263 -0.5832  0.3558 -0.1281
  156SAPE   O1417358   5.700   4.063  10.509  0.5959  0.8172 -0.0084
  156SAPE   O1217359   5.584   4.188  10.331  0.0747  0.2634  0.3066
  156SAPE   O1117360   5.584   3.934  10.325  0.3186  0.1183 -0.7507
  156SAPE    C117361   5.660   3.817  10.269 -0.5933 -0.1181 -0.2601
  156SAPE    HA17362   5.764   3.817  10.309 -0.4902 -1.4186 -0.5135
  156SAPE    HB17363   5.616   3.723  10.308  0.4086 -0.6020 -0.2718
  156SAPE    C217364   5.673   3.820  10.116 -0.5721 -0.3172  0.3832
  156SAPE    HS17365   5.717   3.913  10.073 -0.8099 -0.9944 -1.4260
  156SAPE   O2117366   5.539   3.798  10.073  0.2857  0.2436  0.3101
  156SAPE   C2117367   5.492   3.861   9.966 -1.1872 -0.2624 -0.1939
  156SAPE   O2217368   5.556   3.941   9.894  0.0803 -0.2247  0.2988
  156SAPE   C2217369   5.342   3.836   9.954  0.4838 -1.1557 -0.5002
  156SAPE   H2R17370   5.342   3.738   9.901 -0.8940 -1.1333 -0.5711
  156SAPE   H2S17371   5.301   3.829  10.057  1.0096 -1.5643 -0.3152
  156SAPE    C317372   5.764   3.709  10.053 -0.2744  0.3125  0.2707
  156SAPE    HX17373   5.727   3.612  10.093 -0.2440  0.0862 -0.2404
  156SAPE    HY17374   5.870   3.716  10.086 -0.5958 -2.2749  2.2098
  156SAPE   O3117375   5.763   3.702   9.911  0.3866 -0.4237 -0.0374
  156SAPE   C3117376   5.821   3.800   9.847 -0.0708 -0.1722  0.4034
  156SAPE   O3217377   5.890   3.893   9.899  0.0816  0.3796 -0.3412
  156SAPE   C3217378   5.779   3.798   9.697  0.1533 -0.4172  0.4907
  156SAPE   H2X17379   5.683   3.853   9.697 -0.1189 -0.8780 -0.2580
  156SAPE   H2Y17380   5.770   3.692   9.664  0.2620 -0.6912  1.3311
  156SAPE   C2317381   5.269   3.927   9.852  0.2439 -0.5947 -0.1590
  156SAPE   H3R17382   5.335   3.995   9.795  0.6672  0.4070  1.4606
  156SAPE   H3S17383   5.204   4.003   9.899  1.7563  0.4186  0.3638
  156SAPE   C2417384   5.184   3.852   9.746  0.0919 -0.7921 -0.6135
  156SAPE   H4R17385   5.105   3.921   9.709  0.1023 -0.9592 -0.9527
  156SAPE   H4S17386   5.131   3.772   9.802 -1.9894  0.5162 -0.5967
  156SAPE   C2517387   5.256   3.797   9.626 -0.2045 -0.0247  0.0115
  156SAPE   H5R17388   5.245   3.687   9.620 -0.6649 -0.2410  3.1530
  156SAPE   C2617389   5.337   3.854   9.535 -0.7353  0.4825 -0.4740
  156SAPE   H6R17390   5.377   3.790   9.455  1.3982  1.5736 -0.3494
  156SAPE   C2717391   5.392   3.997   9.516  0.6990  0.0907 -0.5824
  156SAPE   H7R17392   5.480   4.012   9.582  0.8925  0.0308 -0.8228
  156SAPE   H7S17393   5.328   4.080   9.551  0.6162 -0.4847  0.6696
  156SAPE   C2817394   5.431   4.030   9.372  0.9436  0.1752  1.0908
  156SAPE   H8R17395   5.541   4.035   9.360  0.8603 -1.6809 -1.0906
  156SAPE   C2917396   5.345   4.028   9.264  0.1025  0.4907 -0.2812
  156SAPE   H9R17397   5.371   4.055   9.161 -1.8118  0.9678 -0.6740
  156SAPE  C21017398   5.196   4.011   9.276  0.3826  0.6748  1.0067
  156SAPE  H10R17399   5.168   4.104   9.224 -0.3870 -0.4659 -0.6935
  156SAPE  H10S17400   5.151   4.022   9.378 -0.0241  0.7509  0.8221
  156SAPE  C21117401   5.164   3.876   9.209 -0.0101 -0.1022  0.2673
  156SAPE  H11R17402   5.192   3.782   9.259 -1.1311 -1.0614 -0.8419
  156SAPE  C21217403   5.088   3.860   9.099 -0.3553 -0.8666  0.0564
  156SAPE  H12R17404   5.066   3.760   9.060 -0.9292 -0.4721 -0.6382
  156SAPE  C21317405   5.030   3.973   9.031  1.6671 -0.9978 -0.5526
  156SAPE  H13R17406   4.998   4.055   9.100 -0.6457  0.0429 -2.6742
  156SAPE  H13S17407   4.930   3.943   8.992  0.8172  1.0885 -0.1256
  156SAPE  C21417408   5.126   4.032   8.924  0.0619  0.8742 -0.4121
  156SAPE  H14R17409   5.196   4.104   8.968  1.2315 -1.5748  2.0426
  156SAPE  C21517410   5.110   4.012   8.793  0.3068 -0.4146  0.2910
  156SAPE  H15R17411   5.180   4.059   8.723  0.3538  2.4553  2.0942
  156SAPE  C21617412   5.007   3.933   8.730  0.4094 -0.6058 -0.3730
  156SAPE  H16R17413   4.975   3.984   8.637 -0.5066 -0.2170  0.1410
  156SAPE  H16S17414   4.915   3.924   8.792  0.8277 -1.9171  0.0891
  156SAPE  C21717415   5.053   3.783   8.701  0.2534  0.1507 -0.2178
  156SAPE  H17R17416   5.068   3.734   8.800  0.7181  1.6891  0.5089
  156SAPE  H17S17417   5.148   3.791   8.645 -0.2215 -0.9499 -1.2285
  156SAPE  C21817418   4.957   3.700   8.615 -0.2174 -0.3523 -0.3126
  156SAPE  H18R17419   4.980   3.591   8.606  0.3085 -0.2807  0.1012
  156SAPE  H18S17420   4.985   3.723   8.511  2.4654 -2.4510 -0.1694
  156SAPE  C21917421   4.812   3.715   8.654 -0.0749  0.3077  0.5437
  156SAPE  H19R17422   4.747   3.658   8.583  0.3764  0.9374 -0.3937
  156SAPE  H19S17423   4.786   3.823   8.651 -0.8923  0.1494 -3.1348
  156SAPE  C22017424   4.792   3.668   8.794 -0.1949 -0.0362  0.2534
  156SAPE  H20R17425   4.832   3.564   8.793 -0.5656 -0.1815 -0.0184
  156SAPE  H20S17426   4.685   3.664   8.827 -0.7798  0.2336 -1.5074
  156SAPE  H20T17427   4.846   3.731   8.867  2.1497 -2.2079  0.5247
  156SAPE   C3317428   5.886   3.854   9.603  0.6028  0.4664 -0.4955
  156SAPE   H3X17429   5.968   3.780   9.594  0.2821 -0.2121  1.6188
  156SAPE   H3Y17430   5.938   3.942   9.648  0.9428 -0.9607  2.1092
  156SAPE   C3417431   5.841   3.897   9.468 -0.3770  0.7927  0.2766
  156SAPE   H4X17432   5.924   3.952   9.418  0.3170 -0.0107  0.5220
  156SAPE   H4Y17433   5.754   3.965   9.479  0.5813  1.7292  2.8834
  156SAPE   C3517434   5.807   3.773   9.387  0.8882  1.1843 -0.1101
  156SAPE   H5X17435   5.707   3.729   9.411  2.0543 -2.3252 -1.0131
  156SAPE   H5Y17436   5.876   3.693   9.422  1.2036  1.7134  0.5029
  156SAPE   C3617437   5.830   3.788   9.242  0.5992 -0.5601  0.3878
  156SAPE   H6X17438   5.900   3.871   9.218 -1.3438  0.8015 -0.9348
  156SAPE   H6Y17439   5.741   3.838   9.196  1.3610  0.1824 -0.3109
  156SAPE   C3717440   5.888   3.666   9.173  0.5387  0.0706  0.1958
  156SAPE   H7X17441   5.810   3.588   9.168 -0.5770  1.1829 -0.2705
  156SAPE   H7Y17442   5.970   3.621   9.233 -0.3610 -0.7448  0.8515
  156SAPE   C3817443   5.931   3.706   9.029 -0.3773 -0.2702 -0.0729
  156SAPE   H8X17444   6.011   3.638   8.995  1.3806  1.0481  1.2279
  156SAPE   H8Y17445   5.987   3.801   9.043  0.5683 -0.9414  0.8252
  156SAPE   C3917446   5.815   3.723   8.926 -0.8271 -0.8421  0.3670
  156SAPE   H9X17447   5.734   3.778   8.979  1.5907  0.7080  2.6887
  156SAPE   H9Y17448   5.779   3.619   8.909 -2.3108  0.0962 -3.0839
  156SAPE  C31017449   5.847   3.787   8.790  0.1776  0.0825  0.1672
  156SAPE  H10X17450   5.751   3.791   8.734 -0.5702 -0.3403  1.3690
  156SAPE  H10Y17451   5.912   3.716   8.734 -0.7434  0.8407 -1.9256
  156SAPE  C31117452   5.910   3.925   8.791  0.2861  0.2293  0.1488
  156SAPE  H11X17453   6.013   3.921   8.833  0.1534 -0.3306  0.4404
  156SAPE  H11Y17454   5.859   3.982   8.872 -0.5102 -2.6659  1.8717
  156SAPE  C31217455   5.906   3.989   8.650  0.1488 -0.3245 -0.2531
  156SAPE  H12X17456   5.955   4.086   8.672 -2.3493  1.3662 -1.6177
  156SAPE  H12Y17457   5.807   4.019   8.609  1.1087  1.4762 -1.3955
  156SAPE  C31317458   5.987   3.908   8.538  0.3665 -0.1275 -0.9001
  156SAPE  H13X17459   6.063   3.841   8.582 -1.9288 -1.0777  1.9428
  156SAPE  H13Y17460   6.041   3.980   8.473  0.6023  1.3630  0.8815
  156SAPE  C31417461   5.882   3.835   8.451  0.1119  0.5370  0.5724
  156SAPE  H14X17462   5.803   3.901   8.410 -1.5826 -1.6282  0.1486
  156SAPE  H14Y17463   5.822   3.761   8.508 -2.4542  0.7114 -1.7033
  156SAPE  C31517464   5.938   3.769   8.322  0.3032 -0.7664  0.1127
  156SAPE  H15X17465   6.017   3.699   8.356  1.5101  1.0431  1.2528
  156SAPE  H15Y17466   5.989   3.852   8.269  3.0541 -0.8957  2.3337
  156SAPE  C31617467   5.834   3.707   8.226  0.6631  0.2457  0.7497
  156SAPE  H16X17468   5.775   3.627   8.275 -2.2696  1.4537 -0.5419
  156SAPE  H16Y17469   5.870   3.678   8.125 -0.5660  0.2231  0.3062
  156SAPE  C31717470   5.729   3.812   8.176 -0.1843 -0.1121 -0.3105
  156SAPE  H17X17471   5.769   3.915   8.165 -1.7092  0.9728  3.0451
  156SAPE  H17Y17472   5.635   3.807   8.235 -0.9316  0.1732 -1.4347
  156SAPE  C31817473   5.687   3.787   8.031  0.0939 -0.5374 -0.2430
  156SAPE  H18X17474   5.767   3.820   7.961 -0.0102  0.8300  0.2556
  156SAPE  H18Y17475   5.603   3.850   7.994 -0.1251 -0.9522 -0.4520
  156SAPE  H18Z17476   5.656   3.681   8.016  0.8486 -1.1653  2.1384
  157SAPE     N17477   4.832   2.813  10.849 -0.3889  0.0767  0.0696
  157SAPE   HN117478   4.838   2.916  10.836 -1.3991  0.2692  1.0338
  157SAPE   HN217479   4.889   2.771  10.773  1.1738 -0.1320  1.3151
  157SAPE   HN317480   4.731   2.791  10.842 -0.2786 -0.6227  0.5583
  157SAPE   C1217481   4.903   2.768  10.971 -0.0725  0.2655  0.4182
  157SAPE  H12A17482   4.895   2.657  10.965  1.1345  0.2432 -1.4139
  157SAPE  H12B17483   4.852   2.814  11.059  0.4437 -1.6165  1.7850
  157SAPE   C1117484   5.051   2.812  10.969  0.3732  0.1148 -0.3302
  157SAPE  H11A17485   5.105   2.743  10.900 -0.0433 -0.0615 -0.4839
  157SAPE  H11B17486   5.075   2.790  11.076 -0.8762  0.1771 -0.0149
  157SAPE     P17487   5.160   3.006  10.836  0.1867 -0.4335  0.0576
  157SAPE   O1317488   5.103   3.136  10.782 -0.6948  0.4293 -0.4004
  157SAPE   O1417489   5.290   3.015  10.904 -0.8645 -0.3358  0.3932
  157SAPE   O1217490   5.060   2.948  10.943 -0.0402 -0.3882  0.3742
  157SAPE   O1117491   5.156   2.898  10.723 -0.0036  0.1026  0.1892
  157SAPE    C117492   5.261   2.908  10.626 -0.5441  0.6260  0.3219
  157SAPE    HA17493   5.233   2.969  10.538 -2.4374  0.0765  0.5087
  157SAPE    HB17494   5.359   2.952  10.654  0.1327  0.9283 -2.2958
  157SAPE    C217495   5.299   2.767  10.566  0.1826 -0.3064  0.0652
  157SAPE    HS17496   5.401   2.770  10.523 -0.1021 -0.0653 -0.6138
  157SAPE   O2117497   5.204   2.722  10.464  0.0251 -0.4112 -0.2152
  157SAPE   C2117498   5.219   2.801  10.357  0.4494  0.5841 -0.7984
  157SAPE   O2217499   5.306   2.882  10.348 -0.0887  0.2984 -1.0225
  157SAPE   C2217500   5.106   2.767  10.264 -0.3473  0.2552  0.1438
  157SAPE   H2R17501   5.118   2.662  10.232  1.0618  0.8463 -1.4377
  157SAPE   H2S17502   5.011   2.768  10.322  0.4493 -1.0337  1.5216
  157SAPE    C317503   5.313   2.659  10.677  0.1789  0.0732 -0.4432
  157SAPE    HX17504   5.215   2.648  10.728  0.8935 -4.2353  0.4011
  157SAPE    HY17505   5.382   2.694  10.757 -1.7146 -0.2802  1.4208
  157SAPE   O3117506   5.347   2.523  10.638  0.2921 -0.3669 -0.0461
  157SAPE   C3117507   5.476   2.513  10.600  0.6317  0.4603 -0.0936
  157SAPE   O3217508   5.554   2.604  10.605 -0.3289 -0.6528  0.1562
  157SAPE   C3217509   5.516   2.371  10.581 -0.1286  0.7396 -0.0064
  157SAPE   H2X17510   5.480   2.322  10.674  0.8596 -1.2974 -0.6519
  157SAPE   H2Y17511   5.627   2.367  10.572 -0.3193 -2.3004 -2.0333
  157SAPE   C2317512   5.091   2.857  10.140 -0.4655  0.7797 -0.6154
  157SAPE   H3R17513   5.183   2.905  10.098 -0.6586  0.6325 -1.2226
  157SAPE   H3S17514   5.032   2.941  10.180  0.7558  0.4114  2.1755
  157SAPE   C2417515   5.027   2.773  10.030 -0.0683 -0.3202  0.8182
  157SAPE   H4R17516   4.991   2.845   9.952  2.5973 -1.1178 -1.2837
  157SAPE   H4S17517   4.933   2.731  10.071 -1.0673 -0.7872 -1.7218
  157SAPE   C2517518   5.107   2.666   9.960 -0.3741  0.1790  0.5105
  157SAPE   H5R17519   5.181   2.607  10.017  0.6841 -0.0036 -0.9938
  157SAPE   C2617520   5.088   2.619   9.837 -0.1859 -0.3531 -0.4582
  157SAPE   H6R17521   5.155   2.540   9.801 -1.2215 -1.9166  0.8715
  157SAPE   C2717522   4.985   2.663   9.735  0.6518 -0.0834  0.1525
  157SAPE   H7R17523   5.035   2.705   9.645 -1.8417  1.2650 -0.6800
  157SAPE   H7S17524   4.951   2.760   9.777  1.5522  0.2580  0.1204
  157SAPE   C2817525   4.879   2.552   9.706  0.7306  0.5807  0.0809
  157SAPE   H8R17526   4.913   2.465   9.650 -0.1614  1.3534 -1.7357
  157SAPE   C2917527   4.745   2.548   9.742 -0.6781 -0.0993 -0.1873
  157SAPE   H9R17528   4.689   2.460   9.710  1.0196 -1.0844 -0.5611
  157SAPE  C21017529   4.672   2.655   9.820 -0.4127 -0.1471 -0.5758
  157SAPE  H10R17530   4.572   2.671   9.774 -0.6771  1.2219  0.4123
  157SAPE  H10S17531   4.723   2.753   9.807  1.4784 -1.1969 -1.3534
  157SAPE  C21117532   4.651   2.617   9.960 -0.2680 -0.8290 -0.7660
  157SAPE  H11R17533   4.705   2.529   9.998  1.4405 -0.2095 -1.6146
  157SAPE  C21217534   4.568   2.685  10.045  0.6800 -0.0955  0.1078
  157SAPE  H12R17535   4.569   2.646  10.148  0.4956 -1.7622 -0.4779
  157SAPE  C21317536   4.482   2.797  10.011 -0.1776 -0.1003  0.3060
  157SAPE  H13R17537   4.472   2.827   9.904  0.1093  1.9657  0.8241
  157SAPE  H13S17538   4.520   2.896  10.046  2.1147 -0.3958 -1.0948
  157SAPE  C21417539   4.342   2.778  10.061 -0.4964  0.5564 -0.0413
  157SAPE  H14R17540   4.315   2.813  10.161  0.6036 -1.0708  0.8595
  157SAPE  C21517541   4.241   2.713   9.997  0.1609 -0.6999 -0.1693
  157SAPE  H15R17542   4.144   2.715  10.049 -0.2039 -0.9675 -0.8218
  157SAPE  C21617543   4.230   2.644   9.861  0.7860 -1.0638 -0.0858
  157SAPE  H16R17544   4.182   2.547   9.885  1.9171 -1.4814  0.5917
  157SAPE  H16S17545   4.335   2.625   9.827  1.9225  3.4453  0.2375
  157SAPE  C21717546   4.164   2.721   9.742  0.3968 -0.2084  0.2919
  157SAPE  H17R17547   4.237   2.801   9.718 -0.4024  0.9062  1.4308
  157SAPE  H17S17548   4.068   2.765   9.778  0.2379  0.2869 -0.6930
  157SAPE  C21817549   4.147   2.625   9.624  0.2171  0.4680 -0.1909
  157SAPE  H18R17550   4.084   2.671   9.544 -0.2488 -1.2258 -0.8412
  157SAPE  H18S17551   4.082   2.537   9.645  0.2569 -0.0795 -2.1084
  157SAPE  C21917552   4.277   2.558   9.572  0.7411 -0.2949  0.4124
  157SAPE  H19R17553   4.336   2.500   9.645  0.8460 -2.3246 -1.1830
  157SAPE  H19S17554   4.346   2.637   9.535 -1.0645  0.4864 -1.5068
  157SAPE  C22017555   4.239   2.473   9.449 -1.1816 -0.6396  0.0202
  157SAPE  H20R17556   4.314   2.391   9.437  0.2183  0.6321 -0.2323
  157SAPE  H20S17557   4.232   2.535   9.358 -0.4851  1.0149  1.0480
  157SAPE  H20T17558   4.138   2.427   9.458 -1.6150  0.0047 -1.3188
  157SAPE   C3317559   5.459   2.301  10.458 -0.1527  0.4765 -0.3064
  157SAPE   H3X17560   5.352   2.271  10.467  0.5291 -2.5873 -1.1407
  157SAPE   H3Y17561   5.519   2.209  10.444  0.8569  0.8009  1.5109
  157SAPE   C3417562   5.466   2.390  10.332  0.3853  0.9183 -0.8579
  157SAPE   H4X17563   5.570   2.429  10.326  0.1138  1.8567  0.3176
  157SAPE   H4Y17564   5.403   2.480  10.341  0.4391  0.7285  2.4855
  157SAPE   C3517565   5.449   2.295  10.215  0.3873  0.1426 -0.5256
  157SAPE   H5X17566   5.357   2.237  10.236  0.5192 -0.8646 -2.5066
  157SAPE   H5Y17567   5.534   2.224  10.221  1.2712  1.2929  2.8882
  157SAPE   C3617568   5.425   2.369  10.085 -0.4103  0.1484  0.3720
  157SAPE   H6X17569   5.501   2.450  10.080  0.0549 -0.3256 -0.7541
  157SAPE   H6Y17570   5.327   2.418  10.068  0.8076  2.0784 -1.7673
  157SAPE   C3717571   5.456   2.285   9.960  0.1670  0.5661  0.0843
  157SAPE   H7X17572   5.391   2.195   9.957 -0.3065  0.9299 -2.4203
  157SAPE   H7Y17573   5.561   2.249   9.969 -0.0438 -0.5357 -1.5401
  157SAPE   C3817574   5.451   2.367   9.829  0.4434 -0.1812 -0.4725
  157SAPE   H8X17575   5.520   2.454   9.832  1.0649 -0.6930  0.9289
  157SAPE   H8Y17576   5.350   2.407   9.807 -0.0824 -1.0578  0.2594
  157SAPE   C3917577   5.479   2.277   9.705 -0.1613  0.0636  0.2862
  157SAPE   H9X17578   5.428   2.179   9.715  0.3890 -0.1586  0.9608
  157SAPE   H9Y17579   5.586   2.256   9.685 -0.5765 -0.8787 -1.1276
  157SAPE  C31017580   5.422   2.341   9.571  0.2862  0.4634  0.1881
  157SAPE  H10X17581   5.488   2.423   9.536  0.3419  0.7880  1.0144
  157SAPE  H10Y17582   5.323   2.388   9.588 -0.1677 -0.2456 -0.4354
  157SAPE  C31117583   5.405   2.244   9.452 -0.1493  0.0854 -0.2186
  157SAPE  H11X17584   5.380   2.308   9.366 -1.6163 -1.8309 -1.2963
  157SAPE  H11Y17585   5.322   2.172   9.468 -0.1106  0.1935  0.5052
  157SAPE  C31217586   5.528   2.165   9.412 -0.5373 -0.4063  0.5178
  157SAPE  H12X17587   5.555   2.097   9.495  1.7763 -0.1617  0.0224
  157SAPE  H12Y17588   5.605   2.244   9.407 -0.1587 -0.7906  0.2143
  157SAPE  C31317589   5.507   2.110   9.277  0.0640 -0.8149 -0.0130
  157SAPE  H13X17590   5.501   2.194   9.205  0.3130 -0.3526  0.4963
  157SAPE  H13Y17591   5.408   2.061   9.261 -1.6744  2.4813 -0.2240
  157SAPE  C31417592   5.609   2.000   9.241  0.0895  0.0760  0.9857
  157SAPE  H14X17593   5.603   1.909   9.304  1.1021  0.9447  2.4073
  157SAPE  H14Y17594   5.710   2.047   9.246  1.1879 -2.0639  0.0321
  157SAPE  C31517595   5.579   1.965   9.088 -0.2716  1.1096 -0.2049
  157SAPE  H15X17596   5.553   2.047   9.017 -1.3682  0.7848 -0.1933
  157SAPE  H15Y17597   5.496   1.891   9.096  1.1649 -0.4774  0.7063
  157SAPE  C31617598   5.694   1.878   9.031  0.3144 -0.1741 -0.1387
  157SAPE  H16X17599   5.685   1.781   9.086  1.5334  0.3990  1.1221
  157SAPE  H16Y17600   5.789   1.925   9.061 -0.9596  1.1520  2.0868
  157SAPE  C31717601   5.670   1.852   8.875 -0.4636  0.6042  0.0696
  157SAPE  H17X17602   5.684   1.949   8.823 -0.8645  0.0823 -1.0414
  157SAPE  H17Y17603   5.563   1.824   8.862 -0.0833 -0.6931 -0.4787
  157SAPE  C31817604   5.763   1.747   8.818  0.6588 -0.2695  0.0453
  157SAPE  H18X17605   5.857   1.792   8.782  1.0593  1.2924  2.7446
  157SAPE  H18Y17606   5.717   1.697   8.730  1.2452 -0.0536 -0.3846
  157SAPE  H18Z17607   5.785   1.674   8.900  0.9371  0.7903  0.9382
  158SAPE     N17608   6.046   4.077  10.269 -0.2339 -0.0217  0.3685
  158SAPE   HN117609   6.082   4.007  10.338 -1.2570 -1.6478 -0.6773
  158SAPE   HN217610   5.943   4.064  10.278 -0.0009 -1.7956  0.8770
  158SAPE   HN317611   6.059   4.041  10.173  0.4463 -1.1090  0.8432
  158SAPE   C1217612   6.087   4.217  10.289  0.0652  0.3129 -0.5223
  158SAPE  H12A17613   6.045   4.277  10.205  0.7198  0.0220 -1.0658
  158SAPE  H12B17614   6.198   4.214  10.284  0.0671  1.4314 -3.4573
  158SAPE   C1117615   6.048   4.281  10.427 -0.4596  0.5324 -0.5716
  158SAPE  H11A17616   5.941   4.302  10.406 -0.9590 -2.1811 -0.9846
  158SAPE  H11B17617   6.109   4.372  10.444  1.2058 -0.6185 -0.1940
  158SAPE     P17618   6.132   4.197  10.661  0.1863 -0.1488 -0.2415
  158SAPE   O1317619   6.118   4.335  10.710 -0.5747 -0.4728 -0.7355
  158SAPE   O1417620   6.097   4.082  10.752  0.2392 -0.3574 -0.2256
  158SAPE   O1217621   6.048   4.184  10.531  0.4738  0.1368  0.7627
  158SAPE   O1117622   6.275   4.189  10.612 -0.6831 -0.5141 -0.3600
  158SAPE    C117623   6.327   4.068  10.568  0.0563  0.0461  0.5434
  158SAPE    HA17624   6.329   3.995  10.651 -3.0798  1.3211  1.9264
  158SAPE    HB17625   6.255   4.021  10.498  0.2231 -0.8305  0.9518
  158SAPE    C217626   6.460   4.100  10.494 -0.0664 -0.0438 -0.5063
  158SAPE    HS17627   6.545   4.122  10.562 -0.4962 -0.1704  0.0776
  158SAPE   O2117628   6.435   4.210  10.405  0.3417 -0.1008  0.1388
  158SAPE   C2117629   6.483   4.330  10.444  0.5146 -0.0701  0.0441
  158SAPE   O2217630   6.537   4.351  10.550  0.1293  0.0422 -0.1268
  158SAPE   C2217631   6.438   4.433  10.339 -0.1373  0.0041 -0.3432
  158SAPE   H2R17632   6.329   4.417  10.321 -0.1524  0.6205 -0.8194
  158SAPE   H2S17633   6.463   4.531  10.384  1.0041  0.1290 -1.1973
  158SAPE    C317634   6.492   3.968  10.414 -0.1236  0.0051  0.0060
  158SAPE    HX17635   6.404   3.931  10.359 -2.0421  1.9549  1.5702
  158SAPE    HY17636   6.523   3.892  10.489  2.9799  0.1586 -0.9856
  158SAPE   O3117637   6.603   3.991  10.332  0.1579 -0.4949  0.1959
  158SAPE   C3117638   6.577   4.021  10.207 -0.1855 -0.0147  0.3680
  158SAPE   O3217639   6.468   4.016  10.148  0.0727  0.8386 -0.2140
  158SAPE   C3217640   6.700   4.059  10.138 -0.8625 -0.3190 -0.0900
  158SAPE   H2X17641   6.769   3.971  10.137 -1.4528 -0.8127 -2.6368
  158SAPE   H2Y17642   6.749   4.149  10.183 -0.2368 -0.3062 -0.7832
  158SAPE   C2317643   6.519   4.433  10.202  0.3764  0.2463 -0.5745
  158SAPE   H3R17644   6.479   4.500  10.123  0.6764  2.2455  0.8851
  158SAPE   H3S17645   6.529   4.327  10.171  1.9480  0.1978  0.0337
  158SAPE   C2417646   6.659   4.483  10.228 -0.1165 -0.1770 -0.0571
  158SAPE   H4R17647   6.731   4.438  10.156  0.2904 -0.5510  0.5782
  158SAPE   H4S17648   6.698   4.444  10.324 -0.3625  0.2528  0.2187
  158SAPE   C2517649   6.682   4.633  10.246 -0.3861  0.1251  0.3940
  158SAPE   H5R17650   6.619   4.684  10.320 -2.1289 -0.5237 -0.5757
  158SAPE   C2617651   6.776   4.699  10.179  0.0943 -0.7696  0.4573
  158SAPE   H6R17652   6.784   4.807  10.199 -0.4686 -0.2761 -1.7551
  158SAPE   C2717653   6.873   4.653  10.078  0.4899  0.1872  0.2731
  158SAPE   H7R17654   6.837   4.696   9.981  0.9082  1.1700  0.5346
  158SAPE   H7S17655   6.884   4.545  10.056 -0.6697  0.4401 -1.9056
  158SAPE   C2817656   7.019   4.692  10.095 -0.8073  0.1221 -0.2683
  158SAPE   H8R17657   7.042   4.682  10.202 -0.2319 -1.0282 -0.4778
  158SAPE   C2917658   7.112   4.737  10.002  0.3041  1.1402 -0.2613
  158SAPE   H9R17659   7.216   4.759  10.029  0.4961  1.4172 -1.1830
  158SAPE  C21017660   7.078   4.764   9.860  0.8663 -0.2260  0.0495
  158SAPE  H10R17661   6.984   4.714   9.827  3.2596 -3.1839 -2.9993
  158SAPE  H10S17662   7.143   4.700   9.797 -0.3797  0.4022 -1.9520
  158SAPE  C21117663   7.094   4.906   9.821  0.0160 -0.0915 -0.6694
  158SAPE  H11R17664   7.155   4.959   9.897  2.7692 -0.4320 -2.4985
  158SAPE  C21217665   7.065   4.971   9.707 -0.2115 -0.6199  0.4512
  158SAPE  H12R17666   7.079   5.080   9.706  1.8542 -0.8422 -0.6616
  158SAPE  C21317667   7.008   4.916   9.573  0.0658 -0.6743  0.2795
  158SAPE  H13R17668   6.903   4.883   9.588  0.2027 -0.9367  0.6904
  158SAPE  H13S17669   7.063   4.821   9.554  0.4017 -0.2006 -1.2206
  158SAPE  C21417670   7.033   5.005   9.455  0.7975 -0.8493 -0.3405
  158SAPE  H14R17671   6.965   5.091   9.451  1.2084 -0.5083 -0.0791
  158SAPE  C21517672   7.112   4.991   9.352  0.1887 -0.0535 -0.3115
  158SAPE  H15R17673   7.118   5.080   9.286  2.0437 -0.9220 -1.4022
  158SAPE  C21617674   7.204   4.877   9.312  0.3808  0.0707  0.1360
  158SAPE  H16R17675   7.229   4.812   9.398 -2.3488 -0.5569  0.5659
  158SAPE  H16S17676   7.292   4.925   9.265 -0.9047  2.8162  0.3222
  158SAPE  C21717677   7.137   4.780   9.213  0.2235 -0.0637  0.4730
  158SAPE  H17R17678   7.054   4.727   9.265 -1.0660 -0.2684 -1.6613
  158SAPE  H17S17679   7.199   4.691   9.188  0.0987  0.1192 -0.5468
  158SAPE  C21817680   7.099   4.829   9.077  0.1121 -0.1348 -0.1675
  158SAPE  H18R17681   7.030   4.916   9.082  1.8126  1.2832 -0.5042
  158SAPE  H18S17682   7.048   4.747   9.022 -1.5932 -0.4779  1.8031
  158SAPE  C21917683   7.218   4.883   8.997 -0.3215 -0.0778  0.7270
  158SAPE  H19R17684   7.251   4.972   9.055  0.2733  0.3356 -0.2272
  158SAPE  H19S17685   7.184   4.912   8.896 -0.7977 -1.0400  0.6011
  158SAPE  C22017686   7.345   4.791   8.994  0.0032  0.4208  0.0607
  158SAPE  H20R17687   7.394   4.767   9.091  1.4152 -1.4788 -1.0503
  158SAPE  H20S17688   7.418   4.842   8.928 -0.8462  1.6845  0.0676
  158SAPE  H20T17689   7.305   4.699   8.945 -3.6210  0.7775  1.9941
  158SAPE   C3317690   6.679   4.118   9.998 -0.2025  0.9562 -0.2141
  158SAPE   H3X17691   6.636   4.220   9.996 -2.7348 -0.0256 -1.0816
  158SAPE   H3Y17692   6.609   4.056   9.938 -1.1626  0.5310  1.2914
  158SAPE   C3417693   6.810   4.128   9.926 -0.2084  0.0612 -0.2122
  158SAPE   H4X17694   6.867   4.033   9.939  0.2529  0.4681  0.8607
  158SAPE   H4Y17695   6.857   4.200   9.996 -3.0473 -0.2878  2.2186
  158SAPE   C3517696   6.810   4.186   9.781  0.3089 -0.1372  0.7801
  158SAPE   H5X17697   6.913   4.194   9.742 -0.1088  2.4731  0.0183
  158SAPE   H5Y17698   6.756   4.283   9.776 -0.8732 -0.7849  0.4927
  158SAPE   C3617699   6.728   4.091   9.688  0.0654  0.1377  0.8063
  158SAPE   H6X17700   6.623   4.127   9.686  0.6304  2.2477  3.1282
  158SAPE   H6Y17701   6.740   3.986   9.722  0.3453 -0.7328 -1.8003
  158SAPE   C3717702   6.783   4.089   9.541 -0.1217 -0.7423 -0.2347
  158SAPE   H7X17703   6.888   4.053   9.537  0.1174  0.0276 -1.1093
  158SAPE   H7Y17704   6.775   4.192   9.502  2.6082  0.5918  2.3520
  158SAPE   C3817705   6.705   3.993   9.451 -0.3771 -0.4461 -0.0802
  158SAPE   H8X17706   6.601   4.029   9.434 -0.0894  0.5612  0.1815
  158SAPE   H8Y17707   6.715   3.891   9.492 -1.2137 -1.2323 -1.7350
  158SAPE   C3917708   6.773   3.978   9.309 -0.2441  0.0019 -0.8410
  158SAPE   H9X17709   6.867   3.922   9.326  0.1899  1.4593  2.2213
  158SAPE   H9Y17710   6.795   4.080   9.272  2.3551 -0.1365  0.1602
  158SAPE  C31017711   6.686   3.895   9.209 -0.4699 -0.6053  0.3644
  158SAPE  H10X17712   6.601   3.954   9.168 -1.7707 -1.6992  1.3841
  158SAPE  H10Y17713   6.637   3.820   9.274 -0.8333  1.2548  2.3509
  158SAPE  C31117714   6.769   3.838   9.090 -0.1881  0.3368  0.3147
  158SAPE  H11X17715   6.700   3.783   9.022 -0.4016  1.2143 -0.1973
  158SAPE  H11Y17716   6.843   3.765   9.129  0.6830 -1.2560 -3.7478
  158SAPE  C31217717   6.821   3.955   9.006 -1.3954  0.2491 -0.7929
  158SAPE  H12X17718   6.861   4.025   9.082 -0.6091  0.5379 -1.4579
  158SAPE  H12Y17719   6.735   4.005   8.956 -2.9208 -2.3610 -0.9738
  158SAPE  C31317720   6.923   3.904   8.907 -0.1261  1.6921  1.0615
  158SAPE  H13X17721   6.999   3.836   8.953 -1.0110 -0.8626 -0.9645
  158SAPE  H13Y17722   6.975   3.987   8.855  0.1166  1.0580  0.2501
  158SAPE  C31417723   6.865   3.801   8.802  0.5864 -0.6748 -0.2464
  158SAPE  H14X17724   6.833   3.712   8.861  1.0574  0.5588  1.9833
  158SAPE  H14Y17725   6.948   3.766   8.737  1.2784  0.7207 -0.1611
  158SAPE  C31517726   6.746   3.855   8.724  0.6496 -0.6453  0.1876
  158SAPE  H15X17727   6.778   3.938   8.657 -2.1470  1.0332  0.7672
  158SAPE  H15Y17728   6.668   3.893   8.793  1.9075  2.2580  0.1642
  158SAPE  C31617729   6.691   3.739   8.645 -0.0564  0.1202  0.9313
  158SAPE  H16X17730   6.656   3.661   8.716 -0.8854 -0.1252  0.2743
  158SAPE  H16Y17731   6.770   3.688   8.585 -1.6026  0.5104 -1.5957
  158SAPE  C31717732   6.582   3.765   8.538  0.1358  0.3031 -0.4249
  158SAPE  H17X17733   6.535   3.673   8.498  0.4818 -0.2867  0.4816
  158SAPE  H17Y17734   6.625   3.817   8.450  1.5364  0.7998  0.5155
  158SAPE  C31817735   6.460   3.845   8.594  0.4775 -0.0229 -0.1091
  158SAPE  H18X17736   6.402   3.788   8.669 -0.2066  1.9744  0.9795
  158SAPE  H18Y17737   6.395   3.883   8.513  1.2152  2.5484  0.3983
  158SAPE  H18Z17738   6.490   3.941   8.643 -1.2820 -0.8036  2.7663
  159SAPE     N17739   4.800   3.364   6.303  0.6854 -0.0854  0.3092
  159SAPE   HN117740   4.792   3.271   6.257  1.3268 -1.6832  3.1813
  159SAPE   HN217741   4.725   3.429   6.269  2.0835  3.1673  2.9515
  159SAPE   HN317742   4.889   3.409   6.274 -0.2621  2.0546  0.5104
  159SAPE   C1217743   4.781   3.342   6.450  0.0539  0.3848  0.5666
  159SAPE  H12A17744   4.739   3.438   6.487 -0.6621 -0.1407  1.1450
  159SAPE  H12B17745   4.880   3.332   6.499  0.4575  0.6244 -0.1749
  159SAPE   C1117746   4.694   3.222   6.476 -0.0821  0.4618  0.2723
  159SAPE  H11A17747   4.589   3.251   6.456  0.0763  2.3572  1.8712
  159SAPE  H11B17748   4.690   3.211   6.587  1.9479 -0.7941  0.2805
  159SAPE     P17749   4.636   2.980   6.386  0.1740  0.0164  0.3371
  159SAPE   O1317750   4.522   3.033   6.306  0.0970 -0.2596  0.3913
  159SAPE   O1417751   4.724   2.880   6.326 -0.3581  0.3072  0.5816
  159SAPE   O1217752   4.737   3.092   6.422 -1.0446 -0.3066  0.0258
  159SAPE   O1117753   4.587   2.909   6.519 -0.1855 -0.1405  0.6145
  159SAPE    C117754   4.680   2.843   6.604  0.1093 -0.3162 -0.4241
  159SAPE    HA17755   4.662   2.735   6.591  0.2571 -0.3618 -0.2603
  159SAPE    HB17756   4.787   2.866   6.586  0.3195 -2.0916 -1.5975
  159SAPE    C217757   4.652   2.876   6.756  0.5722 -0.4956 -1.0332
  159SAPE    HS17758   4.700   2.974   6.773  1.9874 -0.9257 -2.3274
  159SAPE   O2117759   4.691   2.767   6.836  0.2819 -0.6953  0.0264
  159SAPE   C2117760   4.821   2.777   6.876  0.7196  0.4125 -0.2730
  159SAPE   O2217761   4.898   2.871   6.862  0.5208  0.6297 -0.0783
  159SAPE   C2217762   4.859   2.650   6.947 -0.0551 -0.2304  0.4181
  159SAPE   H2R17763   4.781   2.572   6.940  0.2689 -0.7502  2.0672
  159SAPE   H2S17764   4.961   2.634   6.907  0.6421  2.3626  0.9333
  159SAPE    C317765   4.500   2.899   6.779  0.1818  1.0743  0.2849
  159SAPE    HX17766   4.439   2.809   6.755 -1.2180  2.0771  0.0090
  159SAPE    HY17767   4.462   2.974   6.707  2.8977  1.7844 -0.5102
  159SAPE   O3117768   4.480   2.955   6.906 -0.0459  0.0593 -0.7327
  159SAPE   C3117769   4.451   2.863   6.993  0.0595 -0.6909  0.0774
  159SAPE   O3217770   4.457   2.739   6.981  0.4593 -0.9559  0.4393
  159SAPE   C3217771   4.417   2.925   7.125 -0.1704 -0.3346  0.3842
  159SAPE   H2X17772   4.350   3.013   7.112  1.1691  1.4893  4.2234
  159SAPE   H2Y17773   4.513   2.962   7.168  0.8415  0.6796 -2.4741
  159SAPE   C2317774   4.874   2.679   7.101 -0.3263 -0.0356  0.1800
  159SAPE   H3R17775   4.932   2.773   7.114  0.8004 -0.9256  1.9646
  159SAPE   H3S17776   4.952   2.614   7.145  0.5250  1.4199  0.8690
  159SAPE   C2417777   4.746   2.706   7.187 -0.2830 -0.6869 -0.6012
  159SAPE   H4R17778   4.673   2.763   7.125 -1.3147 -1.5779 -0.2362
  159SAPE   H4S17779   4.770   2.774   7.272  0.5907  1.0810 -2.2031
  159SAPE   C2517780   4.663   2.587   7.238  0.0497 -0.1789 -0.1819
  159SAPE   H5R17781   4.621   2.515   7.167 -2.0405  0.1817  0.6250
  159SAPE   C2617782   4.650   2.557   7.368 -0.4958  0.0585 -0.0106
  159SAPE   H6R17783   4.600   2.461   7.389 -1.1285  0.7872  2.0957
  159SAPE   C2717784   4.699   2.620   7.494  0.6151  0.5467  0.4811
  159SAPE   H7R17785   4.768   2.703   7.465 -0.7716  2.1583  1.5823
  159SAPE   H7S17786   4.764   2.550   7.552 -0.1979 -0.5113  0.1406
  159SAPE   C2817787   4.593   2.683   7.582  0.3345  0.4815 -0.6095
  159SAPE   H8R17788   4.572   2.786   7.551  1.7880  0.8994 -0.2494
  159SAPE   C2917789   4.531   2.628   7.689  0.0569 -0.7157 -0.2002
  159SAPE   H9R17790   4.450   2.692   7.727  1.0666 -0.1103  0.9847
  159SAPE  C21017791   4.541   2.486   7.739 -1.1957 -0.0162 -0.0604
  159SAPE  H10R17792   4.591   2.479   7.838 -3.1396  2.0393  1.1584
  159SAPE  H10S17793   4.607   2.427   7.671 -0.6592  1.7964 -1.2033
  159SAPE  C21117794   4.407   2.421   7.757  0.8361 -0.2013  0.2447
  159SAPE  H11R17795   4.351   2.386   7.668 -0.8792  0.5668  0.9801
  159SAPE  C21217796   4.334   2.422   7.871  0.2406 -0.4456  0.1382
  159SAPE  H12R17797   4.235   2.377   7.859 -0.9603  1.9119  0.7759
  159SAPE  C21317798   4.366   2.481   8.006 -0.3067 -0.2823 -0.6246
  159SAPE  H13R17799   4.276   2.538   8.037 -0.0137  0.1642 -0.5757
  159SAPE  H13S17800   4.445   2.559   7.998  0.9117 -1.5806 -1.7924
  159SAPE  C21417801   4.410   2.376   8.102 -0.5190  0.3489  0.2717
  159SAPE  H14R17802   4.491   2.308   8.073  0.7247  1.9160 -0.0717
  159SAPE  C21517803   4.355   2.371   8.225  0.7013  0.1804  1.0095
  159SAPE  H15R17804   4.398   2.293   8.289 -0.2598 -0.3936  0.9857
  159SAPE  C21617805   4.242   2.445   8.298  0.2758  0.4579 -0.9632
  159SAPE  H16R17806   4.216   2.544   8.253  0.0368  1.4503  1.2614
  159SAPE  H16S17807   4.285   2.467   8.398  0.7604  1.6136 -1.3937
  159SAPE  C21717808   4.111   2.375   8.315  0.1685 -0.0716 -0.5143
  159SAPE  H17R17809   4.140   2.278   8.361 -1.5371  0.2588  1.3986
  159SAPE  H17S17810   4.075   2.351   8.213 -2.8774  1.3133  0.1257
  159SAPE  C21817811   4.005   2.451   8.394  0.2182 -0.5164  0.1090
  159SAPE  H18R17812   4.020   2.560   8.408  0.1006 -0.6184  1.1753
  159SAPE  H18S17813   4.012   2.404   8.495  0.4308 -0.4947  0.1037
  159SAPE  C21917814   3.870   2.420   8.335 -0.5474  0.4879 -0.1631
  159SAPE  H19R17815   3.864   2.309   8.338  3.4246  0.1097  3.4144
  159SAPE  H19S17816   3.865   2.437   8.225 -1.4278  0.5210 -0.1258
  159SAPE  C22017817   3.759   2.505   8.396  0.1308  0.5535  0.4330
  159SAPE  H20R17818   3.773   2.614   8.377 -0.3940  0.2673 -1.8859
  159SAPE  H20S17819   3.741   2.470   8.499  0.2499  2.2556  1.0644
  159SAPE  H20T17820   3.669   2.473   8.340 -0.8777 -0.9627  2.7937
  159SAPE   C3317821   4.324   2.847   7.220 -0.6391 -0.2363  0.2578
  159SAPE   H3X17822   4.368   2.746   7.235  1.0608  0.6896  2.0106
  159SAPE   H3Y17823   4.225   2.832   7.172  0.5293 -1.2725 -1.9656
  159SAPE   C3417824   4.314   2.916   7.356  0.4022 -0.1214  0.4706
  159SAPE   H4X17825   4.273   3.019   7.347 -0.6731 -0.6268 -0.7018
  159SAPE   H4Y17826   4.419   2.930   7.389 -0.1717  0.9287  1.9725
  159SAPE   C3517827   4.228   2.842   7.461  0.1360  0.4645 -0.0683
  159SAPE   H5X17828   4.276   2.743   7.446 -1.6997 -0.2042 -2.1978
  159SAPE   H5Y17829   4.124   2.840   7.420  0.0269  2.0331  0.0849
  159SAPE   C3617830   4.235   2.892   7.603  0.6925 -0.5543  0.0960
  159SAPE   H6X17831   4.340   2.899   7.640 -0.1508  1.2339  2.3768
  159SAPE   H6Y17832   4.177   2.817   7.662  1.4357 -0.9107  0.3943
  159SAPE   C3717833   4.161   3.020   7.615  0.1198 -0.1327  0.0888
  159SAPE   H7X17834   4.056   3.024   7.580 -0.0513  3.7449  0.6472
  159SAPE   H7Y17835   4.223   3.080   7.545  1.1751  1.9225  2.6177
  159SAPE   C3817836   4.144   3.077   7.757 -0.5715  0.0780 -0.4881
  159SAPE   H8X17837   4.236   3.068   7.818  0.2419  1.1008 -1.5440
  159SAPE   H8Y17838   4.075   3.005   7.807 -0.1064 -0.1691 -0.2013
  159SAPE   C3917839   4.112   3.225   7.771  0.4886  0.7002  0.4544
  159SAPE   H9X17840   4.012   3.235   7.724  0.4432  0.6416  0.5376
  159SAPE   H9Y17841   4.183   3.281   7.706 -0.0732  0.1245 -0.6770
  159SAPE  C31017842   4.122   3.291   7.911  0.2113  0.3743  0.2026
  159SAPE  H10X17843   4.038   3.265   7.979  0.4027 -0.5328  0.1058
  159SAPE  H10Y17844   4.110   3.399   7.892  0.4867  0.0725 -1.9011
  159SAPE  C31117845   4.248   3.260   7.994 -0.5685 -0.1805  0.8657
  159SAPE  H11X17846   4.340   3.286   7.937 -1.2933 -0.7198 -0.6160
  159SAPE  H11Y17847   4.243   3.150   8.008 -1.7592 -0.4971 -1.5203
  159SAPE  C31217848   4.255   3.331   8.126  0.5690 -0.3786 -0.2259
  159SAPE  H12X17849   4.166   3.302   8.186  0.4873  2.8198  1.4394
  159SAPE  H12Y17850   4.244   3.440   8.104  1.6053 -0.3521 -0.6682
  159SAPE  C31317851   4.388   3.316   8.198  0.9758 -0.4379 -0.1490
  159SAPE  H13X17852   4.472   3.353   8.137  0.1072  1.0216 -0.5098
  159SAPE  H13Y17853   4.395   3.207   8.219 -0.0876 -0.4436  0.2491
  159SAPE  C31417854   4.383   3.393   8.328  0.0094 -0.5735 -0.3831
  159SAPE  H14X17855   4.296   3.369   8.393  0.6018 -1.7927 -0.0266
  159SAPE  H14Y17856   4.375   3.503   8.312  0.8563 -0.1233  1.9182
  159SAPE  C31517857   4.505   3.357   8.408  0.4298  0.7151  0.3844
  159SAPE  H15X17858   4.554   3.267   8.366 -3.4165 -1.1375 -0.6219
  159SAPE  H15Y17859   4.478   3.330   8.513  2.6140 -0.0062  0.8031
  159SAPE  C31617860   4.619   3.462   8.424  0.5091  0.6691 -0.1453
  159SAPE  H16X17861   4.686   3.418   8.501 -2.2139 -0.4705  1.7373
  159SAPE  H16Y17862   4.574   3.558   8.458  2.1162  0.9026  1.4664
  159SAPE  C31717863   4.707   3.478   8.295  0.7366 -0.9028  0.1735
  159SAPE  H17X17864   4.792   3.542   8.327  0.5779  0.5119 -1.9973
  159SAPE  H17Y17865   4.643   3.542   8.230 -0.3614 -0.0700  2.0207
  159SAPE  C31817866   4.757   3.353   8.225  0.3118 -0.2061  0.2938
  159SAPE  H18X17867   4.819   3.389   8.139 -1.9216 -0.2973 -1.4444
  159SAPE  H18Y17868   4.672   3.291   8.190 -0.5202 -0.1224  2.0718
  159SAPE  H18Z17869   4.824   3.294   8.291  2.2299  2.7450  1.1861
  160SAPE     N17870   3.532   3.501   6.211  0.8209  0.4051 -0.0972
  160SAPE   HN117871   3.454   3.513   6.279 -1.4690 -2.7471 -1.8807
  160SAPE   HN217872   3.510   3.411   6.163  2.0662 -0.9325  1.7270
  160SAPE   HN317873   3.612   3.484   6.274 -0.3274  0.0447  1.3176
  160SAPE   C1217874   3.543   3.616   6.125  0.0646 -0.2853  0.1654
  160SAPE  H12A17875   3.476   3.609   6.037  0.1863  2.8952 -0.2733
  160SAPE  H12B17876   3.646   3.625   6.087  0.5745  0.0807  1.5696
  160SAPE   C1117877   3.497   3.742   6.200  0.2378 -0.2254  0.0904
  160SAPE  H11A17878   3.484   3.825   6.128 -1.3750 -0.3114  0.2328
  160SAPE  H11B17879   3.580   3.764   6.270 -0.9127 -3.2100  2.6139
  160SAPE     P17880   3.299   3.848   6.331 -0.0959  0.2853 -0.1670
  160SAPE   O1317881   3.270   3.936   6.219 -0.3695  0.3456 -0.2707
  160SAPE   O1417882   3.189   3.794   6.411  0.3303  0.6949 -0.2116
  160SAPE   O1217883   3.372   3.720   6.277  0.3157 -0.3038  0.1007
  160SAPE   O1117884   3.416   3.899   6.425  0.2737 -0.1693  0.3096
  160SAPE    C117885   3.473   3.842   6.546 -0.1496 -0.0637 -0.4266
  160SAPE    HA17886   3.430   3.746   6.581  0.4594  0.3459  1.5690
  160SAPE    HB17887   3.580   3.819   6.525 -0.1148  0.1781 -0.5139
  160SAPE    C217888   3.460   3.933   6.673  0.1665 -0.2696 -0.1249
  160SAPE    HS17889   3.492   3.866   6.755  1.6182  1.8891  1.1800
  160SAPE   O2117890   3.328   3.984   6.691  0.0944 -0.4582 -0.3474
  160SAPE   C2117891   3.275   3.971   6.806  0.7524  0.8009 -0.1850
  160SAPE   O2217892   3.336   3.937   6.908 -0.0618 -0.7575  0.3374
  160SAPE   C2217893   3.130   4.000   6.801  0.9965  0.7227 -0.4895
  160SAPE   H2R17894   3.110   4.108   6.784 -0.1946  0.6576  0.3724
  160SAPE   H2S17895   3.080   3.931   6.729  0.3269 -1.5044  1.9450
  160SAPE    C317896   3.550   4.058   6.652 -0.3506 -0.9515 -0.4981
  160SAPE    HX17897   3.499   4.114   6.571 -0.4214 -0.8558 -0.3868
  160SAPE    HY17898   3.642   4.013   6.610  1.2535  1.7932 -0.1390
  160SAPE   O3117899   3.579   4.137   6.769  0.0185 -0.0675  0.1313
  160SAPE   C3117900   3.669   4.232   6.754  0.0087 -0.1259  0.4034
  160SAPE   O3217901   3.732   4.258   6.649 -1.2573 -0.9825 -0.1009
  160SAPE   C3217902   3.673   4.314   6.886 -0.2962 -0.0160  0.2385
  160SAPE   H2X17903   3.729   4.248   6.956 -0.0778  0.5093  0.5696
  160SAPE   H2Y17904   3.567   4.315   6.919 -0.2364  2.3632  0.5157
  160SAPE   C2317905   3.051   3.965   6.935  0.3562  0.1968  0.0535
  160SAPE   H3R17906   3.074   3.861   6.966 -2.7940 -1.0306 -1.2500
  160SAPE   H3S17907   2.941   3.958   6.916  0.5960 -1.2273 -0.9918
  160SAPE   C2417908   3.066   4.073   7.043 -0.4316 -0.1253  0.3658
  160SAPE   H4R17909   3.015   4.161   6.999 -1.5457 -1.0316 -0.2205
  160SAPE   H4S17910   3.172   4.100   7.062 -0.6830  0.8193  0.4502
  160SAPE   C2517911   3.005   4.041   7.173  0.2576  0.5321 -0.5018
  160SAPE   H5R17912   3.069   3.967   7.223 -1.4029 -1.7201 -1.5392
  160SAPE   C2617913   2.899   4.104   7.230  0.5489 -0.2289 -0.1646
  160SAPE   H6R17914   2.855   4.066   7.324 -2.0642  1.1612 -0.7071
  160SAPE   C2717915   2.811   4.218   7.174  0.5082  0.0793 -0.2684
  160SAPE   H7R17916   2.868   4.289   7.110  0.0059  0.5714 -0.1826
  160SAPE   H7S17917   2.772   4.288   7.251 -0.7703 -0.8096 -0.0747
  160SAPE   C2817918   2.698   4.138   7.111  0.7568  0.2393  0.0530
  160SAPE   H8R17919   2.721   4.067   7.030  0.9526 -1.8977  1.8952
  160SAPE   C2917920   2.562   4.140   7.135 -0.9165 -0.0086  0.1580
  160SAPE   H9R17921   2.488   4.086   7.074  0.0990 -0.8585 -0.3540
  160SAPE  C21017922   2.498   4.227   7.237  0.3111  0.7726 -0.1785
  160SAPE  H10R17923   2.413   4.279   7.188 -0.5627  2.8858  3.2561
  160SAPE  H10S17924   2.569   4.309   7.263  0.5775 -0.0944  2.0969
  160SAPE  C21117925   2.462   4.147   7.364  0.0058 -0.2912 -0.2598
  160SAPE  H11R17926   2.394   4.061   7.356  0.8117 -0.8860 -0.8535
  160SAPE  C21217927   2.517   4.157   7.486 -0.4580  0.4638 -0.1177
  160SAPE  H12R17928   2.486   4.091   7.569 -1.0373 -0.4032 -1.0025
  160SAPE  C21317929   2.622   4.254   7.534  1.0846 -0.3221  0.2396
  160SAPE  H13R17930   2.578   4.308   7.621  1.1094 -1.3088  0.8888
  160SAPE  H13S17931   2.634   4.328   7.452 -0.7283  0.8398  0.9634
  160SAPE  C21417932   2.757   4.191   7.568  0.5438 -0.3066  0.1563
  160SAPE  H14R17933   2.773   4.093   7.520 -2.8008 -1.5954  1.3961
  160SAPE  C21517934   2.862   4.245   7.646  0.4320 -0.0888  0.5513
  160SAPE  H15R17935   2.957   4.189   7.647 -0.7007 -2.1587 -1.1052
  160SAPE  C21617936   2.856   4.380   7.713  0.0078  0.1771  0.2891
  160SAPE  H16R17937   2.762   4.433   7.687 -0.7322 -2.3597 -2.8736
  160SAPE  H16S17938   2.935   4.439   7.662 -1.5149  2.3250  0.2678
  160SAPE  C21717939   2.886   4.382   7.862  0.5703  0.4634  0.4085
  160SAPE  H17R17940   2.934   4.475   7.900 -1.5069  1.6355  0.3007
  160SAPE  H17S17941   2.958   4.300   7.886 -0.4074 -1.0733 -1.6285
  160SAPE  C21817942   2.752   4.368   7.934 -0.4992  0.2397  0.2438
  160SAPE  H18R17943   2.703   4.275   7.899 -1.4515  1.2168 -1.1137
  160SAPE  H18S17944   2.693   4.459   7.912 -1.9946 -0.7939 -0.2342
  160SAPE  C21917945   2.768   4.369   8.087 -0.5620 -0.0391 -0.1552
  160SAPE  H19R17946   2.804   4.470   8.116 -2.0652 -0.2547  2.7860
  160SAPE  H19S17947   2.844   4.298   8.127  0.8563  2.2457  1.4314
  160SAPE  C22017948   2.637   4.352   8.159  0.2547 -0.6993  0.0354
  160SAPE  H20R17949   2.655   4.380   8.265  3.9050 -0.2397 -0.5887
  160SAPE  H20S17950   2.610   4.245   8.167 -2.6260 -0.4322 -3.4207
  160SAPE  H20T17951   2.554   4.405   8.107  1.0444 -0.2205 -0.7671
  160SAPE   C3317952   3.751   4.452   6.873  0.4135 -0.3548 -0.0036
  160SAPE   H3X17953   3.721   4.495   6.776 -1.7942 -0.5807  0.5276
  160SAPE   H3Y17954   3.862   4.450   6.862  0.3032  3.0155 -3.3545
  160SAPE   C3417955   3.711   4.550   6.981 -0.2427 -0.5541 -0.2033
  160SAPE   H4X17956   3.601   4.570   6.975 -0.3913 -1.5005 -0.8860
  160SAPE   H4Y17957   3.766   4.643   6.958 -0.1280 -0.6126 -0.1636
  160SAPE   C3517958   3.755   4.502   7.119  0.7582  0.1141 -0.1413
  160SAPE   H5X17959   3.866   4.505   7.113  0.8078 -0.7722  0.1277
  160SAPE   H5Y17960   3.722   4.396   7.125 -0.2837  0.4680  0.7459
  160SAPE   C3617961   3.697   4.582   7.241 -0.3322  0.0919  0.0568
  160SAPE   H6X17962   3.590   4.553   7.231 -0.3521  0.2278 -0.1355
  160SAPE   H6Y17963   3.715   4.690   7.228  0.4127  0.3149  2.5092
  160SAPE   C3717964   3.749   4.515   7.373  0.0650 -0.5146  0.1551
  160SAPE   H7X17965   3.859   4.525   7.385  0.1823  0.9537 -1.5718
  160SAPE   H7Y17966   3.734   4.405   7.371 -0.9884 -0.3949  0.5450
  160SAPE   C3817967   3.691   4.568   7.505  0.0611 -0.0300  0.5511
  160SAPE   H8X17968   3.738   4.496   7.575  0.0589 -3.1698 -2.4142
  160SAPE   H8Y17969   3.583   4.543   7.509 -0.4632  2.1171  1.1821
  160SAPE   C3917970   3.703   4.719   7.542  0.0146 -0.1659  1.0645
  160SAPE   H9X17971   3.644   4.770   7.463  1.1967  0.8683  0.8086
  160SAPE   H9Y17972   3.805   4.750   7.511 -0.9464  1.5133 -0.6397
  160SAPE  C31017973   3.672   4.752   7.684  0.1571  0.4233 -0.7554
  160SAPE  H10X17974   3.571   4.719   7.714  0.7024 -0.1757  0.4711
  160SAPE  H10Y17975   3.671   4.861   7.703 -0.6207 -0.0711  2.7011
  160SAPE  C31117976   3.770   4.688   7.783 -0.1099 -0.0442 -0.9257
  160SAPE  H11X17977   3.874   4.716   7.754  1.2112 -3.8122 -0.4095
  160SAPE  H11Y17978   3.759   4.578   7.790  1.7138 -0.1504  2.4547
  160SAPE  C31217979   3.751   4.740   7.927 -0.1619  0.1804  0.1339
  160SAPE  H12X17980   3.646   4.768   7.949 -0.0083  0.7374  0.1633
  160SAPE  H12Y17981   3.814   4.829   7.947 -1.8865  0.9162  2.7769
  160SAPE  C31317982   3.794   4.639   8.034 -0.5371  0.2273 -0.5208
  160SAPE  H13X17983   3.885   4.580   8.010  1.9489  2.6525  2.1705
  160SAPE  H13Y17984   3.716   4.559   8.039  0.9474 -1.2206  1.5080
  160SAPE  C31417985   3.810   4.692   8.170 -0.6428  0.0689 -0.0819
  160SAPE  H14X17986   3.875   4.782   8.179 -2.6535  1.3759  3.1715
  160SAPE  H14Y17987   3.866   4.619   8.234  1.3117  0.3031 -1.4277
  160SAPE  C31517988   3.672   4.729   8.240 -0.3891 -0.4712  0.1747
  160SAPE  H15X17989   3.597   4.647   8.242 -1.3459  0.3850  0.0504
  160SAPE  H15Y17990   3.623   4.811   8.184  1.5332 -0.0276 -0.9655
  160SAPE  C31617991   3.691   4.780   8.383 -0.6297 -0.9585 -0.5140
  160SAPE  H16X17992   3.605   4.830   8.434  2.6932  1.6810  3.1008
  160SAPE  H16Y17993   3.774   4.854   8.374 -2.4867  1.9528  3.4954
  160SAPE  C31717994   3.727   4.669   8.488  0.0045 -0.4064 -0.0798
  160SAPE  H17X17995   3.816   4.613   8.453 -0.6589 -2.3811  1.2194
  160SAPE  H17Y17996   3.650   4.589   8.489  2.3327 -2.8167 -1.7959
  160SAPE  C31817997   3.749   4.730   8.628  0.0813  0.3124 -0.1838
  160SAPE  H18X17998   3.825   4.811   8.636 -0.6820  0.9700  0.6153
  160SAPE  H18Y17999   3.773   4.653   8.704  0.0918  1.9257  1.5096
  160SAPE  H18Z18000   3.653   4.781   8.650 -0.0780  0.1354 -0.4699
  161SAPE     N18001   5.609   2.360   6.041 -0.4673  0.7603  0.4075
  161SAPE   HN118002   5.658   2.277   6.080 -0.1649  0.8174  0.1476
  161SAPE   HN218003   5.602   2.414   6.129 -2.5021  1.0907  0.1137
  161SAPE   HN318004   5.517   2.335   5.998 -0.8404 -0.0826  1.6452
  161SAPE   C1218005   5.697   2.432   5.945  0.2048 -0.3184  0.2684
  161SAPE  H12A18006   5.637   2.517   5.904 -1.7175 -1.9000 -0.3526
  161SAPE  H12B18007   5.732   2.364   5.864  4.0986  1.7064 -0.0024
  161SAPE   C1118008   5.821   2.484   6.020  0.7665  0.1961  0.3370
  161SAPE  H11A18009   5.792   2.554   6.101 -0.1960  0.3783 -0.1534
  161SAPE  H11B18010   5.880   2.537   5.943  0.1153  0.4730  0.0200
  161SAPE     P18011   6.006   2.388   6.175  0.1046 -0.3220  0.2324
  161SAPE   O1318012   6.084   2.265   6.192  0.2321  0.3882  0.2164
  161SAPE   O1418013   6.082   2.505   6.117  0.4028  0.7859 -0.4861
  161SAPE   O1218014   5.890   2.370   6.070 -0.1363 -0.6466 -0.7125
  161SAPE   O1118015   5.926   2.433   6.306 -0.5809  0.2338  0.3696
  161SAPE    C118016   5.873   2.328   6.391 -0.5718 -0.8228 -0.1204
  161SAPE    HA18017   5.767   2.361   6.396 -0.6900 -1.1633 -0.3892
  161SAPE    HB18018   5.861   2.234   6.334 -1.1870 -0.3322 -0.8230
  161SAPE    C218019   5.941   2.319   6.531  0.2566  0.1509 -0.2714
  161SAPE    HS18020   5.875   2.255   6.593 -0.0256 -0.0351 -0.7571
  161SAPE   O2118021   5.942   2.449   6.591  0.5876 -0.1438 -0.8165
  161SAPE   C2118022   5.830   2.477   6.662  0.1361 -0.4670 -0.2056
  161SAPE   O2218023   5.727   2.414   6.664 -0.2891 -0.0316  0.6332
  161SAPE   C2218024   5.847   2.607   6.737 -0.3503  0.4231  0.5768
  161SAPE   H2R18025   5.861   2.688   6.661 -1.2795 -0.3333 -0.4284
  161SAPE   H2S18026   5.747   2.628   6.780 -0.5322 -0.8841  0.8042
  161SAPE    C318027   6.079   2.261   6.526 -0.5996 -0.4948 -0.4074
  161SAPE    HX18028   6.129   2.326   6.451  0.3140 -2.7784 -1.9205
  161SAPE    HY18029   6.085   2.157   6.486 -1.4583 -0.9380  0.5783
  161SAPE   O3118030   6.150   2.269   6.650 -0.4681  0.2676  0.0884
  161SAPE   C3118031   6.128   2.178   6.747  0.0915  0.5426  0.8841
  161SAPE   O3218032   6.053   2.083   6.736 -0.0149  0.4249 -0.1958
  161SAPE   C3218033   6.201   2.223   6.868 -0.4339 -0.1788 -0.0537
  161SAPE   H2X18034   6.193   2.334   6.864 -0.4338 -0.2039 -2.3381
  161SAPE   H2Y18035   6.307   2.194   6.855 -1.2377 -3.8129  0.6087
  161SAPE   C2318036   5.960   2.594   6.839 -0.6614 -0.1108 -0.1417
  161SAPE   H3R18037   5.958   2.694   6.889  0.5670  0.2223 -0.7425
  161SAPE   H3S18038   6.057   2.572   6.791 -0.2442 -2.2897  1.5545
  161SAPE   C2418039   5.943   2.489   6.950 -0.5170 -0.4781  0.6609
  161SAPE   H4R18040   6.037   2.470   7.005 -0.8764 -0.2449  1.3730
  161SAPE   H4S18041   5.911   2.390   6.911  0.0338 -0.5873  0.4837
  161SAPE   C2518042   5.831   2.530   7.043  0.0970  0.3013  0.2019
  161SAPE   H5R18043   5.734   2.538   6.991  0.2179 -0.5418 -0.1856
  161SAPE   C2618044   5.840   2.536   7.173  0.0597 -0.0440  0.4772
  161SAPE   H6R18045   5.744   2.567   7.216 -0.5884 -0.3676 -0.7130
  161SAPE   C2718046   5.957   2.516   7.266 -0.2558 -0.6573  0.0492
  161SAPE   H7R18047   6.051   2.515   7.207  1.2813  0.9474  2.3118
  161SAPE   H7S18048   5.954   2.425   7.329  1.5642 -0.0163  1.1374
  161SAPE   C2818049   5.979   2.642   7.347 -0.1217 -0.4263  0.3920
  161SAPE   H8R18050   5.961   2.735   7.292  1.8634 -0.4653 -0.4109
  161SAPE   C2918051   6.044   2.655   7.464  0.4686  0.3964  0.7415
  161SAPE   H9R18052   6.053   2.761   7.494 -2.7115  1.1411 -0.5118
  161SAPE  C21018053   6.108   2.543   7.544  0.0521 -0.9619 -0.4134
  161SAPE  H10R18054   6.216   2.552   7.521  0.8167  0.6093  3.1184
  161SAPE  H10S18055   6.071   2.444   7.507 -0.0890 -0.8578 -0.5506
  161SAPE  C21118056   6.110   2.554   7.693 -1.2505 -0.4856  0.1727
  161SAPE  H11R18057   6.201   2.609   7.721 -0.2019 -1.7878 -0.5231
  161SAPE  C21218058   6.022   2.501   7.780  0.4537  0.3437 -0.0358
  161SAPE  H12R18059   6.036   2.514   7.888 -0.6662 -0.3468  0.2108
  161SAPE  C21318060   5.896   2.422   7.746 -0.1529 -0.2618  0.0977
  161SAPE  H13R18061   5.888   2.335   7.815  1.2665 -0.5739 -0.0978
  161SAPE  H13S18062   5.895   2.374   7.646 -2.1799  0.2170 -0.1530
  161SAPE  C21418063   5.778   2.521   7.751 -0.5441  0.8234  0.3902
  161SAPE  H14R18064   5.750   2.565   7.654  0.8494 -0.8940 -0.8317
  161SAPE  C21518065   5.717   2.557   7.867 -0.7166  0.3206  0.7526
  161SAPE  H15R18066   5.639   2.634   7.862 -1.0485 -0.0875 -1.3826
  161SAPE  C21618067   5.758   2.506   8.006 -0.1494  0.0170 -0.0566
  161SAPE  H16R18068   5.821   2.415   8.001 -0.2531 -0.0178 -0.9434
  161SAPE  H16S18069   5.663   2.475   8.055 -0.6892 -1.2056 -1.7708
  161SAPE  C21718070   5.834   2.618   8.082  0.5536 -0.5994 -0.5591
  161SAPE  H17R18071   5.906   2.665   8.012  0.6255  0.1346 -0.0156
  161SAPE  H17S18072   5.891   2.577   8.168  1.1428  0.0545 -0.6232
  161SAPE  C21818073   5.741   2.723   8.147  0.3307 -0.0538 -0.0383
  161SAPE  H18R18074   5.658   2.663   8.190 -0.7086  1.0949 -0.3756
  161SAPE  H18S18075   5.698   2.791   8.070  1.8042 -2.0998 -2.8757
  161SAPE  C21918076   5.804   2.818   8.242 -0.6967  0.1775  0.3532
  161SAPE  H19R18077   5.878   2.883   8.190 -0.6857 -0.2494 -0.1859
  161SAPE  H19S18078   5.859   2.760   8.319 -0.9885 -0.6270 -0.0264
  161SAPE  C22018079   5.705   2.903   8.316  0.4529  0.1833  0.3247
  161SAPE  H20R18080   5.651   2.822   8.369  0.4851  0.7254  1.2118
  161SAPE  H20S18081   5.633   2.961   8.253  1.2624 -0.0670 -0.8643
  161SAPE  H20T18082   5.745   2.964   8.400 -1.8339  0.2587  1.4497
  161SAPE   C3318083   6.133   2.170   6.997  0.2964 -0.1264  0.0032
  161SAPE   H3X18084   6.120   2.060   6.991  0.6313 -0.1539 -0.2541
  161SAPE   H3Y18085   6.032   2.213   7.009  0.0371 -0.1545 -1.8518
  161SAPE   C3418086   6.229   2.210   7.116  0.2979  0.2847 -0.6137
  161SAPE   H4X18087   6.228   2.321   7.124  1.0877  0.1948  1.3106
  161SAPE   H4Y18088   6.332   2.174   7.092  1.0287  0.7407  1.5927
  161SAPE   C3518089   6.190   2.138   7.250 -0.1965 -0.2933  0.0020
  161SAPE   H5X18090   6.216   2.031   7.242 -0.7577 -0.2879 -2.5617
  161SAPE   H5Y18091   6.079   2.148   7.255 -0.2531  0.8333 -2.2351
  161SAPE   C3618092   6.260   2.214   7.368 -0.2624  0.3108  0.3085
  161SAPE   H6X18093   6.264   2.324   7.360 -1.4805  0.2554 -2.1100
  161SAPE   H6Y18094   6.364   2.176   7.366  0.2073  1.5841  0.4255
  161SAPE   C3718095   6.200   2.166   7.502  0.2920 -0.1154  0.2303
  161SAPE   H7X18096   6.170   2.059   7.497  1.9857 -0.5883 -0.4902
  161SAPE   H7Y18097   6.109   2.227   7.518 -2.2708 -3.1442 -1.6263
  161SAPE   C3818098   6.278   2.194   7.628  0.5308  0.5781 -0.0142
  161SAPE   H8X18099   6.292   2.304   7.622  0.1940  0.6024 -0.4265
  161SAPE   H8Y18100   6.378   2.147   7.618 -0.1605 -0.5111 -3.1367
  161SAPE   C3918101   6.219   2.152   7.763 -0.0891 -0.2110 -0.5240
  161SAPE   H9X18102   6.181   2.047   7.753  0.4629 -0.5347  0.5928
  161SAPE   H9Y18103   6.127   2.213   7.775  0.3359  0.2907  0.2238
  161SAPE  C31018104   6.319   2.160   7.883 -0.0149  0.1327  0.5569
  161SAPE  H10X18105   6.388   2.247   7.886  2.4026 -1.7064  1.3559
  161SAPE  H10Y18106   6.396   2.080   7.881 -0.9717 -0.7946 -0.8755
  161SAPE  C31118107   6.236   2.151   8.015  0.1533  0.6889 -0.0612
  161SAPE  H11X18108   6.303   2.155   8.103 -0.8696 -1.1040  0.8272
  161SAPE  H11Y18109   6.196   2.048   8.015  1.1891  0.2790  0.3903
  161SAPE  C31218110   6.127   2.259   8.024  0.0968 -0.5908 -0.3368
  161SAPE  H12X18111   6.028   2.223   7.990 -0.1192  1.7142 -2.4447
  161SAPE  H12Y18112   6.149   2.350   7.963  0.7940 -0.4739  0.0800
  161SAPE  C31318113   6.110   2.282   8.177  0.1553 -0.0851 -0.0851
  161SAPE  H13X18114   6.117   2.184   8.229 -1.0645 -0.0223  0.2280
  161SAPE  H13Y18115   6.006   2.316   8.194  0.5365 -0.1104  2.9919
  161SAPE  C31418116   6.212   2.389   8.210 -0.7155 -0.2640 -0.3511
  161SAPE  H14X18117   6.184   2.477   8.149 -1.9138  1.6615  2.7453
  161SAPE  H14Y18118   6.317   2.365   8.182 -0.6642  0.8287 -1.1524
  161SAPE  C31518119   6.199   2.419   8.361  0.0267 -0.2608  0.5499
  161SAPE  H15X18120   6.272   2.493   8.401 -1.2241  0.8564  0.8516
  161SAPE  H15Y18121   6.231   2.328   8.415  0.6859 -0.4435 -0.1278
  161SAPE  C31618122   6.065   2.474   8.410 -0.4330 -0.8008 -0.5050
  161SAPE  H16X18123   5.993   2.389   8.411 -0.1879 -1.1646  3.4741
  161SAPE  H16Y18124   6.016   2.556   8.353 -1.5806 -1.2453 -0.1870
  161SAPE  C31718125   6.079   2.527   8.551  0.5368 -0.4563  0.2231
  161SAPE  H17X18126   6.100   2.636   8.554  2.7890 -0.8670  2.2490
  161SAPE  H17Y18127   6.167   2.474   8.592  1.1630 -1.3562 -2.0782
  161SAPE  C31818128   5.961   2.489   8.628  0.1572 -0.0643 -0.3877
  161SAPE  H18X18129   5.933   2.382   8.617  1.4368 -0.4169 -0.3554
  161SAPE  H18Y18130   5.885   2.563   8.596  1.7894  1.1894 -1.5053
  161SAPE  H18Z18131   5.977   2.510   8.736  0.0076 -1.4339 -0.0809
  162SAPE     N18132   5.504   3.561   6.129  0.6102 -0.4313 -0.1385
  162SAPE   HN118133   5.459   3.487   6.187 -2.6486  2.1785  0.8972
  162SAPE   HN218134   5.526   3.524   6.034 -0.3540  1.0554 -0.9717
  162SAPE   HN318135   5.596   3.597   6.162 -0.4176  2.2296  0.0235
  162SAPE   C1218136   5.410   3.679   6.116  0.4559 -0.3924 -0.5408
  162SAPE  H12A18137   5.464   3.759   6.061 -3.7682  2.3878 -1.1731
  162SAPE  H12B18138   5.397   3.720   6.219  2.6671  1.9969 -1.1299
  162SAPE   C1118139   5.281   3.663   6.050  0.4714 -0.5771 -0.2801
  162SAPE  H11A18140   5.291   3.636   5.943  2.1183 -0.9255 -0.0669
  162SAPE  H11B18141   5.224   3.759   6.050  1.3257 -0.0114 -2.6752
  162SAPE     P18142   5.077   3.581   6.190  0.2186 -0.0655 -0.1222
  162SAPE   O1318143   4.975   3.646   6.101  0.0064 -0.1443  0.2643
  162SAPE   O1418144   5.036   3.458   6.261  0.3650  0.4815 -0.1349
  162SAPE   O1218145   5.208   3.556   6.108 -0.4216 -0.2570  0.7873
  162SAPE   O1118146   5.125   3.691   6.299  0.0751  0.1799  0.5042
  162SAPE    C118147   5.213   3.642   6.395  0.0743  0.3464 -0.6513
  162SAPE    HA18148   5.290   3.576   6.351  0.6677  1.1764 -0.8767
  162SAPE    HB18149   5.269   3.732   6.429  0.7921 -0.2007 -0.3799
  162SAPE    C218150   5.146   3.589   6.530 -0.7429  0.1783 -0.4767
  162SAPE    HS18151   5.093   3.493   6.509  0.0391 -0.2487 -0.5341
  162SAPE   O2118152   5.058   3.695   6.566  0.2790  0.5218  0.4990
  162SAPE   C2118153   4.949   3.655   6.636  0.1571 -0.1541  0.2802
  162SAPE   O2218154   4.915   3.537   6.657  0.2189 -0.5724 -0.1784
  162SAPE   C2218155   4.880   3.771   6.706  0.5517  0.0768 -0.9610
  162SAPE   H2R18156   4.952   3.820   6.776  0.3107 -1.3474  0.3353
  162SAPE   H2S18157   4.845   3.848   6.634 -1.7190  1.5609  1.5650
  162SAPE    C318158   5.260   3.578   6.634 -0.3856 -0.6266 -0.6714
  162SAPE    HX18159   5.321   3.670   6.640 -0.1234 -0.7648 -1.1865
  162SAPE    HY18160   5.334   3.503   6.599  1.6026  0.8434  0.2167
  162SAPE   O3118161   5.217   3.548   6.778 -0.3625  0.0063 -0.0469
  162SAPE   C3118162   5.178   3.428   6.802 -0.3454  0.5903 -0.5342
  162SAPE   O3218163   5.170   3.336   6.721  0.2103  0.2393  0.2301
  162SAPE   C3218164   5.164   3.400   6.960 -0.4229  0.9648  0.5795
  162SAPE   H2X18165   5.076   3.456   6.999 -2.4220 -1.4987 -0.0985
  162SAPE   H2Y18166   5.258   3.421   7.015 -1.1029 -2.0416  3.2032
  162SAPE   C2318167   4.749   3.722   6.772  0.4622 -0.1535 -0.3316
  162SAPE   H3R18168   4.771   3.631   6.832 -0.5283 -0.6686 -0.7260
  162SAPE   H3S18169   4.685   3.696   6.685  2.3404 -1.2654 -1.4364
  162SAPE   C2418170   4.696   3.831   6.876  0.2366 -0.6131  0.5478
  162SAPE   H4R18171   4.673   3.921   6.814  0.1466  0.2019  1.7234
  162SAPE   H4S18172   4.771   3.850   6.956 -0.4717 -0.3151  1.1583
  162SAPE   C2518173   4.567   3.787   6.931  0.1034 -0.1695  0.2645
  162SAPE   H5R18174   4.492   3.792   6.851 -0.3778  0.9752  0.7580
  162SAPE   C2618175   4.542   3.738   7.057  0.1115  0.0267  0.5096
  162SAPE   H6R18176   4.443   3.698   7.083  0.7221 -0.8915  1.5031
  162SAPE   C2718177   4.652   3.718   7.159 -0.6704 -0.5359 -0.0210
  162SAPE   H7R18178   4.598   3.724   7.256  2.2562 -1.6097  1.8120
  162SAPE   H7S18179   4.706   3.815   7.160 -2.4912  0.5677  2.6780
  162SAPE   C2818180   4.751   3.602   7.150 -0.1647 -0.1499 -0.4642
  162SAPE   H8R18181   4.727   3.550   7.056 -0.0217 -0.1652 -0.4936
  162SAPE   C2918182   4.833   3.566   7.248  0.5709 -0.8340  0.2235
  162SAPE   H9R18183   4.919   3.498   7.232  0.1776 -1.2773 -0.0286
  162SAPE  C21018184   4.846   3.638   7.384  0.2986  0.9699 -0.4880
  162SAPE  H10R18185   4.810   3.743   7.379  1.0264  1.3828  1.6794
  162SAPE  H10S18186   4.952   3.651   7.414  0.8382  0.2421 -1.9971
  162SAPE  C21118187   4.766   3.563   7.489  0.3138  1.0595 -0.3399
  162SAPE  H11R18188   4.696   3.486   7.454  1.2224  0.0035  0.1060
  162SAPE  C21218189   4.767   3.580   7.625 -0.3713 -0.1006 -0.1069
  162SAPE  H12R18190   4.710   3.513   7.691  2.0938 -1.2411  1.0091
  162SAPE  C21318191   4.854   3.668   7.706 -0.0518  0.4529 -0.0651
  162SAPE  H13R18192   4.907   3.737   7.638 -0.4560  1.1971  0.3509
  162SAPE  H13S18193   4.919   3.601   7.766 -0.8407 -0.4229 -0.1629
  162SAPE  C21418194   4.760   3.747   7.800  0.4288 -0.7267 -0.5487
  162SAPE  H14R18195   4.663   3.783   7.762  0.5315 -0.3443 -0.4591
  162SAPE  C21518196   4.798   3.800   7.916  0.4930  0.0798  0.3806
  162SAPE  H15R18197   4.724   3.833   7.990  1.0574 -2.7017  2.3463
  162SAPE  C21618198   4.939   3.785   7.967 -0.2192  0.8215  0.5497
  162SAPE  H16R18199   4.964   3.887   8.001  1.2193  0.6250  0.1364
  162SAPE  H16S18200   5.018   3.752   7.896  0.6938  1.3355  1.2973
  162SAPE  C21718201   4.946   3.691   8.085 -0.4507  0.0927  0.2724
  162SAPE  H17R18202   4.944   3.587   8.047  1.1136  0.5980 -1.3515
  162SAPE  H17S18203   4.860   3.715   8.151 -1.4823  1.3484 -1.4463
  162SAPE  C21818204   5.084   3.710   8.155  0.0297 -0.6841 -0.4490
  162SAPE  H18R18205   5.088   3.816   8.189 -0.0850 -0.6797 -0.4489
  162SAPE  H18S18206   5.167   3.703   8.082 -1.2636  0.7492 -2.1594
  162SAPE  C21918207   5.105   3.619   8.278  0.6557  0.2254 -0.7003
  162SAPE  H19R18208   5.108   3.518   8.230  2.6992  0.2398 -0.6948
  162SAPE  H19S18209   5.014   3.640   8.337  1.9358  0.6423  1.2036
  162SAPE  C22018210   5.230   3.648   8.359 -0.0716  0.6075  0.1119
  162SAPE  H20R18211   5.225   3.746   8.412 -1.5211 -0.5212  2.2229
  162SAPE  H20S18212   5.319   3.646   8.293  0.5185 -1.9965  0.8708
  162SAPE  H20T18213   5.265   3.576   8.436  1.3101 -1.4822 -2.3199
  162SAPE   C3318214   5.128   3.250   6.978  0.0548  0.6354  0.3618
  162SAPE   H3X18215   5.200   3.187   6.921  1.7263  1.6686  1.2657
  162SAPE   H3Y18216   5.026   3.222   6.943 -0.0862  0.8902  0.5676
  162SAPE   C3418217   5.124   3.206   7.128 -0.0754  0.1009 -0.0953
  162SAPE   H4X18218   5.053   3.277   7.176  2.2107  2.7774 -0.4167
  162SAPE   H4Y18219   5.224   3.213   7.174  1.1241 -1.2037 -2.3225
  162SAPE   C3518220   5.082   3.058   7.142  0.3491 -0.1931 -0.0853
  162SAPE   H5X18221   5.152   2.992   7.086  0.6795 -1.8508  2.1316
  162SAPE   H5Y18222   4.985   3.040   7.091  1.1296 -2.0763 -1.0228
  162SAPE   C3618223   5.089   3.021   7.290  0.3548 -0.6059 -0.7995
  162SAPE   H6X18224   5.029   3.094   7.348  0.7386  1.0682 -2.4080
  162SAPE   H6Y18225   5.193   3.036   7.326 -0.3483 -0.5405  1.3223
  162SAPE   C3718226   5.055   2.877   7.320 -0.2216  0.4593 -0.5859
  162SAPE   H7X18227   5.115   2.804   7.260  1.4068 -0.6479  2.1625
  162SAPE   H7Y18228   4.947   2.852   7.309 -0.4185 -1.3283  3.4297
  162SAPE   C3818229   5.084   2.834   7.469  0.1482  0.3345 -0.1715
  162SAPE   H8X18230   5.191   2.853   7.490  0.0166  3.0498 -1.5869
  162SAPE   H8Y18231   5.071   2.727   7.497  1.4697  0.6027  1.6355
  162SAPE   C3918232   5.009   2.914   7.576 -0.0650 -0.5273 -0.5417
  162SAPE   H9X18233   4.903   2.909   7.542  0.3931 -0.7239 -2.0134
  162SAPE   H9Y18234   5.041   3.021   7.576  0.2070 -0.5901 -1.6765
  162SAPE  C31018235   5.035   2.882   7.717 -0.1317 -0.1734  0.9975
  162SAPE  H10X18236   4.993   2.971   7.768 -0.4043 -0.6289  1.5799
  162SAPE  H10Y18237   5.142   2.867   7.746  0.4266 -0.0225 -0.8575
  162SAPE  C31118238   4.945   2.772   7.773 -0.0583  0.4874  0.4027
  162SAPE  H11X18239   4.953   2.682   7.709  2.0648 -0.3497  1.7290
  162SAPE  H11Y18240   4.838   2.803   7.766  0.6458  3.0368 -0.6271
  162SAPE  C31218241   4.980   2.730   7.919  0.2917  0.0736  0.4135
  162SAPE  H12X18242   4.983   2.815   7.990  0.3690 -2.6289  3.9755
  162SAPE  H12Y18243   5.079   2.680   7.914 -0.4102 -1.4210  0.6861
  162SAPE  C31318244   4.876   2.629   7.976  0.0532 -0.4515  0.7893
  162SAPE  H13X18245   4.884   2.527   7.932 -1.2321  0.0259 -0.6819
  162SAPE  H13Y18246   4.776   2.663   7.943  1.2155  0.1234 -2.5555
  162SAPE  C31418247   4.884   2.612   8.119  0.1630  0.7236  0.0931
  162SAPE  H14X18248   4.869   2.709   8.171 -1.0461  0.7347 -0.2595
  162SAPE  H14Y18249   4.986   2.571   8.138 -0.1792 -0.3830 -0.3815
  162SAPE  C31518250   4.786   2.509   8.161  0.0547 -0.0400 -0.5350
  162SAPE  H15X18251   4.709   2.478   8.088  0.0039 -0.5862 -0.2547
  162SAPE  H15Y18252   4.720   2.549   8.242 -0.1512  0.3509 -0.8935
  162SAPE  C31618253   4.848   2.380   8.223  0.5823 -0.2604 -0.0929
  162SAPE  H16X18254   4.909   2.405   8.313  0.8248 -0.4895 -0.1905
  162SAPE  H16Y18255   4.914   2.336   8.145  1.1551  0.5443 -0.0712
  162SAPE  C31718256   4.742   2.280   8.259  0.3857 -0.3157  0.3272
  162SAPE  H17X18257   4.700   2.244   8.162 -1.1549  0.8793  0.5119
  162SAPE  H17Y18258   4.664   2.342   8.307  0.7980  2.0509 -1.8743
  162SAPE  C31818259   4.801   2.166   8.337  0.3323  0.4412 -0.0850
  162SAPE  H18X18260   4.882   2.106   8.291  0.3291  0.7452 -0.4937
  162SAPE  H18Y18261   4.729   2.091   8.376  0.9627  0.7283  1.7393
  162SAPE  H18Z18262   4.850   2.204   8.429  2.8667 -3.2728  0.3097
  163SAPE     N18263   4.100   2.871   6.712  0.8401 -0.0408  0.6416
  163SAPE   HN118264   4.105   2.975   6.709  0.0537  0.0002  0.2199
  163SAPE   HN218265   4.089   2.849   6.813 -1.1616  0.8919  0.6765
  163SAPE   HN318266   4.190   2.832   6.677  1.0523  0.7323  0.3021
  163SAPE   C1218267   3.984   2.819   6.629  0.2693 -0.1832 -0.2270
  163SAPE  H12A18268   3.979   2.709   6.621  1.6546 -0.3000  0.3459
  163SAPE  H12B18269   4.005   2.845   6.523 -0.0918 -0.3903 -0.3517
  163SAPE   C1118270   3.852   2.887   6.675 -0.7836  0.8342  0.4129
  163SAPE  H11A18271   3.831   2.855   6.779  2.6028  0.0011  0.9616
  163SAPE  H11B18272   3.768   2.865   6.605  0.2122  3.9102 -1.9936
  163SAPE     P18273   3.814   3.128   6.569 -0.1383  0.2993 -0.2661
  163SAPE   O1318274   3.887   3.253   6.571  0.1412 -0.6802 -0.4856
  163SAPE   O1418275   3.801   3.060   6.435  0.0769  0.0671 -0.4327
  163SAPE   O1218276   3.878   3.025   6.673  0.6407 -0.3254 -0.6416
  163SAPE   O1118277   3.666   3.151   6.618  0.6732  0.0686 -0.0238
  163SAPE    C118278   3.640   3.224   6.740  1.0322  0.0179 -0.1955
  163SAPE    HA18279   3.717   3.301   6.760  0.1037  0.6034  1.3071
  163SAPE    HB18280   3.551   3.287   6.722  0.1275 -1.4133 -0.9458
  163SAPE    C218281   3.610   3.128   6.864 -0.1398 -0.3712  0.6196
  163SAPE    HS18282   3.702   3.067   6.855  0.1070 -0.0203  0.7424
  163SAPE   O2118283   3.484   3.057   6.829 -0.6040  0.3464 -0.6039
  163SAPE   C2118284   3.492   2.932   6.873 -0.0871 -0.5824 -0.0608
  163SAPE   O2218285   3.591   2.880   6.920  0.3955 -0.0502 -0.2649
  163SAPE   C2218286   3.355   2.864   6.849 -0.5047 -0.2854 -0.1195
  163SAPE   H2R18287   3.279   2.916   6.911  0.0052 -0.7966  0.9499
  163SAPE   H2S18288   3.325   2.882   6.743  2.3108  1.1437 -0.7759
  163SAPE    C318289   3.595   3.208   7.003 -0.2924  0.3475 -0.3704
  163SAPE    HX18290   3.568   3.136   7.084 -0.2295 -1.4555 -1.8630
  163SAPE    HY18291   3.503   3.264   6.978 -1.1018 -1.6197 -2.2210
  163SAPE   O3118292   3.710   3.295   7.030  0.5446 -0.4186 -0.4242
  163SAPE   C3118293   3.692   3.346   7.155  0.4682  0.4129 -1.0964
  163SAPE   O3218294   3.593   3.333   7.224 -0.0513 -0.5595  0.7522
  163SAPE   C3218295   3.812   3.429   7.198 -0.9375 -0.0071  0.1314
  163SAPE   H2X18296   3.863   3.477   7.112 -1.3310 -2.3134 -1.4836
  163SAPE   H2Y18297   3.889   3.356   7.232 -1.0847 -0.1200  0.2281
  163SAPE   C2318298   3.352   2.716   6.895  0.0702 -0.9502  0.5217
  163SAPE   H3R18299   3.440   2.665   6.851 -0.3525 -0.6743 -0.6803
  163SAPE   H3S18300   3.258   2.680   6.849  0.4761 -0.7848 -0.4564
  163SAPE   C2418301   3.343   2.688   7.046 -0.3304  0.0083  0.2307
  163SAPE   H4R18302   3.440   2.714   7.093 -0.1264 -1.4861  0.7054
  163SAPE   H4S18303   3.328   2.578   7.058  1.8976 -0.1813  1.8503
  163SAPE   C2518304   3.230   2.755   7.126  0.9428  0.4785  0.5373
  163SAPE   H5R18305   3.134   2.702   7.123  0.3376  1.5693 -0.0254
  163SAPE   C2618306   3.230   2.866   7.200  0.8999 -0.3712  0.3361
  163SAPE   H6R18307   3.137   2.904   7.245  0.5563 -1.3965  0.5045
  163SAPE   C2718308   3.346   2.964   7.226  0.8134  0.4548  0.1677
  163SAPE   H7R18309   3.409   2.963   7.134 -0.0114 -1.3131 -0.4192
  163SAPE   H7S18310   3.409   2.924   7.309  0.0654 -1.1977 -0.0230
  163SAPE   C2818311   3.306   3.102   7.272  1.3251  0.9048  0.0117
  163SAPE   H8R18312   3.301   3.169   7.185 -0.5469  0.7674 -0.0148
  163SAPE   C2918313   3.284   3.157   7.393  0.7672  1.0005 -0.0861
  163SAPE   H9R18314   3.248   3.260   7.391 -0.9917  0.4099 -1.5005
  163SAPE  C21018315   3.292   3.087   7.528  0.4103 -0.8621  0.7675
  163SAPE  H10R18316   3.355   2.995   7.524  0.5243 -0.7567 -0.0694
  163SAPE  H10S18317   3.194   3.050   7.565 -1.2199  1.9798 -0.3770
  163SAPE  C21118318   3.337   3.181   7.648 -0.4467  0.5851  0.2877
  163SAPE  H11R18319   3.352   3.286   7.621  1.2396  0.5895  1.1323
  163SAPE  C21218320   3.372   3.136   7.774  0.4392  0.1266  0.5893
  163SAPE  H12R18321   3.417   3.209   7.842 -1.2187  0.5258  1.2861
  163SAPE  C21318322   3.381   2.993   7.827 -0.2189 -0.4712  0.0097
  163SAPE  H13R18323   3.395   2.914   7.751 -0.2535 -2.6411  2.1384
  163SAPE  H13S18324   3.284   2.970   7.876 -0.8683  2.9661  0.6242
  163SAPE  C21418325   3.478   2.968   7.945  0.3657  0.6771 -0.9632
  163SAPE  H14R18326   3.427   2.957   8.042  2.5289 -0.8033  0.0832
  163SAPE  C21518327   3.610   2.946   7.940  0.4569 -0.2916  0.0293
  163SAPE  H15R18328   3.658   2.927   8.038 -0.7447  2.2042  1.1698
  163SAPE  C21618329   3.701   2.958   7.821  0.6156  0.1383  0.5160
  163SAPE  H16R18330   3.793   3.014   7.846  0.8633 -0.8637  2.0402
  163SAPE  H16S18331   3.656   3.014   7.737  0.9711 -2.5477 -1.5972
  163SAPE  C21718332   3.763   2.821   7.780 -0.4845 -0.0444  0.5928
  163SAPE  H17R18333   3.834   2.835   7.695 -1.0965  0.8986  0.2106
  163SAPE  H17S18334   3.679   2.757   7.745 -0.5697  0.0384  0.6463
  163SAPE  C21818335   3.836   2.755   7.903 -0.4209 -0.7669 -0.2269
  163SAPE  H18R18336   3.782   2.757   8.000  0.0304 -1.7339  0.0553
  163SAPE  H18S18337   3.928   2.815   7.925 -0.4186 -1.0772  0.6626
  163SAPE  C21918338   3.896   2.608   7.881  0.5921  0.2586 -0.0214
  163SAPE  H19R18339   3.951   2.614   7.785 -1.6315  1.2146 -1.3029
  163SAPE  H19S18340   3.816   2.532   7.876  0.7642 -0.0095  1.0108
  163SAPE  C22018341   3.985   2.560   8.002 -0.1957  0.0013  0.6599
  163SAPE  H20R18342   3.936   2.565   8.102  2.3250  0.2147  1.9742
  163SAPE  H20S18343   4.088   2.601   8.004 -0.2502  0.1242  1.1447
  163SAPE  H20T18344   4.004   2.454   7.975  1.7085  0.4466  0.0868
  163SAPE   C3318345   3.801   3.522   7.322 -0.8905  0.0357 -0.4885
  163SAPE   H3X18346   3.698   3.563   7.321 -1.1929 -0.6768  0.3827
  163SAPE   H3Y18347   3.880   3.599   7.312 -0.2798 -0.4605  0.3400
  163SAPE   C3418348   3.823   3.457   7.460 -0.7868  0.5792  0.4912
  163SAPE   H4X18349   3.933   3.449   7.474 -0.9920 -0.9918  1.5779
  163SAPE   H4Y18350   3.779   3.355   7.457 -0.8026  0.6079 -0.7659
  163SAPE   C3518351   3.752   3.538   7.573  0.4265  0.1029 -0.2344
  163SAPE   H5X18352   3.645   3.545   7.545  0.4277  1.7485  0.0646
  163SAPE   H5Y18353   3.800   3.638   7.580 -0.3136  0.7510 -3.2463
  163SAPE   C3618354   3.775   3.456   7.706  0.5797 -0.0544 -0.0622
  163SAPE   H6X18355   3.885   3.442   7.716  0.5030 -2.0575 -1.6126
  163SAPE   H6Y18356   3.724   3.358   7.700 -1.5529  1.0654 -1.9259
  163SAPE   C3718357   3.736   3.539   7.827 -0.5445  0.8505  0.0989
  163SAPE   H7X18358   3.634   3.579   7.810 -0.3120  1.6132  0.4150
  163SAPE   H7Y18359   3.808   3.624   7.830 -0.9330  1.3397 -2.3880
  163SAPE   C3818360   3.752   3.452   7.950 -0.0718  0.3925 -0.6203
  163SAPE   H8X18361   3.741   3.511   8.044  0.5824 -2.0095  1.0757
  163SAPE   H8Y18362   3.857   3.415   7.958 -0.3691 -0.1815  1.0300
  163SAPE   C3918363   3.642   3.342   7.973 -0.3958  0.2986  1.1358
  163SAPE   H9X18364   3.651   3.272   7.888 -1.7326 -1.6775  2.5387
  163SAPE   H9Y18365   3.543   3.392   7.961 -1.0589 -1.1937  0.1273
  163SAPE  C31018366   3.647   3.255   8.101 -0.3444  0.2219  0.7424
  163SAPE  H10X18367   3.569   3.177   8.097  0.1924 -0.3026  0.1845
  163SAPE  H10Y18368   3.626   3.320   8.188 -0.0797  0.2003  0.8263
  163SAPE  C31118369   3.778   3.181   8.122  0.2450 -0.8790 -0.3630
  163SAPE  H11X18370   3.863   3.252   8.132  0.0007 -0.8240  2.2764
  163SAPE  H11Y18371   3.807   3.122   8.033 -1.8851 -0.3619 -1.4627
  163SAPE  C31218372   3.789   3.095   8.246 -0.7948  0.3897  0.2123
  163SAPE  H12X18373   3.854   3.006   8.237  0.3911  0.9715  2.3814
  163SAPE  H12Y18374   3.693   3.058   8.288 -0.1574 -0.7032  0.7503
  163SAPE  C31318375   3.857   3.159   8.370 -0.1997 -0.7623 -0.0633
  163SAPE  H13X18376   3.823   3.259   8.404  1.0001  0.4683 -2.2267
  163SAPE  H13Y18377   3.966   3.174   8.352 -0.3974  3.5701  1.2137
  163SAPE  C31418378   3.832   3.085   8.503 -0.0306 -0.4600 -0.3413
  163SAPE  H14X18379   3.892   2.992   8.500 -0.3065 -0.6215 -2.5118
  163SAPE  H14Y18380   3.725   3.058   8.491 -0.3590  1.5043 -2.9375
  163SAPE  C31518381   3.860   3.154   8.633 -1.4571  0.4247 -0.1177
  163SAPE  H15X18382   3.839   3.263   8.622 -0.5739  0.6042 -0.1211
  163SAPE  H15Y18383   3.970   3.150   8.642 -1.4658  0.0871 -0.1633
  163SAPE  C31618384   3.794   3.100   8.762  0.4189 -0.3410  0.3999
  163SAPE  H16X18385   3.807   2.994   8.795  3.9105  0.0950  0.7267
  163SAPE  H16Y18386   3.684   3.111   8.748  0.2408 -0.9015  1.2428
  163SAPE  C31718387   3.831   3.183   8.886  0.3687  0.0641  0.1897
  163SAPE  H17X18388   3.926   3.136   8.920  0.5935 -0.4920 -1.1542
  163SAPE  H17Y18389   3.755   3.168   8.966  1.0365  1.7100  1.1784
  163SAPE  C31818390   3.856   3.332   8.874  0.3624 -0.0528 -0.0948
  163SAPE  H18X18391   3.819   3.388   8.963 -0.1318 -0.7118  0.1213
  163SAPE  H18Y18392   3.816   3.390   8.788  1.5276 -0.0724 -0.6580
  163SAPE  H18Z18393   3.964   3.353   8.859  0.0003  0.4496 -2.2812
  164SAPE     N18394   5.986   6.612   6.157  0.4198 -0.9255  0.5403
  164SAPE   HN118395   6.021   6.617   6.254  1.3625 -1.0391  0.2118
  164SAPE   HN218396   5.915   6.682   6.129  0.7606 -1.0255 -0.6208
  164SAPE   HN318397   5.936   6.521   6.141  1.1581 -1.4096  0.9491
  164SAPE   C1218398   6.095   6.630   6.062 -0.0403  0.5971 -0.3528
  164SAPE  H12A18399   6.053   6.627   5.959 -0.2396  0.4206 -0.2645
  164SAPE  H12B18400   6.171   6.549   6.063 -1.4370 -0.7768 -0.7371
  164SAPE   C1118401   6.162   6.765   6.091 -1.3099 -1.2347 -0.3091
  164SAPE  H11A18402   6.247   6.798   6.028 -1.3476  3.1339  1.5850
  164SAPE  H11B18403   6.199   6.762   6.196  1.2219  0.2703 -1.0698
  164SAPE     P18404   6.114   7.029   6.066 -0.3313 -0.0927  0.1575
  164SAPE   O1318405   6.217   7.039   5.959 -0.4086  0.1354 -0.1346
  164SAPE   O1418406   5.992   7.110   6.052 -0.1135 -0.2673 -0.4965
  164SAPE   O1218407   6.063   6.873   6.087  0.5206 -0.4635 -0.6893
  164SAPE   O1118408   6.171   7.064   6.209 -0.2390 -0.2220 -0.0135
  164SAPE    C118409   6.101   7.045   6.331 -0.4382 -0.4822  0.2770
  164SAPE    HA18410   6.006   7.102   6.340  0.7434  1.9242 -1.3920
  164SAPE    HB18411   6.084   6.939   6.359  2.3470 -0.5003  2.3173
  164SAPE    C218412   6.182   7.093   6.457 -0.2307  0.4934 -0.0548
  164SAPE    HS18413   6.226   7.193   6.440  0.1202  0.2015 -0.9573
  164SAPE   O2118414   6.279   6.998   6.491  0.2417  0.2601  0.4591
  164SAPE   C2118415   6.393   7.009   6.425 -0.3479 -0.6976 -0.4854
  164SAPE   O2218416   6.415   7.071   6.321  0.9151  0.0042  0.2442
  164SAPE   C2218417   6.488   6.912   6.494 -0.3392  0.8098  0.6661
  164SAPE   H2R18418   6.434   6.823   6.532 -0.6956  0.4288 -0.6698
  164SAPE   H2S18419   6.557   6.881   6.413  1.1364 -0.1012  2.2042
  164SAPE    C318420   6.081   7.095   6.578  0.7227  0.0033 -0.9065
  164SAPE    HX18421   6.027   7.000   6.596 -1.6757  1.8635  3.0098
  164SAPE    HY18422   5.999   7.169   6.565 -0.2454 -0.5844  1.4193
  164SAPE   O3118423   6.144   7.132   6.701  0.2352 -0.8266  0.0297
  164SAPE   C3118424   6.192   7.264   6.699 -0.5036 -0.0513 -0.3102
  164SAPE   O3218425   6.177   7.342   6.609 -0.4367  0.0257  0.1466
  164SAPE   C3218426   6.228   7.304   6.836  0.0638 -0.0520 -0.4742
  164SAPE   H2X18427   6.165   7.391   6.862 -0.9927 -0.3686 -1.8355
  164SAPE   H2Y18428   6.333   7.338   6.835 -0.7339  2.6482 -0.0101
  164SAPE   C2318429   6.578   6.975   6.606 -0.6297  0.1214 -0.1777
  164SAPE   H3R18430   6.622   7.067   6.560  0.0663 -0.2850 -0.3382
  164SAPE   H3S18431   6.650   6.899   6.642 -2.4464 -0.5101  2.4268
  164SAPE   C2418432   6.499   7.016   6.739  0.5374 -0.0288  0.0976
  164SAPE   H4R18433   6.414   7.072   6.694  1.9913  1.8228 -0.4845
  164SAPE   H4S18434   6.551   7.092   6.801 -0.7339 -0.3313  1.5939
  164SAPE   C2518435   6.446   6.891   6.807  0.4435 -0.7140  0.2824
  164SAPE   H5R18436   6.368   6.836   6.752  0.0772 -2.1165  2.1014
  164SAPE   C2618437   6.489   6.830   6.928  1.5080 -0.9343  0.6239
  164SAPE   H6R18438   6.429   6.745   6.964  2.3815 -1.6555  0.3977
  164SAPE   C2718439   6.600   6.875   7.020 -0.0770  0.2860 -1.1138
  164SAPE   H7R18440   6.660   6.957   6.975  0.5895  2.0249  2.5753
  164SAPE   H7S18441   6.673   6.791   7.024 -0.3731  0.0686  1.2698
  164SAPE   C2818442   6.570   6.933   7.154  0.0852 -0.5070 -0.1773
  164SAPE   H8R18443   6.551   7.042   7.156  2.8653  0.0328  0.4077
  164SAPE   C2918444   6.556   6.868   7.270  0.5451  0.3848  0.1674
  164SAPE   H9R18445   6.531   6.919   7.364  0.0737 -1.8740  1.3392
  164SAPE  C21018446   6.558   6.718   7.299  0.2390  0.2064  0.2470
  164SAPE  H10R18447   6.644   6.699   7.367 -0.0459  1.4446  0.9740
  164SAPE  H10S18448   6.574   6.659   7.206 -1.5930  1.2029 -0.7590
  164SAPE  C21118449   6.430   6.677   7.368 -0.1133 -0.2721  0.1669
  164SAPE  H11R18450   6.335   6.710   7.322  1.1913  2.6984 -0.6535
  164SAPE  C21218451   6.425   6.625   7.496 -0.1443 -0.0277  0.8208
  164SAPE  H12R18452   6.322   6.607   7.532 -0.6983  1.9145  0.3271
  164SAPE  C21318453   6.541   6.597   7.581 -1.0149  0.9242 -0.3447
  164SAPE  H13R18454   6.561   6.680   7.653 -3.0488  0.9190  0.2846
  164SAPE  H13S18455   6.639   6.595   7.528 -0.4909  1.6084  0.5334
  164SAPE  C21418456   6.535   6.460   7.643  0.0705  0.3533  0.3992
  164SAPE  H14R18457   6.515   6.378   7.573 -0.7379  0.7580  0.1470
  164SAPE  C21518458   6.538   6.434   7.775 -0.2212  0.1250  0.0389
  164SAPE  H15R18459   6.534   6.330   7.811 -0.5447 -0.0326 -0.4403
  164SAPE  C21618460   6.550   6.534   7.888  0.4684 -0.2982  0.0563
  164SAPE  H16R18461   6.458   6.538   7.950 -0.1728 -1.3940 -0.7811
  164SAPE  H16S18462   6.578   6.638   7.859 -0.7602 -0.1539 -0.6793
  164SAPE  C21718463   6.661   6.473   7.978 -0.5792  0.3975 -0.2441
  164SAPE  H17R18464   6.754   6.462   7.918  0.3649  0.9383  1.0573
  164SAPE  H17S18465   6.636   6.376   8.026  0.4258  0.7184  0.9891
  164SAPE  C21818466   6.702   6.565   8.093  0.6399 -0.3422  0.0199
  164SAPE  H18R18467   6.614   6.593   8.154  1.5968  0.3260  1.1338
  164SAPE  H18S18468   6.733   6.665   8.054 -0.1331  0.2847  0.9620
  164SAPE  C21918469   6.810   6.508   8.184 -0.3807 -0.2067 -0.8099
  164SAPE  H19R18470   6.898   6.455   8.140  0.9929 -0.2198  1.8010
  164SAPE  H19S18471   6.764   6.418   8.230 -0.4914 -0.5439 -1.5655
  164SAPE  C22018472   6.865   6.606   8.287 -0.0145  0.0951  0.3072
  164SAPE  H20R18473   6.907   6.691   8.229 -0.8571 -1.0550 -2.1298
  164SAPE  H20S18474   6.938   6.565   8.361  1.9599  4.1355  0.8606
  164SAPE  H20T18475   6.781   6.651   8.343 -1.8268 -0.7333 -1.6281
  164SAPE   C3318476   6.201   7.196   6.948  0.3611 -0.4521 -0.1275
  164SAPE   H3X18477   6.258   7.103   6.928 -1.8463 -2.1270  0.8841
  164SAPE   H3Y18478   6.096   7.161   6.942  0.8830 -2.3549  0.9098
  164SAPE   C3418479   6.226   7.268   7.080  0.6071 -0.1609 -0.1232
  164SAPE   H4X18480   6.172   7.364   7.068 -0.7854 -0.9868 -0.7223
  164SAPE   H4Y18481   6.329   7.305   7.102  1.0624 -1.8115  0.7122
  164SAPE   C3518482   6.179   7.199   7.215 -0.4745 -0.3923  0.1456
  164SAPE   H5X18483   6.072   7.218   7.239  0.0925  1.9218  1.2242
  164SAPE   H5Y18484   6.238   7.251   7.294  2.9126 -4.7601  0.8365
  164SAPE   C3618485   6.205   7.045   7.211 -0.6791 -0.1306 -0.1359
  164SAPE   H6X18486   6.307   7.032   7.169 -0.2877  0.9452  0.4422
  164SAPE   H6Y18487   6.124   6.990   7.159 -0.5620 -1.0449  0.6328
  164SAPE   C3718488   6.217   6.992   7.355  0.4365 -0.1744 -0.1145
  164SAPE   H7X18489   6.306   7.044   7.396  1.5448  1.4902 -4.0983
  164SAPE   H7Y18490   6.247   6.885   7.350  2.0422  0.0730  2.2431
  164SAPE   C3818491   6.093   7.020   7.447 -0.4216  0.3424  0.5558
  164SAPE   H8X18492   5.995   7.016   7.395 -0.0654 -0.2527 -0.0892
  164SAPE   H8Y18493   6.090   7.129   7.467  2.1859  0.5131  0.2991
  164SAPE   C3918494   6.106   6.957   7.584  0.0064 -0.2960  0.1963
  164SAPE   H9X18495   6.107   6.847   7.569 -0.7162 -0.0463 -2.0090
  164SAPE   H9Y18496   6.020   6.987   7.647 -0.8085  2.5395 -2.0442
  164SAPE  C31018497   6.240   6.997   7.659 -0.0490  0.1938  0.2152
  164SAPE  H10X18498   6.244   7.107   7.675 -0.1905  0.1674  0.4600
  164SAPE  H10Y18499   6.333   6.973   7.605 -0.5046  1.1878 -1.0377
  164SAPE  C31118500   6.235   6.950   7.803  0.3085  0.1569  0.0623
  164SAPE  H11X18501   6.214   6.841   7.808  3.2389 -0.4242  3.0081
  164SAPE  H11Y18502   6.171   7.015   7.867  0.3017  1.5378 -1.3001
  164SAPE  C31218503   6.371   6.963   7.870  0.3670  0.0498 -0.1442
  164SAPE  H12X18504   6.393   7.068   7.898  0.2739 -0.0266  0.2234
  164SAPE  H12Y18505   6.451   6.934   7.799 -0.6189 -3.7666  0.0979
  164SAPE  C31318506   6.381   6.880   7.998 -0.2541 -0.8778 -0.3195
  164SAPE  H13X18507   6.354   6.776   7.970 -1.6868 -0.6973  0.3247
  164SAPE  H13Y18508   6.303   6.907   8.072  0.3302 -1.5114  0.5498
  164SAPE  C31418509   6.511   6.872   8.075 -0.0200  0.4365 -0.7107
  164SAPE  H14X18510   6.586   6.829   8.005  0.8465  2.3893 -1.0581
  164SAPE  H14Y18511   6.516   6.794   8.153 -1.6564 -0.3549 -1.3543
  164SAPE  C31518512   6.561   7.003   8.128  0.2929 -0.0112 -0.2365
  164SAPE  H15X18513   6.576   7.075   8.045  1.3073  1.6004  1.2667
  164SAPE  H15Y18514   6.659   6.978   8.174 -0.5648 -0.6429  1.3456
  164SAPE  C31618515   6.470   7.055   8.241 -0.5852 -0.3642  0.1051
  164SAPE  H16X18516   6.453   6.979   8.320  1.4744  0.4513  1.4066
  164SAPE  H16Y18517   6.369   7.085   8.208 -0.7566 -2.1798 -1.1714
  164SAPE  C31718518   6.534   7.173   8.320  0.0938  0.8434 -0.0658
  164SAPE  H17X18519   6.547   7.264   8.258 -0.4579  1.9946  1.4390
  164SAPE  H17Y18520   6.637   7.149   8.352  0.8111  0.9111 -2.1960
  164SAPE  C31818521   6.445   7.226   8.435  0.1407 -0.0274 -0.7252
  164SAPE  H18X18522   6.418   7.148   8.511  0.5791 -0.1056 -0.6466
  164SAPE  H18Y18523   6.352   7.273   8.398  1.2778  2.6824 -0.3538
  164SAPE  H18Z18524   6.498   7.311   8.484  0.1612 -0.1254 -0.5754
  165SAPE     N18525   6.248   4.322   6.165  0.6634  0.2227  0.0453
  165SAPE   HN118526   6.235   4.409   6.221  0.8717  0.1258  0.2461
  165SAPE   HN218527   6.304   4.262   6.229  0.9559 -0.3288 -0.7175
  165SAPE   HN318528   6.300   4.353   6.081  1.2018  1.8997  0.9582
  165SAPE   C1218529   6.110   4.260   6.149  0.1983  0.6594 -0.6168
  165SAPE  H12A18530   6.121   4.168   6.088 -0.0895  0.2989 -0.1392
  165SAPE  H12B18531   6.040   4.326   6.094 -0.7746 -0.3267 -0.5955
  165SAPE   C1118532   6.034   4.230   6.284 -0.5666  0.7474 -0.2457
  165SAPE  H11A18533   6.085   4.155   6.347 -1.3717  1.4009  1.2531
  165SAPE  H11B18534   5.939   4.183   6.251  0.5293 -0.4711 -1.8162
  165SAPE     P18535   5.862   4.397   6.380  0.0379  0.0480 -0.2088
  165SAPE   O1318536   5.866   4.542   6.415 -0.2022  0.2211  0.6498
  165SAPE   O1418537   5.772   4.370   6.267  0.0286  0.9684 -0.1875
  165SAPE   O1218538   6.010   4.353   6.352 -0.2265 -0.6264 -0.3795
  165SAPE   O1118539   5.806   4.321   6.507 -0.3926  0.4663  0.2609
  165SAPE    C118540   5.763   4.184   6.498  0.6291 -0.3062 -1.2627
  165SAPE    HA18541   5.704   4.171   6.404 -0.4485  1.9757 -0.9856
  165SAPE    HB18542   5.850   4.115   6.490  1.0027 -0.0395  0.2473
  165SAPE    C218543   5.678   4.138   6.614  0.5976  0.3206 -0.6122
  165SAPE    HS18544   5.608   4.057   6.587  0.2315  0.3715  0.1553
  165SAPE   O2118545   5.593   4.247   6.662 -0.3811  0.1242  0.2770
  165SAPE   C2118546   5.521   4.297   6.567 -0.0323  0.2442 -0.3881
  165SAPE   O2218547   5.483   4.253   6.458  0.4220 -0.0102  0.2611
  165SAPE   C2218548   5.467   4.431   6.630 -0.3995  0.1608  0.4452
  165SAPE   H2R18549   5.549   4.494   6.670 -0.6999  1.4685 -0.8773
  165SAPE   H2S18550   5.425   4.488   6.544  0.2252 -0.9787 -0.6532
  165SAPE    C318551   5.766   4.093   6.731  0.1473  0.6577  0.2068
  165SAPE    HX18552   5.842   4.173   6.745 -0.1449  0.8165  0.9018
  165SAPE    HY18553   5.811   3.998   6.696  1.2120  0.2958  2.4074
  165SAPE   O3118554   5.692   4.063   6.850 -0.0600 -0.1504  0.2028
  165SAPE   C3118555   5.684   4.169   6.931 -0.4782 -0.4288 -0.3281
  165SAPE   O3218556   5.712   4.283   6.906  0.5024 -0.8217  0.5464
  165SAPE   C3218557   5.641   4.124   7.075 -0.9424  0.2987  0.9533
  165SAPE   H2X18558   5.702   4.034   7.094  1.2707  1.9705  2.1742
  165SAPE   H2Y18559   5.533   4.101   7.062 -0.7803  0.1524 -0.2757
  165SAPE   C2318560   5.363   4.400   6.743  0.0674  0.2115 -0.0191
  165SAPE   H3R18561   5.437   4.387   6.824  0.5742  1.0839 -0.3261
  165SAPE   H3S18562   5.310   4.303   6.729 -0.0312 -0.2724  3.1582
  165SAPE   C2418563   5.269   4.517   6.774 -0.8213  1.0293 -0.0135
  165SAPE   H4R18564   5.223   4.540   6.675  0.7589  0.0008 -1.0175
  165SAPE   H4S18565   5.341   4.595   6.806  0.2179  0.2689 -0.4369
  165SAPE   C2518566   5.167   4.469   6.878  0.3395 -0.1363 -0.3437
  165SAPE   H5R18567   5.083   4.409   6.842  0.1641 -0.6165  0.8283
  165SAPE   C2618568   5.182   4.479   7.018 -0.3132 -0.6851  0.0622
  165SAPE   H6R18569   5.108   4.439   7.088 -0.2599 -0.5226  0.2100
  165SAPE   C2718570   5.295   4.547   7.089 -0.3977  0.1014 -0.3140
  165SAPE   H7R18571   5.262   4.646   7.128  1.7691  1.1046 -0.8985
  165SAPE   H7S18572   5.380   4.565   7.020  0.7101  0.8219  1.1903
  165SAPE   C2818573   5.364   4.467   7.207  0.0817  0.4174 -0.3017
  165SAPE   H8R18574   5.465   4.431   7.180  0.6456  2.2233 -0.7683
  165SAPE   C2918575   5.329   4.471   7.338  0.3455 -0.4510  0.5729
  165SAPE   H9R18576   5.386   4.418   7.416  0.4201 -2.0421 -0.5217
  165SAPE  C21018577   5.211   4.549   7.397 -0.3800  0.9179 -0.3197
  165SAPE  H10R18578   5.144   4.600   7.325 -0.9643 -0.1433 -0.5382
  165SAPE  H10S18579   5.241   4.634   7.463  2.7927 -0.6293  0.4138
  165SAPE  C21118580   5.117   4.461   7.479  0.3382  0.7463  0.3950
  165SAPE  H11R18581   5.080   4.380   7.415  1.1244 -1.1682  2.2369
  165SAPE  C21218582   5.082   4.459   7.604 -0.2975  0.5271 -0.4609
  165SAPE  H12R18583   5.005   4.390   7.642  0.3338  0.7875  1.3836
  165SAPE  C21318584   5.132   4.561   7.707 -1.0842 -0.1161  0.2227
  165SAPE  H13R18585   5.194   4.636   7.654  0.5401 -2.0463 -0.7408
  165SAPE  H13S18586   5.207   4.496   7.757 -2.3442 -2.9675 -1.3454
  165SAPE  C21418587   5.041   4.620   7.813 -0.8117 -0.5843 -0.0668
  165SAPE  H14R18588   4.984   4.705   7.775 -0.5579 -0.0527  0.7033
  165SAPE  C21518589   5.037   4.592   7.949 -0.1015 -0.9031 -0.0041
  165SAPE  H15R18590   4.962   4.641   8.013 -0.3480 -0.1125 -0.8743
  165SAPE  C21618591   5.111   4.490   8.025  0.6280 -0.0544  0.3201
  165SAPE  H16R18592   5.122   4.402   7.958  1.8601  0.7736 -0.6056
  165SAPE  H16S18593   5.047   4.457   8.109  3.2192 -3.9150  1.0181
  165SAPE  C21718594   5.238   4.537   8.076 -0.4307 -0.5669  0.3360
  165SAPE  H17R18595   5.305   4.572   7.995 -1.7129 -0.4520 -0.7044
  165SAPE  H17S18596   5.291   4.449   8.118  2.7667  1.4826  0.9625
  165SAPE  C21818597   5.226   4.641   8.192 -0.3549 -0.2248  0.4754
  165SAPE  H18R18598   5.142   4.617   8.260 -1.0259  0.0856 -0.2265
  165SAPE  H18S18599   5.215   4.742   8.146  0.0984 -0.6433 -0.5731
  165SAPE  C21918600   5.346   4.651   8.289 -0.8236 -0.5041 -0.2733
  165SAPE  H19R18601   5.354   4.554   8.342  2.0270 -1.1809 -1.7496
  165SAPE  H19S18602   5.325   4.740   8.353  0.0768 -0.6656  0.2734
  165SAPE  C22018603   5.477   4.681   8.219 -0.3005  0.3113 -0.1876
  165SAPE  H20R18604   5.548   4.741   8.280  0.6318  0.2776 -1.2048
  165SAPE  H20S18605   5.452   4.726   8.121  2.8177 -0.2225 -1.3542
  165SAPE  H20T18606   5.529   4.588   8.187  0.0430  1.3139 -2.7574
  165SAPE   C3318607   5.683   4.231   7.176 -0.2248 -0.3420  0.3072
  165SAPE   H3X18608   5.644   4.333   7.152  2.1726  0.4320 -0.5852
  165SAPE   H3Y18609   5.794   4.231   7.174 -0.1706 -1.1549  1.8187
  165SAPE   C3418610   5.636   4.187   7.321 -0.4508  0.0725  0.5066
  165SAPE   H4X18611   5.683   4.087   7.328  0.6424  0.3117 -1.9821
  165SAPE   H4Y18612   5.527   4.168   7.307 -0.2182 -0.7354 -0.3206
  165SAPE   C3518613   5.664   4.274   7.439 -0.2379 -0.8021  0.4879
  165SAPE   H5X18614   5.606   4.369   7.430  0.7734 -0.3262 -2.0379
  165SAPE   H5Y18615   5.771   4.304   7.434 -0.8022  1.9444  2.4313
  165SAPE   C3618616   5.624   4.222   7.574  0.1474  0.3079 -0.8585
  165SAPE   H6X18617   5.658   4.117   7.575  0.3197  0.3185 -2.9257
  165SAPE   H6Y18618   5.516   4.235   7.596  0.1175  0.0351 -0.8489
  165SAPE   C3718619   5.702   4.298   7.681  0.3441  0.4453 -0.0973
  165SAPE   H7X18620   5.698   4.407   7.661  0.2097  0.2724 -1.0692
  165SAPE   H7Y18621   5.813   4.287   7.686  0.4017  0.8764 -0.3642
  165SAPE   C3818622   5.657   4.273   7.825  0.3321 -0.1324 -0.0264
  165SAPE   H8X18623   5.689   4.168   7.841  0.0244 -0.0784  0.9852
  165SAPE   H8Y18624   5.546   4.274   7.830  0.2531  0.2129 -1.3487
  165SAPE   C3918625   5.723   4.353   7.936 -0.2827  0.1468 -0.6349
  165SAPE   H9X18626   5.689   4.459   7.925 -0.1835  0.3309  0.7210
  165SAPE   H9Y18627   5.833   4.343   7.931  0.0293  1.5666  1.9001
  165SAPE  C31018628   5.672   4.295   8.065 -0.2607 -0.6750 -0.0151
  165SAPE  H10X18629   5.710   4.191   8.073 -0.0132 -0.6491 -0.7314
  165SAPE  H10Y18630   5.562   4.301   8.079 -0.2197 -0.1794  0.1339
  165SAPE  C31118631   5.741   4.363   8.181  0.3897  0.4582  0.6061
  165SAPE  H11X18632   5.716   4.471   8.187 -1.9656  0.1206 -1.3781
  165SAPE  H11Y18633   5.851   4.354   8.169  0.6535  0.5328  2.7275
  165SAPE  C31218634   5.700   4.296   8.312  0.2639  0.3399 -0.0865
  165SAPE  H12X18635   5.735   4.191   8.324  0.6782  0.3659 -1.0041
  165SAPE  H12Y18636   5.591   4.291   8.330  0.4052  1.0413  1.0656
  165SAPE  C31318637   5.741   4.367   8.446 -0.3867  0.2541  0.5549
  165SAPE  H13X18638   5.717   4.295   8.528 -0.5073  0.1918  0.4651
  165SAPE  H13Y18639   5.693   4.467   8.454  0.8530  1.3930 -3.6527
  165SAPE  C31418640   5.890   4.379   8.463 -0.5207  0.1212 -0.4109
  165SAPE  H14X18641   5.934   4.425   8.372 -1.2043 -0.0436 -0.8379
  165SAPE  H14Y18642   5.939   4.279   8.468  1.1321  0.8968 -0.4251
  165SAPE  C31518643   5.930   4.464   8.585  0.2591  0.1582  0.5991
  165SAPE  H15X18644   5.900   4.401   8.672 -0.2082 -0.9400 -0.3367
  165SAPE  H15Y18645   5.874   4.560   8.589  2.0314  1.2729  0.0623
  165SAPE  C31618646   6.083   4.472   8.589 -0.0776 -0.0610 -0.9523
  165SAPE  H16X18647   6.104   4.528   8.496  1.0672 -0.3487 -0.8855
  165SAPE  H16Y18648   6.122   4.368   8.588  0.0973 -0.0434  0.5166
  165SAPE  C31718649   6.155   4.546   8.706  0.7566  0.2767  0.2314
  165SAPE  H17X18650   6.259   4.552   8.669  1.4462  0.1983  2.0776
  165SAPE  H17Y18651   6.149   4.489   8.801  2.6654  1.6418  1.2257
  165SAPE  C31818652   6.095   4.684   8.734  0.2878  0.1760 -0.7956
  165SAPE  H18X18653   6.102   4.740   8.638 -1.3647  0.4088 -0.8099
  165SAPE  H18Y18654   6.161   4.732   8.809  0.2981 -1.4833  0.3107
  165SAPE  H18Z18655   5.994   4.677   8.781 -0.6196  0.6237 -2.6067
  166SAPE     N18656   0.442   0.147   5.909  0.3179 -0.3300  0.6686
  166SAPE   HN118657   0.516   0.205   5.865  0.7765 -0.9104  0.6586
  166SAPE   HN218658   0.470   0.147   6.009  2.5014 -0.0230  0.0963
  166SAPE   HN318659   0.449   0.048   5.877  1.1619  0.2848 -1.1981
  166SAPE   C1218660   0.309   0.202   5.873  0.2440 -0.0911  0.0929
  166SAPE  H12A18661   0.312   0.218   5.763 -0.2641  0.0868  0.1051
  166SAPE  H12B18662   0.310   0.305   5.915 -1.5560 -1.0042  2.6398
  166SAPE   C1118663   0.197   0.109   5.920  0.1136 -0.3368 -0.4554
  166SAPE  H11A18664   0.097   0.150   5.893  0.8710  0.5545 -2.0910
  166SAPE  H11B18665   0.214   0.108   6.030  0.6077  1.0388 -0.4978
  166SAPE     P18666   0.101  -0.128   5.882 -0.5338  0.1954  0.3021
  166SAPE   O1318667  -0.012  -0.072   5.809  0.4516  0.1624  0.7842
  166SAPE   O1418668   0.144  -0.265   5.844 -0.2695  0.6205 -0.4218
  166SAPE   O1218669   0.223  -0.027   5.864 -0.1408 -0.2707  0.0150
  166SAPE   O1118670   0.077  -0.112   6.036 -1.1498  0.0010  0.5158
  166SAPE    C118671  -0.050  -0.136   6.099  0.2889 -0.3346  0.3783
  166SAPE    HA18672  -0.103  -0.211   6.036  1.2682  0.0751 -0.9947
  166SAPE    HB18673  -0.037  -0.175   6.202 -0.1777  0.7696  0.8714
  166SAPE    C218674  -0.133  -0.004   6.110 -0.4563 -0.0693  0.6942
  166SAPE    HS18675  -0.134   0.035   6.006  1.0693 -2.8855 -0.4823
  166SAPE   O2118676  -0.061   0.085   6.200  0.4103  0.0994  0.2317
  166SAPE   C2118677  -0.074   0.215   6.167  0.1154 -0.3443 -0.0543
  166SAPE   O2218678  -0.145   0.267   6.086 -0.0234  0.0335 -0.3187
  166SAPE   C2218679   0.022   0.292   6.263 -0.4668 -0.7796 -0.1651
  166SAPE   H2R18680   0.082   0.359   6.197  0.5931 -0.8023  0.7540
  166SAPE   H2S18681  -0.038   0.365   6.321  0.6404  1.0431 -1.2044
  166SAPE    C318682  -0.284  -0.013   6.150  0.5052  0.5656  0.1884
  166SAPE    HX18683  -0.330  -0.066   6.064  0.8786  1.5533 -0.6308
  166SAPE    HY18684  -0.330   0.089   6.151 -2.5036 -0.6265 -2.1259
  166SAPE   O3118685  -0.296  -0.077   6.282 -0.2869  0.1959  0.5043
  166SAPE   C3118686  -0.333  -0.207   6.270 -0.2626  0.2710 -0.2608
  166SAPE   O3218687  -0.362  -0.260   6.166  0.5195  0.1959  0.1599
  166SAPE   C3218688  -0.366  -0.246   6.410  0.3878 -0.1215  0.2184
  166SAPE   H2X18689  -0.472  -0.219   6.428  1.5508  2.8423  4.2349
  166SAPE   H2Y18690  -0.323  -0.181   6.489 -0.4583  1.3474 -0.4881
  166SAPE   C2318691   0.117   0.212   6.356  0.2797 -0.0490 -0.0352
  166SAPE   H3R18692   0.158   0.126   6.299  1.5036  0.4777  0.0094
  166SAPE   H3S18693   0.062   0.154   6.432 -0.6942 -2.3511 -2.3376
  166SAPE   C2418694   0.233   0.303   6.401  0.6993  0.2663  0.2059
  166SAPE   H4R18695   0.270   0.352   6.309  1.4702  2.9374  1.8244
  166SAPE   H4S18696   0.317   0.249   6.449  1.3979  1.0332 -0.1331
  166SAPE   C2518697   0.197   0.421   6.482 -0.7923 -0.7920 -0.0191
  166SAPE   H5R18698   0.203   0.516   6.426  0.4603 -1.8807 -1.8209
  166SAPE   C2618699   0.182   0.423   6.614  0.1768 -0.1107  0.2479
  166SAPE   H6R18700   0.176   0.525   6.655  0.9481  0.7053 -1.5832
  166SAPE   C2718701   0.204   0.302   6.708 -0.7084 -0.2049 -0.3750
  166SAPE   H7R18702   0.305   0.309   6.754 -1.3818  1.6229  0.9593
  166SAPE   H7S18703   0.185   0.213   6.644  1.4431 -0.0366 -1.3469
  166SAPE   C2818704   0.111   0.296   6.825  0.0506 -0.1512  0.1273
  166SAPE   H8R18705   0.009   0.263   6.802 -0.7800  1.6245  1.0555
  166SAPE   C2918706   0.144   0.305   6.951  0.2329 -0.5261  0.0012
  166SAPE   H9R18707   0.058   0.300   7.020  1.1220 -2.2395  1.0507
  166SAPE  C21018708   0.276   0.333   7.020 -0.6085  0.0209  0.5258
  166SAPE  H10R18709   0.358   0.352   6.948 -1.6603  1.6701 -0.2982
  166SAPE  H10S18710   0.302   0.247   7.086  0.7438  1.3635  1.8274
  166SAPE  C21118711   0.275   0.460   7.106 -0.0673  0.0887  0.1260
  166SAPE  H11R18712   0.271   0.557   7.053  0.0705 -0.1897 -0.4049
  166SAPE  C21218713   0.264   0.455   7.239 -0.8694  0.1681 -0.0480
  166SAPE  H12R18714   0.262   0.551   7.294 -0.4195 -0.1081  0.4530
  166SAPE  C21318715   0.244   0.337   7.333 -0.1696 -0.6618  0.3906
  166SAPE  H13R18716   0.194   0.249   7.288 -0.4634 -0.3006 -0.0078
  166SAPE  H13S18717   0.167   0.365   7.408 -1.1931  1.5170 -1.3286
  166SAPE  C21418718   0.375   0.303   7.394  0.1526 -0.6843  0.1800
  166SAPE  H14R18719   0.449   0.262   7.324  1.2758 -1.8085  1.9421
  166SAPE  C21518720   0.418   0.327   7.519 -0.1305 -0.0803  0.3304
  166SAPE  H15R18721   0.514   0.286   7.554 -0.6741 -1.4519  0.2865
  166SAPE  C21618722   0.337   0.387   7.629  0.3194 -0.2804 -0.1879
  166SAPE  H16R18723   0.278   0.475   7.598  1.4402  0.3542 -0.5629
  166SAPE  H16S18724   0.408   0.427   7.705 -0.8829  1.2471  0.1789
  166SAPE  C21718725   0.225   0.303   7.698 -0.3812 -0.1824  0.7736
  166SAPE  H17R18726   0.143   0.282   7.626  1.8324 -2.3571 -1.3101
  166SAPE  H17S18727   0.182   0.361   7.783 -0.7255  0.9554 -0.1599
  166SAPE  C21818728   0.271   0.167   7.747 -0.4356 -0.0769 -0.6349
  166SAPE  H18R18729   0.365   0.180   7.805 -2.3229  0.9024  2.4788
  166SAPE  H18S18730   0.289   0.113   7.652 -1.6034 -1.1565 -0.2664
  166SAPE  C21918731   0.169   0.102   7.828 -0.8461  0.3524  0.1202
  166SAPE  H19R18732   0.086   0.064   7.763 -0.4604 -0.9857  0.3864
  166SAPE  H19S18733   0.135   0.197   7.874  2.7696  2.6664 -1.5539
  166SAPE  C22018734   0.224  -0.002   7.927 -0.2502 -1.3764 -0.2629
  166SAPE  H20R18735   0.247  -0.094   7.869  0.7272 -0.3700 -1.5490
  166SAPE  H20S18736   0.152  -0.024   8.009  0.4655 -1.2019  0.4321
  166SAPE  H20T18737   0.325   0.028   7.964  0.0191 -1.5026 -0.8843
  166SAPE   C3318738  -0.339  -0.394   6.431 -0.3520 -0.1146  0.1059
  166SAPE   H3X18739  -0.228  -0.408   6.434 -0.2041  1.1186  1.0467
  166SAPE   H3Y18740  -0.381  -0.463   6.354  1.1753  0.3000 -1.1544
  166SAPE   C3418741  -0.371  -0.450   6.565 -0.5499  1.1669  0.2587
  166SAPE   H4X18742  -0.353  -0.560   6.565 -0.0405  1.2499  0.0627
  166SAPE   H4Y18743  -0.481  -0.445   6.580 -0.4448 -0.6234  2.2471
  166SAPE   C3518744  -0.288  -0.383   6.674  0.7412  0.6294  0.3537
  166SAPE   H5X18745  -0.321  -0.277   6.681 -0.5439  0.3551 -0.9745
  166SAPE   H5Y18746  -0.183  -0.401   6.643  0.1316 -0.1720 -1.4229
  166SAPE   C3618747  -0.315  -0.453   6.805 -0.5179  0.2443  0.4786
  166SAPE   H6X18748  -0.293  -0.561   6.795 -0.9986  0.2097 -0.2642
  166SAPE   H6Y18749  -0.421  -0.455   6.840  0.1306 -1.2966  2.5941
  166SAPE   C3718750  -0.232  -0.387   6.914 -0.1092 -0.0366  0.2118
  166SAPE   H7X18751  -0.267  -0.285   6.939 -0.1397  0.1454 -0.5417
  166SAPE   H7Y18752  -0.130  -0.363   6.878 -0.3141  0.9292  0.2567
  166SAPE   C3818753  -0.201  -0.477   7.044 -0.0732  0.4073  0.2760
  166SAPE   H8X18754  -0.157  -0.575   7.017 -0.7697  0.5823 -1.6510
  166SAPE   H8Y18755  -0.297  -0.507   7.092 -0.0868  1.0978  0.6953
  166SAPE   C3918756  -0.115  -0.399   7.138 -0.9021  0.2599 -0.4950
  166SAPE   H9X18757  -0.188  -0.322   7.171 -2.4168 -0.4707 -1.9547
  166SAPE   H9Y18758  -0.034  -0.354   7.076 -0.5359 -0.4242 -0.5267
  166SAPE  C31018759  -0.046  -0.488   7.246 -0.0422 -0.5475  0.9090
  166SAPE  H10X18760   0.011  -0.416   7.309  0.3225 -1.3490  1.5334
  166SAPE  H10Y18761   0.025  -0.562   7.202 -0.4639 -0.4724  0.1015
  166SAPE  C31118762  -0.146  -0.568   7.338 -0.4771 -0.3517 -0.0770
  166SAPE  H11X18763  -0.213  -0.641   7.288 -1.5151 -0.4838  1.4098
  166SAPE  H11Y18764  -0.214  -0.484   7.366  0.4121  0.8546 -1.3959
  166SAPE  C31218765  -0.089  -0.610   7.478  0.4716  0.2818 -0.9726
  166SAPE  H12X18766  -0.059  -0.520   7.538  0.9493 -1.5295  1.7155
  166SAPE  H12Y18767   0.014  -0.653   7.475  1.2992  1.7745  2.0030
  166SAPE  C31318768  -0.195  -0.691   7.559 -0.3009 -0.6007 -0.8791
  166SAPE  H13X18769  -0.213  -0.788   7.508  1.1483 -1.5547  0.3454
  166SAPE  H13Y18770  -0.292  -0.637   7.561 -0.0732 -0.2024 -0.4473
  166SAPE  C31418771  -0.136  -0.724   7.703  0.3365  0.0789  0.3320
  166SAPE  H14X18772  -0.218  -0.749   7.774 -0.6328 -1.9229 -1.4026
  166SAPE  H14Y18773  -0.091  -0.624   7.724 -1.5101  1.4525 -1.7633
  166SAPE  C31518774  -0.029  -0.835   7.712  0.2354  0.1379 -0.3213
  166SAPE  H15X18775   0.052  -0.807   7.641 -0.8086  0.7260 -1.3014
  166SAPE  H15Y18776  -0.078  -0.931   7.686 -0.6410  0.7438 -0.9421
  166SAPE  C31618777   0.028  -0.856   7.855 -0.0058 -1.4177  0.2085
  166SAPE  H16X18778  -0.057  -0.876   7.925  1.8648 -2.1400  2.4140
  166SAPE  H16Y18779   0.072  -0.762   7.894 -1.3866 -1.3372  1.6908
  166SAPE  C31718780   0.135  -0.962   7.882 -0.8217 -0.2880  0.0523
  166SAPE  H17X18781   0.214  -0.968   7.803 -1.9174  2.0112 -1.3337
  166SAPE  H17Y18782   0.077  -1.057   7.888 -0.9659 -0.1007  3.1978
  166SAPE  C31818783   0.189  -0.947   8.027 -0.5394  0.3552  0.3584
  166SAPE  H18X18784   0.264  -1.025   8.053  0.4945  0.8328 -1.1255
  166SAPE  H18Y18785   0.103  -0.966   8.096  0.5039 -0.0657  1.5711
  166SAPE  H18Z18786   0.233  -0.850   8.056  0.8673  0.4154 -1.8061
  167SAPE     N18787   0.455   5.995   6.384 -0.2907  0.2522  0.1932
  167SAPE   HN118788   0.367   6.051   6.388 -0.0330  0.6366  0.6144
  167SAPE   HN218789   0.442   5.892   6.387  1.4282 -0.1329 -2.6460
  167SAPE   HN318790   0.504   6.019   6.473 -0.8279  1.5374  0.1667
  167SAPE   C1218791   0.535   6.025   6.263  0.4020 -0.5919 -0.2779
  167SAPE  H12A18792   0.466   6.011   6.176 -1.8797 -0.1362  1.3560
  167SAPE  H12B18793   0.623   5.957   6.264  0.6101 -0.3505 -1.1091
  167SAPE   C1118794   0.573   6.168   6.259 -0.2576 -0.0097 -0.1798
  167SAPE  H11A18795   0.645   6.181   6.175 -1.3895  0.3823 -1.1075
  167SAPE  H11B18796   0.632   6.185   6.352 -1.1778  1.2083  0.2008
  167SAPE     P18797   0.405   6.317   6.128  0.1464 -0.3902 -0.2012
  167SAPE   O1318798   0.510   6.398   6.059  0.0659 -0.1391 -0.0876
  167SAPE   O1418799   0.340   6.214   6.046 -0.6166  0.0905 -0.0453
  167SAPE   O1218800   0.466   6.262   6.264  0.0212 -0.2621  0.0800
  167SAPE   O1118801   0.294   6.419   6.182  0.1035 -0.5857  0.1379
  167SAPE    C118802   0.190   6.367   6.259 -0.1244  0.6391 -0.5382
  167SAPE    HA18803   0.093   6.412   6.228 -1.0870 -0.7177  0.3601
  167SAPE    HB18804   0.165   6.259   6.252  2.9529 -0.2273  0.3031
  167SAPE    C218805   0.219   6.405   6.414  0.9034  0.2151  0.4612
  167SAPE    HS18806   0.328   6.388   6.428  0.8807 -1.8998 -1.3508
  167SAPE   O2118807   0.131   6.330   6.503 -0.0081 -0.0520 -0.2647
  167SAPE   C2118808   0.142   6.197   6.507  0.2092  0.3061  0.0391
  167SAPE   O2218809   0.228   6.125   6.457  0.1808  0.6554  0.4939
  167SAPE   C2218810   0.039   6.141   6.603  0.4257  0.9407  0.3434
  167SAPE   H2R18811   0.031   6.208   6.691 -0.4877 -0.9208  1.7546
  167SAPE   H2S18812  -0.058   6.128   6.551 -0.1908 -0.3827  1.7315
  167SAPE    C318813   0.186   6.554   6.432 -0.1212  0.1888 -0.0985
  167SAPE    HX18814   0.098   6.583   6.371 -2.2659  0.4227  2.8544
  167SAPE    HY18815   0.274   6.612   6.398  0.7405 -1.4295 -0.6843
  167SAPE   O3118816   0.150   6.583   6.564 -0.5150 -0.2866 -0.7796
  167SAPE   C3118817   0.248   6.617   6.643 -0.5860 -0.2604 -0.6653
  167SAPE   O3218818   0.365   6.617   6.615 -0.1741 -0.3136 -0.0617
  167SAPE   C3218819   0.185   6.659   6.778  0.5548  0.5954 -1.0099
  167SAPE   H2X18820   0.115   6.574   6.795 -0.0125  1.2273 -0.0543
  167SAPE   H2Y18821   0.131   6.755   6.760 -0.9275 -0.0017  0.0259
  167SAPE   C2318822   0.066   5.993   6.645  0.2190 -0.3227 -0.6235
  167SAPE   H3R18823   0.166   6.001   6.691 -0.6582 -3.6536  2.2875
  167SAPE   H3S18824   0.082   5.925   6.559  0.7631  0.5976 -1.2715
  167SAPE   C2418825  -0.018   5.933   6.758  0.3994 -0.2061 -0.4602
  167SAPE   H4R18826  -0.016   6.005   6.842 -0.4455 -0.1113 -0.5127
  167SAPE   H4S18827   0.034   5.838   6.785 -0.1453 -0.4050 -0.0907
  167SAPE   C2518828  -0.161   5.905   6.705 -0.0976 -0.1380 -0.2486
  167SAPE   H5R18829  -0.160   5.879   6.598 -0.7059 -1.8344  0.1202
  167SAPE   C2618830  -0.281   5.900   6.769 -0.5282  0.3470 -0.2806
  167SAPE   H6R18831  -0.369   5.872   6.709 -1.9623  2.1420  0.8577
  167SAPE   C2718832  -0.319   5.937   6.908  0.1275  0.9758 -0.7789
  167SAPE   H7R18833  -0.429   5.928   6.911  0.2001 -0.3187 -1.2163
  167SAPE   H7S18834  -0.304   6.046   6.924 -0.6146  0.6703  2.6557
  167SAPE   C2818835  -0.242   5.858   7.010 -0.1997  0.3838 -0.1603
  167SAPE   H8R18836  -0.136   5.846   6.984  0.1678  2.3677  0.2675
  167SAPE   C2918837  -0.294   5.807   7.125 -0.1993 -0.1320  1.0047
  167SAPE   H9R18838  -0.224   5.757   7.193  0.0057 -0.3693  0.6177
  167SAPE  C21018839  -0.431   5.833   7.179  0.4752  0.1549 -0.2873
  167SAPE  H10R18840  -0.496   5.877   7.100  2.3688 -0.7748 -2.4594
  167SAPE  H10S18841  -0.428   5.906   7.262 -2.0973 -1.7064  1.6198
  167SAPE  C21118842  -0.509   5.707   7.223  0.1087  0.3612 -0.3499
  167SAPE  H11R18843  -0.567   5.651   7.148 -0.7050 -0.7209  1.0394
  167SAPE  C21218844  -0.521   5.659   7.352  0.3810  0.3474  0.2787
  167SAPE  H12R18845  -0.584   5.570   7.362  0.4914  0.2046 -0.2618
  167SAPE  C21318846  -0.461   5.710   7.477  0.1252  0.6645 -0.6446
  167SAPE  H13R18847  -0.453   5.821   7.474  0.6499  0.9327  3.5781
  167SAPE  H13S18848  -0.363   5.659   7.484 -0.2674 -0.2754 -1.7587
  167SAPE  C21418849  -0.540   5.673   7.598  0.3433 -0.4530 -0.4119
  167SAPE  H14R18850  -0.646   5.662   7.570  0.2013  0.9975 -0.5202
  167SAPE  C21518851  -0.497   5.628   7.719  0.7357 -1.1677 -0.4423
  167SAPE  H15R18852  -0.579   5.592   7.783 -0.7860 -0.3608 -1.9084
  167SAPE  C21618853  -0.353   5.620   7.769 -0.0389  0.0329 -0.5246
  167SAPE  H16R18854  -0.276   5.639   7.691  0.6914 -2.1534 -0.3954
  167SAPE  H16S18855  -0.326   5.514   7.786 -1.4429 -0.8825 -3.3625
  167SAPE  C21718856  -0.310   5.696   7.895  0.4351 -0.6805  0.2027
  167SAPE  H17R18857  -0.330   5.803   7.874  0.8514 -0.6108  0.1641
  167SAPE  H17S18858  -0.200   5.694   7.908  0.3588  0.0556  1.0481
  167SAPE  C21818859  -0.387   5.662   8.019 -0.1139 -0.6568 -0.2400
  167SAPE  H18R18860  -0.374   5.559   8.057 -0.7310 -0.4309  0.6193
  167SAPE  H18S18861  -0.495   5.681   8.000 -0.7932 -1.8130  2.1388
  167SAPE  C21918862  -0.356   5.753   8.140 -0.3408  0.2663  0.0129
  167SAPE  H19R18863  -0.375   5.861   8.118 -1.1902 -0.0819 -1.0567
  167SAPE  H19S18864  -0.249   5.737   8.166  0.2333  3.0817 -0.2752
  167SAPE  C22018865  -0.432   5.714   8.271  0.3961 -0.3003  0.4005
  167SAPE  H20R18866  -0.388   5.772   8.355 -0.1495  0.5641  0.1043
  167SAPE  H20S18867  -0.431   5.611   8.313 -4.1105 -0.5765  0.3840
  167SAPE  H20T18868  -0.540   5.739   8.257  0.6791 -0.1712 -1.9474
  167SAPE   C3318869   0.275   6.651   6.899 -0.3716 -0.1328  1.0218
  167SAPE   H3X18870   0.364   6.716   6.883  0.0920 -1.5356 -3.2012
  167SAPE   H3Y18871   0.313   6.547   6.903 -1.0662 -0.5213 -1.0807
  167SAPE   C3418872   0.193   6.686   7.029 -0.7706  0.2198  0.6215
  167SAPE   H4X18873   0.094   6.636   7.028  0.0649 -1.5429  1.1415
  167SAPE   H4Y18874   0.185   6.797   7.034  1.2383  0.4361  0.2094
  167SAPE   C3518875   0.268   6.632   7.155  0.3522  0.1907 -0.6106
  167SAPE   H5X18876   0.375   6.659   7.162 -0.2950  2.4788  1.7175
  167SAPE   H5Y18877   0.268   6.521   7.144  0.3078  0.1843 -0.5454
  167SAPE   C3618878   0.190   6.665   7.287 -0.2612 -0.1040 -0.0098
  167SAPE   H6X18879   0.086   6.626   7.278 -0.7389  0.8103  1.1977
  167SAPE   H6Y18880   0.181   6.772   7.315  0.5853 -0.3218  1.1852
  167SAPE   C3718881   0.257   6.605   7.405 -0.4535 -0.6579 -0.1611
  167SAPE   H7X18882   0.280   6.501   7.373 -1.2392 -1.8259  2.7304
  167SAPE   H7Y18883   0.192   6.598   7.494 -2.8760  0.0995 -1.7517
  167SAPE   C3818884   0.389   6.675   7.457 -0.5371 -0.0673  0.3668
  167SAPE   H8X18885   0.379   6.776   7.501  0.9290  0.1671  0.1936
  167SAPE   H8Y18886   0.450   6.677   7.365 -2.6862 -2.2254 -1.2497
  167SAPE   C3918887   0.452   6.593   7.578  0.2053  0.0837  0.5431
  167SAPE   H9X18888   0.426   6.489   7.550  0.6993  0.6738 -2.4601
  167SAPE   H9Y18889   0.387   6.618   7.664 -1.0338 -0.6774 -0.1403
  167SAPE  C31018890   0.595   6.619   7.593 -0.0742 -0.3435  0.1708
  167SAPE  H10X18891   0.614   6.724   7.626  0.1328  0.7093 -2.8810
  167SAPE  H10Y18892   0.653   6.611   7.498  0.6215  2.0759  0.3032
  167SAPE  C31118893   0.661   6.516   7.690  0.5029  0.3064 -0.8297
  167SAPE  H11X18894   0.771   6.513   7.677  0.6302  0.3889  0.1290
  167SAPE  H11Y18895   0.617   6.417   7.667  0.2686  0.3689 -0.6518
  167SAPE  C31218896   0.624   6.545   7.838 -0.4041 -0.0666  0.7483
  167SAPE  H12X18897   0.513   6.549   7.839 -0.5321 -1.7490 -0.8787
  167SAPE  H12Y18898   0.649   6.645   7.878 -0.2992  1.1244 -2.0718
  167SAPE  C31318899   0.688   6.449   7.939  0.3770 -0.3593  0.5995
  167SAPE  H13X18900   0.799   6.457   7.949  0.3778  1.1483 -0.3698
  167SAPE  H13Y18901   0.666   6.350   7.893  1.3263  0.2495 -1.2410
  167SAPE  C31418902   0.636   6.461   8.081  0.8011  0.2575  0.2621
  167SAPE  H14X18903   0.687   6.549   8.125  1.0596  0.1753  0.1251
  167SAPE  H14Y18904   0.670   6.366   8.128 -0.5600 -0.2219  0.3465
  167SAPE  C31518905   0.479   6.450   8.095  0.1215 -0.6751  0.6119
  167SAPE  H15X18906   0.422   6.522   8.032  2.0003  1.3745  1.1358
  167SAPE  H15Y18907   0.451   6.482   8.198 -1.3203  0.7920 -0.1885
  167SAPE  C31618908   0.421   6.306   8.086  0.5395  0.7006  0.0850
  167SAPE  H16X18909   0.327   6.302   8.145 -0.1955  0.3448 -1.0897
  167SAPE  H16Y18910   0.484   6.234   8.143 -3.6770 -3.0009  0.5824
  167SAPE  C31718911   0.369   6.254   7.948 -0.1924 -0.0992 -0.3616
  167SAPE  H17X18912   0.368   6.143   7.953 -0.2922 -0.1360 -1.1059
  167SAPE  H17Y18913   0.442   6.280   7.868  0.7076  1.8498  1.0023
  167SAPE  C31818914   0.232   6.311   7.910  0.5083  0.2989  0.4822
  167SAPE  H18X18915   0.237   6.422   7.917  0.6430  0.3887 -0.8531
  167SAPE  H18Y18916   0.150   6.262   7.968  1.6482 -0.2122  1.7117
  167SAPE  H18Z18917   0.213   6.287   7.804 -1.4666 -1.7913  1.2119
  168SAPE     N18918   2.501   1.328   6.264  0.5494 -0.5042  0.4497
  168SAPE   HN118919   2.547   1.397   6.327 -2.0234 -0.2677  2.2006
  168SAPE   HN218920   2.531   1.232   6.291  2.4988 -0.1993 -0.4241
  168SAPE   HN318921   2.550   1.324   6.173  0.7246  1.4988  0.4213
  168SAPE   C1218922   2.352   1.351   6.255 -0.8133  0.3191 -0.6504
  168SAPE  H12A18923   2.340   1.430   6.178 -1.5579 -2.5957 -3.8287
  168SAPE  H12B18924   2.317   1.376   6.357  0.2773  1.1838 -0.4686
  168SAPE   C1118925   2.283   1.240   6.182 -0.7161 -0.1048  1.1669
  168SAPE  H11A18926   2.316   1.234   6.075  0.5412 -0.0231  1.5326
  168SAPE  H11B18927   2.174   1.255   6.171 -0.6937 -1.0306 -1.0347
  168SAPE     P18928   2.221   1.013   6.294  0.0718  0.0338 -0.5552
  168SAPE   O1318929   2.135   0.962   6.178 -0.1141  0.1917  0.0311
  168SAPE   O1418930   2.300   0.922   6.377  0.2886 -0.0044 -0.5105
  168SAPE   O1218931   2.329   1.117   6.236  0.1698 -0.0082  0.0510
  168SAPE   O1118932   2.124   1.097   6.381 -0.1131 -0.3249 -0.5416
  168SAPE    C118933   2.153   1.163   6.508 -0.0803  0.3625  0.2098
  168SAPE    HA18934   2.260   1.191   6.515  0.1687 -0.2931 -0.8009
  168SAPE    HB18935   2.098   1.259   6.508  2.0880  1.7793 -3.3413
  168SAPE    C218936   2.123   1.067   6.631 -0.4108 -0.2077 -0.4896
  168SAPE    HS18937   2.151   0.967   6.592  0.7500  0.7281 -2.1863
  168SAPE   O2118938   1.984   1.072   6.659  0.6520  0.3779  0.5492
  168SAPE   C2118939   1.909   0.985   6.596  0.1976 -0.0164  0.0161
  168SAPE   O2218940   1.946   0.903   6.510 -0.5574 -0.2945 -0.0435
  168SAPE   C2218941   1.767   0.986   6.651 -0.1328  1.0050 -1.5663
  168SAPE   H2R18942   1.747   1.061   6.730  0.3675 -0.6448  0.2234
  168SAPE   H2S18943   1.706   1.008   6.561  0.0783 -3.0015 -2.8714
  168SAPE    C318944   2.214   1.120   6.745  0.4422 -0.1069 -1.0033
  168SAPE    HX18945   2.186   1.226   6.767 -2.2822 -1.1041  0.8859
  168SAPE    HY18946   2.322   1.122   6.722  0.6234  2.7149 -0.2764
  168SAPE   O3118947   2.186   1.036   6.869 -0.3857 -0.6429  0.4717
  168SAPE   C3118948   2.257   0.930   6.881 -0.1275  0.3515 -0.0273
  168SAPE   O3218949   2.335   0.884   6.799 -0.0287 -0.5372 -0.2761
  168SAPE   C3218950   2.224   0.858   7.005 -0.6429 -0.2563 -0.6000
  168SAPE   H2X18951   2.268   0.757   6.990 -0.7859 -0.7796  1.9585
  168SAPE   H2Y18952   2.114   0.852   7.019 -0.4963 -0.7839  0.4385
  168SAPE   C2318953   1.719   0.852   6.711  0.1157  0.3190 -0.6789
  168SAPE   H3R18954   1.767   0.833   6.809  1.0061  2.4715 -0.6366
  168SAPE   H3S18955   1.735   0.771   6.637  0.6863  0.1484 -0.3761
  168SAPE   C2418956   1.565   0.869   6.739 -0.1255 -0.1825  0.3427
  168SAPE   H4R18957   1.558   0.937   6.826 -1.7299 -0.7021  0.6651
  168SAPE   H4S18958   1.520   0.773   6.772 -2.3274  0.3394 -0.9371
  168SAPE   C2518959   1.470   0.935   6.637 -0.0957  0.5801  0.3362
  168SAPE   H5R18960   1.464   0.879   6.542  2.2051  0.6364  0.1136
  168SAPE   C2618961   1.385   1.035   6.664  0.2816  0.5810  0.2408
  168SAPE   H6R18962   1.314   1.071   6.588 -0.9893 -0.8512  0.7264
  168SAPE   C2718963   1.368   1.097   6.802  0.2265 -0.4613  0.8449
  168SAPE   H7R18964   1.441   1.176   6.832 -0.1790  0.4419 -0.4592
  168SAPE   H7S18965   1.383   1.024   6.884 -2.0621 -0.7510  1.0623
  168SAPE   C2818966   1.225   1.141   6.827 -0.1133  0.4350 -0.0959
  168SAPE   H8R18967   1.162   1.153   6.738  1.0365  0.0137 -0.9803
  168SAPE   C2918968   1.181   1.167   6.955  0.5529  0.1170 -0.5031
  168SAPE   H9R18969   1.076   1.193   6.977  0.1694  0.1228 -2.2002
  168SAPE  C21018970   1.271   1.152   7.078  0.2401  0.0835  0.0369
  168SAPE  H10R18971   1.377   1.176   7.053  0.4365  0.8218  1.4820
  168SAPE  H10S18972   1.276   1.048   7.115  0.4770  0.3587  0.7869
  168SAPE  C21118973   1.234   1.253   7.188  0.6385 -0.4743 -0.1046
  168SAPE  H11R18974   1.153   1.321   7.160 -0.4477 -2.5429 -2.4258
  168SAPE  C21218975   1.288   1.252   7.308 -0.2234  0.3647  0.4023
  168SAPE  H12R18976   1.263   1.327   7.384 -0.6184  1.2708 -0.6092
  168SAPE  C21318977   1.392   1.157   7.354 -0.2371 -0.7097  0.7177
  168SAPE  H13R18978   1.451   1.115   7.270  0.8145  2.0873 -0.0348
  168SAPE  H13S18979   1.342   1.075   7.410  0.7410 -1.8911 -0.0718
  168SAPE  C21418980   1.501   1.215   7.455  0.4044  0.2276  0.0788
  168SAPE  H14R18981   1.590   1.262   7.410  0.5155 -0.3219 -0.2819
  168SAPE  C21518982   1.491   1.230   7.590  0.9764 -0.3778 -0.2505
  168SAPE  H15R18983   1.565   1.281   7.654 -2.5034  2.4964  1.8711
  168SAPE  C21618984   1.371   1.186   7.668 -0.7370 -0.4314  0.5889
  168SAPE  H16R18985   1.305   1.112   7.616  0.8869  0.0142 -2.3255
  168SAPE  H16S18986   1.313   1.276   7.697  0.6107  0.2847  1.1176
  168SAPE  C21718987   1.420   1.108   7.789 -0.2926 -0.3844  0.5118
  168SAPE  H17R18988   1.431   1.004   7.751 -2.0177  0.2971 -2.1029
  168SAPE  H17S18989   1.333   1.102   7.859  1.0235  0.0189  2.2584
  168SAPE  C21818990   1.554   1.147   7.857  0.0950  0.1429 -0.7186
  168SAPE  H18R18991   1.563   1.257   7.876  2.2010 -0.3441  1.6242
  168SAPE  H18S18992   1.633   1.107   7.790 -0.8455 -0.7802 -1.3098
  168SAPE  C21918993   1.578   1.083   7.990  0.1738 -0.3653  1.0939
  168SAPE  H19R18994   1.687   1.068   8.003  0.2929 -0.5937 -0.0532
  168SAPE  H19S18995   1.529   0.984   8.001  0.6192 -1.1243 -2.5954
  168SAPE  C22018996   1.523   1.178   8.098 -0.2929  0.4173  0.1923
  168SAPE  H20R18997   1.541   1.145   8.203 -1.6980  0.0767  0.3475
  168SAPE  H20S18998   1.418   1.199   8.072  0.2677  0.7184 -2.0270
  168SAPE  H20T18999   1.574   1.277   8.101  1.3572 -0.3512  4.0349
  168SAPE   C3319000   2.273   0.923   7.136 -0.0104 -0.5221 -0.0508
  168SAPE   H3X19001   2.217   1.016   7.159 -1.6118 -1.4182 -0.2167
  168SAPE   H3Y19002   2.381   0.951   7.135  0.1911 -0.8028  3.0649
  168SAPE   C3419003   2.242   0.840   7.261  0.4027 -0.2055 -0.2569
  168SAPE   H4X19004   2.316   0.758   7.272  0.8761  0.0536 -1.4250
  168SAPE   H4Y19005   2.147   0.782   7.251  0.5613 -0.4086 -0.6148
  168SAPE   C3519006   2.250   0.937   7.383  0.1634 -0.2822  0.1693
  168SAPE   H5X19007   2.150   0.984   7.398  0.4037  0.2819  0.0076
  168SAPE   H5Y19008   2.319   1.021   7.362 -1.1018  1.0051  0.9039
  168SAPE   C3619009   2.289   0.863   7.509  0.8470 -0.9359  0.6130
  168SAPE   H6X19010   2.389   0.816   7.508  0.8421 -0.9896  1.4900
  168SAPE   H6Y19011   2.209   0.787   7.526 -0.1225 -0.3914 -1.2140
  168SAPE   C3719012   2.281   0.969   7.631  0.2648  0.0853 -1.2946
  168SAPE   H7X19013   2.193   1.037   7.626  2.2261  2.7530 -1.6261
  168SAPE   H7Y19014   2.362   1.044   7.620 -1.3163  2.0541 -0.1426
  168SAPE   C3819015   2.295   0.909   7.773 -0.2373  0.2916  0.0782
  168SAPE   H8X19016   2.364   0.822   7.766  0.2602  0.4262  2.2607
  168SAPE   H8Y19017   2.194   0.874   7.802 -0.3103  2.1360  2.3979
  168SAPE   C3919018   2.334   1.013   7.877 -0.1041 -0.1272  0.2476
  168SAPE   H9X19019   2.287   1.111   7.853 -0.7420 -0.7264 -1.0395
  168SAPE   H9Y19020   2.441   1.040   7.870  0.2954 -0.5964  3.2418
  168SAPE  C31019021   2.307   0.966   8.021  0.0104  0.8432  0.4940
  168SAPE  H10X19022   2.361   0.873   8.049  1.3284  0.0497 -3.9250
  168SAPE  H10Y19023   2.199   0.948   8.036  0.1350 -0.3504  0.0546
  168SAPE  C31119024   2.344   1.074   8.113 -0.1304 -0.0127 -0.9047
  168SAPE  H11X19025   2.278   1.161   8.096  0.4495  0.6593  0.1667
  168SAPE  H11Y19026   2.443   1.122   8.100 -0.0765  0.7487  1.7444
  168SAPE  C31219027   2.336   1.040   8.268 -0.5081  0.4577 -0.0293
  168SAPE  H12X19028   2.398   0.957   8.310  0.4719 -0.1238 -2.4368
  168SAPE  H12Y19029   2.231   1.009   8.286 -0.2357  0.1072  0.9931
  168SAPE  C31319030   2.354   1.167   8.356 -0.4501  1.1658 -0.4189
  168SAPE  H13X19031   2.286   1.241   8.309 -2.1315  0.5727  0.9655
  168SAPE  H13Y19032   2.461   1.197   8.358  0.5372 -1.8118  2.5136
  168SAPE  C31419033   2.320   1.150   8.506 -0.1447  0.0122  0.2445
  168SAPE  H14X19034   2.355   1.244   8.553 -0.4433  1.2639 -1.9393
  168SAPE  H14Y19035   2.389   1.072   8.547 -0.9688 -0.3217  1.0423
  168SAPE  C31519036   2.177   1.112   8.535 -0.1609  0.0809 -0.0183
  168SAPE  H15X19037   2.136   1.031   8.470 -2.3770 -0.3933  1.8579
  168SAPE  H15Y19038   2.123   1.206   8.511  2.1134  1.6044  0.5859
  168SAPE  C31619039   2.146   1.065   8.681 -0.5606 -0.2896 -0.1726
  168SAPE  H16X19040   2.192   1.141   8.747 -1.6719 -1.0733  1.6002
  168SAPE  H16Y19041   2.205   0.974   8.705  1.1237  1.3583  2.3644
  168SAPE  C31719042   1.995   1.055   8.713  0.5704  0.5126 -0.0338
  168SAPE  H17X19043   1.941   0.991   8.639  0.8635 -0.7699  0.8331
  168SAPE  H17Y19044   1.944   1.154   8.721 -0.4488 -0.1431  2.4254
  168SAPE  C31819045   1.968   0.987   8.849  0.1853  0.2384  0.1049
  168SAPE  H18X19046   1.860   0.975   8.872 -0.0441  0.6897 -0.6849
  168SAPE  H18Y19047   2.020   1.055   8.920  0.8573  1.3088 -1.3432
  168SAPE  H18Z19048   2.012   0.885   8.840 -1.2762 -0.3674 -0.4930
  169SAPE     N19049   0.942   3.323   6.292 -0.2750 -0.2030  0.5324
  169SAPE   HN119050   0.948   3.344   6.393 -0.4313  0.4868  0.4029
  169SAPE   HN219051   1.013   3.250   6.268  0.1815  0.6028 -0.6771
  169SAPE   HN319052   0.977   3.405   6.238 -0.4370 -0.6856 -0.3229
  169SAPE   C1219053   0.801   3.288   6.245 -0.0922 -0.2173 -0.4789
  169SAPE  H12A19054   0.812   3.301   6.135 -0.0334 -0.0470 -0.4530
  169SAPE  H12B19055   0.734   3.362   6.294  0.8574 -0.0784  0.6489
  169SAPE   C1119056   0.763   3.146   6.289 -0.6071  0.6622  0.2223
  169SAPE  H11A19057   0.824   3.074   6.231 -1.6250 -0.3685  0.4027
  169SAPE  H11B19058   0.654   3.133   6.273 -0.8812 -0.3156  2.4997
  169SAPE     P19059   0.835   2.996   6.484  0.2728 -0.0574 -0.3822
  169SAPE   O1319060   0.833   2.893   6.379 -1.1244  0.3665  0.4110
  169SAPE   O1419061   0.965   3.024   6.549  0.2928 -0.0173 -0.4597
  169SAPE   O1219062   0.774   3.135   6.429 -0.8602  0.2489  0.1834
  169SAPE   O1119063   0.719   2.970   6.590 -0.1758 -0.1623  0.0095
  169SAPE    C119064   0.579   2.974   6.559  0.5632  0.5463 -0.2771
  169SAPE    HA19065   0.562   3.060   6.491  0.6888  0.8403  0.0576
  169SAPE    HB19066   0.553   2.879   6.507  1.5838 -0.0119  0.1867
  169SAPE    C219067   0.498   2.975   6.702 -0.0422 -0.0123  0.1544
  169SAPE    HS19068   0.399   2.932   6.676  0.9023 -0.3127 -3.5389
  169SAPE   O2119069   0.495   3.103   6.754  0.5440 -0.0509 -0.5441
  169SAPE   C2119070   0.387   3.129   6.826 -0.2777  0.3577  0.1773
  169SAPE   O2219071   0.288   3.061   6.832  0.0486 -0.3991 -0.8770
  169SAPE   C2219072   0.404   3.257   6.909  0.0340 -0.7593 -1.0802
  169SAPE   H2R19073   0.412   3.345   6.842 -0.5169  1.6102  1.7508
  169SAPE   H2S19074   0.312   3.265   6.971  0.8651 -1.2761  0.2834
  169SAPE    C319075   0.568   2.887   6.806  0.2408 -0.3003  0.1002
  169SAPE    HX19076   0.672   2.928   6.804 -0.8542  2.8133  1.1008
  169SAPE    HY19077   0.567   2.779   6.784 -0.3155 -0.0231 -1.3587
  169SAPE   O3119078   0.521   2.899   6.946 -0.6836  0.1948 -0.4734
  169SAPE   C3119079   0.427   2.812   6.979  0.4995 -0.2011 -0.1442
  169SAPE   O3219080   0.380   2.730   6.900 -0.4117  0.2332  0.6594
  169SAPE   C3219081   0.382   2.833   7.124 -0.2885 -0.1264  0.1431
  169SAPE   H2X19082   0.272   2.819   7.130 -0.4977  1.0304 -0.6671
  169SAPE   H2Y19083   0.399   2.940   7.147  0.8944 -0.1180 -0.6607
  169SAPE   C2319084   0.535   3.254   6.989  0.4124  0.3143 -0.7485
  169SAPE   H3R19085   0.625   3.244   6.924  0.2896  1.0015 -1.0322
  169SAPE   H3S19086   0.520   3.174   7.065 -2.3762  1.2855 -0.1409
  169SAPE   C2419087   0.574   3.379   7.080  0.1604 -0.4050  0.4358
  169SAPE   H4R19088   0.675   3.361   7.121  1.4754  0.6598 -2.1564
  169SAPE   H4S19089   0.501   3.363   7.163 -0.6266 -0.9087 -0.3314
  169SAPE   C2519090   0.560   3.517   7.022 -0.2096 -0.0404  0.2760
  169SAPE   H5R19091   0.656   3.538   6.973 -0.1329  0.2755  0.5610
  169SAPE   C2619092   0.460   3.610   7.024  0.1174 -0.4417 -0.5273
  169SAPE   H6R19093   0.469   3.707   6.973 -0.6997 -0.9029 -1.6029
  169SAPE   C2719094   0.328   3.589   7.096  0.3259  0.7497  0.3170
  169SAPE   H7R19095   0.306   3.671   7.167  2.1966  0.0274  1.8027
  169SAPE   H7S19096   0.325   3.491   7.149  0.5600 -0.1255 -1.2163
  169SAPE   C2819097   0.210   3.584   7.000 -0.5786  0.4780  0.4002
  169SAPE   H8R19098   0.228   3.539   6.901 -1.0626 -0.0616  0.5561
  169SAPE   C2919099   0.081   3.608   7.036 -0.5770 -0.4566  0.7568
  169SAPE   H9R19100   0.004   3.608   6.957 -1.6827  1.7071  1.7557
  169SAPE  C21019101   0.028   3.646   7.177 -0.5699 -0.1833  0.0378
  169SAPE  H10R19102   0.081   3.585   7.253 -2.8536 -0.2315  1.7223
  169SAPE  H10S19103  -0.079   3.619   7.190 -0.1666 -1.4811  0.8369
  169SAPE  C21119104   0.062   3.787   7.211  0.1098 -0.2183 -0.1966
  169SAPE  H11R19105   0.115   3.844   7.133 -1.1814 -0.8432 -1.5828
  169SAPE  C21219106   0.029   3.835   7.334 -1.0385 -0.0015 -0.0188
  169SAPE  H12R19107   0.068   3.936   7.352  0.3022 -0.1208 -2.0295
  169SAPE  C21319108  -0.045   3.759   7.445 -0.1005 -0.2146  0.1257
  169SAPE  H13R19109  -0.053   3.652   7.416 -2.3989 -0.3576  1.0700
  169SAPE  H13S19110  -0.152   3.788   7.443  0.1218  0.7198 -2.1524
  169SAPE  C21419111   0.019   3.779   7.579  0.7836  0.3303  0.0205
  169SAPE  H14R19112   0.029   3.886   7.603  0.7852  0.1650  0.8086
  169SAPE  C21519113   0.075   3.685   7.654 -0.2602  0.4136  0.5671
  169SAPE  H15R19114   0.116   3.707   7.754  0.4137 -0.7989  0.5844
  169SAPE  C21619115   0.108   3.538   7.617  0.1969 -0.4432  1.1897
  169SAPE  H16R19116   0.023   3.493   7.561 -0.9400  1.9285  0.9140
  169SAPE  H16S19117   0.135   3.472   7.702  1.7064 -1.9096 -0.3627
  169SAPE  C21719118   0.237   3.518   7.529 -0.3287  0.7595  0.7731
  169SAPE  H17R19119   0.228   3.595   7.448 -0.7637  0.9568  1.0087
  169SAPE  H17S19120   0.239   3.420   7.478 -0.0519  1.2755 -0.2388
  169SAPE  C21819121   0.363   3.529   7.607  0.3451 -0.0099 -0.5145
  169SAPE  H18R19122   0.360   3.445   7.680  0.7587 -0.7859 -1.3681
  169SAPE  H18S19123   0.354   3.626   7.661  0.9434  0.8346 -1.8899
  169SAPE  C21919124   0.491   3.511   7.525 -0.1905  0.2419 -0.0627
  169SAPE  H19R19125   0.482   3.419   7.464 -0.8896  0.7458 -0.7358
  169SAPE  H19S19126   0.579   3.494   7.591 -1.4729  1.6949  2.1409
  169SAPE  C22019127   0.507   3.628   7.437  0.8776 -0.3548  0.0831
  169SAPE  H20R19128   0.592   3.626   7.365 -0.3241  0.5870 -1.4318
  169SAPE  H20S19129   0.528   3.723   7.492 -1.1810  0.3048 -0.1684
  169SAPE  H20T19130   0.420   3.643   7.370  0.0462  1.1043  1.4055
  169SAPE   C3319131   0.448   2.738   7.230 -0.1554 -0.2755 -0.2532
  169SAPE   H3X19132   0.432   2.768   7.336  0.1407  0.2017 -0.3421
  169SAPE   H3Y19133   0.558   2.734   7.216  0.2905  2.1122  1.8551
  169SAPE   C3419134   0.403   2.592   7.215 -0.1244  0.2212  0.9565
  169SAPE   H4X19135   0.471   2.526   7.274  0.8043  1.5089  1.3472
  169SAPE   H4Y19136   0.407   2.564   7.108  0.9042 -0.2367  1.0962
  169SAPE   C3519137   0.265   2.557   7.270 -0.1436 -0.0862  0.4783
  169SAPE   H5X19138   0.196   2.586   7.188  0.9782 -3.0772 -1.7288
  169SAPE   H5Y19139   0.259   2.627   7.355 -1.4745  1.2492 -0.6497
  169SAPE   C3619140   0.242   2.414   7.320 -0.0751  0.5069 -1.0261
  169SAPE   H6X19141   0.232   2.340   7.238 -2.4726 -1.0975  0.5708
  169SAPE   H6Y19142   0.143   2.415   7.370 -0.1126  0.9253 -1.1065
  169SAPE   C3719143   0.340   2.362   7.425 -0.0189 -0.2823  0.7644
  169SAPE   H7X19144   0.370   2.445   7.493 -1.2392 -1.6505  3.0995
  169SAPE   H7Y19145   0.431   2.326   7.373 -0.8693  0.0461 -1.0165
  169SAPE   C3819146   0.284   2.253   7.505  0.0432  0.6271  0.4425
  169SAPE   H8X19147   0.253   2.167   7.441  0.0864  0.9729 -0.0475
  169SAPE   H8Y19148   0.197   2.297   7.557  0.1875  0.5905  0.7192
  169SAPE   C3919149   0.384   2.210   7.612  0.3036  0.1922 -0.3377
  169SAPE   H9X19150   0.486   2.250   7.596 -0.7112  3.3376  0.4066
  169SAPE   H9Y19151   0.380   2.099   7.626 -0.4780  0.2840  0.2573
  169SAPE  C31019152   0.340   2.258   7.747  0.1598  0.2568 -0.9161
  169SAPE  H10X19153   0.233   2.226   7.753 -0.5564  2.4528 -1.0279
  169SAPE  H10Y19154   0.334   2.368   7.762 -2.4174  0.0564  0.0079
  169SAPE  C31119155   0.411   2.186   7.858  0.2192  0.3782 -0.2481
  169SAPE  H11X19156   0.519   2.213   7.852  0.0608  0.8551 -1.0564
  169SAPE  H11Y19157   0.401   2.076   7.869 -1.9620  0.5959  0.5205
  169SAPE  C31219158   0.346   2.233   7.987 -1.0421  0.5287  0.1739
  169SAPE  H12X19159   0.240   2.198   7.990 -0.5143 -1.5443 -2.3755
  169SAPE  H12Y19160   0.370   2.341   8.003  1.6067 -0.0310  0.4088
  169SAPE  C31319161   0.408   2.151   8.099 -0.5710 -0.2243  0.9150
  169SAPE  H13X19162   0.519   2.158   8.102 -0.3895 -1.4175 -1.0597
  169SAPE  H13Y19163   0.393   2.041   8.093  0.3107 -0.3698  1.2560
  169SAPE  C31419164   0.368   2.199   8.236  0.0365  0.3254  0.3084
  169SAPE  H14X19165   0.259   2.177   8.249 -0.3805  1.7937 -0.5007
  169SAPE  H14Y19166   0.376   2.307   8.259 -2.3350  0.6298  0.0272
  169SAPE  C31519167   0.450   2.128   8.345  0.5854  0.0396  0.0182
  169SAPE  H15X19168   0.483   2.199   8.424 -2.2839 -0.0524  1.4263
  169SAPE  H15Y19169   0.545   2.086   8.305 -0.1384 -1.7090  0.0498
  169SAPE  C31619170   0.365   2.017   8.409  0.2911  0.5097  0.2353
  169SAPE  H16X19171   0.340   1.945   8.329  0.5337 -2.0872  2.3489
  169SAPE  H16Y19172   0.267   2.057   8.442  0.4213 -0.0750  1.3683
  169SAPE  C31719173   0.441   1.947   8.520 -0.3179  0.4549  0.2722
  169SAPE  H17X19174   0.378   1.879   8.581  1.1613 -0.7212  0.5516
  169SAPE  H17Y19175   0.482   2.027   8.584 -0.2048  2.9162 -2.6443
  169SAPE  C31819176   0.553   1.846   8.484  0.0162 -0.6010 -0.2086
  169SAPE  H18X19177   0.595   1.805   8.578 -0.3844 -2.0913 -0.6500
  169SAPE  H18Y19178   0.635   1.891   8.423 -0.3218  0.1502 -0.1118
  169SAPE  H18Z19179   0.511   1.761   8.426 -2.1594  0.9112 -0.9549
  170SAPE     N19180   1.339   5.467   6.294 -0.2269  0.5363  0.3156
  170SAPE   HN119181   1.308   5.405   6.217  0.3162 -0.8478  1.1869
  170SAPE   HN219182   1.395   5.405   6.356  0.4976  0.6218 -0.2504
  170SAPE   HN319183   1.253   5.488   6.350 -3.7110  1.5998 -4.6918
  170SAPE   C1219184   1.420   5.588   6.246 -0.2635 -0.4814  0.3406
  170SAPE  H12A19185   1.355   5.660   6.192 -0.9893 -0.7643  0.8266
  170SAPE  H12B19186   1.497   5.552   6.174  0.3838  2.3722 -0.5076
  170SAPE   C1119187   1.493   5.652   6.367 -0.1803  0.3286  0.0982
  170SAPE  H11A19188   1.537   5.564   6.420 -0.1456 -1.0930 -2.1474
  170SAPE  H11B19189   1.421   5.706   6.432  0.5044 -0.8751  1.9269
  170SAPE     P19190   1.578   5.890   6.314 -0.4622  0.1065  0.3263
  170SAPE   O1319191   1.700   5.966   6.271  0.1920  0.0466  0.0518
  170SAPE   O1419192   1.461   5.917   6.227  0.4219 -0.0452  0.7887
  170SAPE   O1219193   1.604   5.736   6.321  0.0636 -0.0253 -0.3180
  170SAPE   O1119194   1.549   5.926   6.466 -0.4363  0.1755  0.1553
  170SAPE    C119195   1.641   5.885   6.572  0.1357 -0.5433 -0.4935
  170SAPE    HA19196   1.619   5.783   6.610  0.7440 -1.1365 -1.6589
  170SAPE    HB19197   1.748   5.895   6.543  0.0228  0.0033 -0.7279
  170SAPE    C219198   1.628   5.985   6.699  0.2604  0.0855 -0.1419
  170SAPE    HS19199   1.710   5.966   6.772 -2.7881 -2.4787  2.9491
  170SAPE   O2119200   1.505   5.963   6.761  0.3750  0.2565 -0.0737
  170SAPE   C2119201   1.498   5.885   6.866 -0.0094 -0.0850 -0.1618
  170SAPE   O2219202   1.596   5.831   6.915  0.0489  0.1371 -0.3242
  170SAPE   C2219203   1.363   5.885   6.915  0.1711  1.2970  0.4710
  170SAPE   H2R19204   1.331   5.985   6.952  2.6998  2.8116 -1.1439
  170SAPE   H2S19205   1.295   5.868   6.829 -1.4693  0.6941  1.8440
  170SAPE    C319206   1.630   6.131   6.660 -0.3698  0.2154  0.3720
  170SAPE    HX19207   1.546   6.145   6.588 -0.9761 -1.3779  0.7157
  170SAPE    HY19208   1.725   6.148   6.606 -0.7750  2.8539  0.3795
  170SAPE   O3119209   1.628   6.225   6.769  0.4655 -0.2373  0.2740
  170SAPE   C3119210   1.508   6.290   6.782 -0.1261 -0.2273  0.6720
  170SAPE   O3219211   1.414   6.275   6.705 -0.1196  0.1464  0.3125
  170SAPE   C3219212   1.510   6.387   6.898 -0.4611 -0.4009 -0.5317
  170SAPE   H2X19213   1.424   6.457   6.886 -0.9063 -1.3158 -3.5851
  170SAPE   H2Y19214   1.607   6.433   6.923 -1.5309  0.2549  2.9240
  170SAPE   C2319215   1.340   5.778   7.021 -0.0929 -0.2246  0.2751
  170SAPE   H3R19216   1.395   5.807   7.114  2.2832 -2.2933 -0.3746
  170SAPE   H3S19217   1.386   5.684   6.985  2.0624  1.9497 -3.1524
  170SAPE   C2419218   1.187   5.756   7.043  0.3686  0.3738 -0.0765
  170SAPE   H4R19219   1.172   5.673   7.115  0.9104  0.1199 -0.2459
  170SAPE   H4S19220   1.143   5.734   6.943 -0.6617  1.3474  0.1433
  170SAPE   C2519221   1.128   5.888   7.091 -0.3729  0.3501  0.2421
  170SAPE   H5R19222   1.099   5.967   7.020 -2.8393  0.3049  1.1136
  170SAPE   C2619223   1.101   5.914   7.222 -0.9106 -0.2647 -0.0183
  170SAPE   H6R19224   1.051   6.010   7.239 -0.8099  0.1733 -1.9710
  170SAPE   C2719225   1.116   5.820   7.342  0.6724  0.5848 -0.3756
  170SAPE   H7R19226   1.084   5.720   7.305  0.4758  1.0371 -1.4695
  170SAPE   H7S19227   1.044   5.852   7.420 -1.3921 -2.7052 -0.7567
  170SAPE   C2819228   1.244   5.814   7.419 -0.0831 -0.8891  0.2299
  170SAPE   H8R19229   1.331   5.864   7.376  0.4301 -0.0511  2.1371
  170SAPE   C2919230   1.271   5.761   7.541 -0.6321 -0.4986  0.4237
  170SAPE   H9R19231   1.377   5.770   7.568 -0.2295  2.1147 -1.5413
  170SAPE  C21019232   1.180   5.691   7.631  0.7379  0.6868 -0.6006
  170SAPE  H10R19233   1.234   5.601   7.667  0.5689  0.9726  0.3902
  170SAPE  H10S19234   1.094   5.653   7.572  2.1408 -2.0853 -1.0172
  170SAPE  C21119235   1.121   5.771   7.742  0.0518  0.5506 -0.1718
  170SAPE  H11R19236   1.109   5.880   7.734  1.1553  0.7380  0.5026
  170SAPE  C21219237   1.110   5.724   7.867  0.1922  0.4005 -0.5578
  170SAPE  H12R19238   1.066   5.792   7.941 -1.0523  0.9520 -1.7604
  170SAPE  C21319239   1.131   5.579   7.902 -0.4175  0.4190 -0.4391
  170SAPE  H13R19240   1.239   5.555   7.912  0.4484  2.8986 -2.7364
  170SAPE  H13S19241   1.104   5.512   7.817 -1.0955  1.0202 -0.7047
  170SAPE  C21419242   1.032   5.538   8.011 -0.1479  0.4037 -0.4145
  170SAPE  H14R19243   0.960   5.463   7.977 -0.6307  1.0968 -0.9456
  170SAPE  C21519244   1.048   5.560   8.145  0.0509 -0.0458 -0.2082
  170SAPE  H15R19245   0.974   5.526   8.218 -2.0103  2.5782 -0.8943
  170SAPE  C21619246   1.160   5.640   8.214  0.8370 -0.0512 -0.0219
  170SAPE  H16R19247   1.098   5.723   8.254 -0.6213 -0.6077 -1.0472
  170SAPE  H16S19248   1.240   5.674   8.145  0.4472 -0.8146 -0.8686
  170SAPE  C21719249   1.224   5.566   8.335  0.7414 -0.3930 -0.0060
  170SAPE  H17R19250   1.273   5.473   8.298  0.3184 -0.2146 -1.0490
  170SAPE  H17S19251   1.145   5.530   8.403  1.1011  0.3509  0.8254
  170SAPE  C21819252   1.320   5.660   8.411  0.2437  0.5732 -0.1044
  170SAPE  H18R19253   1.251   5.740   8.446 -0.4221 -0.2783  0.5702
  170SAPE  H18S19254   1.388   5.708   8.337 -0.6525  1.9475 -0.0766
  170SAPE  C21919255   1.389   5.598   8.535  0.0377  0.0173 -0.2628
  170SAPE  H19R19256   1.477   5.660   8.561  0.4584 -0.2426 -1.0267
  170SAPE  H19S19257   1.426   5.498   8.505 -1.2855 -0.1386 -1.5067
  170SAPE  C22019258   1.288   5.592   8.650 -0.8696  0.2784  0.3066
  170SAPE  H20R19259   1.285   5.697   8.686  3.0648  0.1345  1.4422
  170SAPE  H20S19260   1.336   5.535   8.732 -0.0640  1.7500  0.8936
  170SAPE  H20T19261   1.187   5.555   8.623 -0.4641  0.0466 -0.9550
  170SAPE   C3319262   1.477   6.305   7.023  0.4566 -0.3239 -0.3606
  170SAPE   H3X19263   1.513   6.360   7.112  1.7309 -1.4400 -0.1628
  170SAPE   H3Y19264   1.523   6.204   7.012  1.8533 -0.0093  1.9592
  170SAPE   C3419265   1.326   6.302   7.049 -0.1443  0.4862  0.4246
  170SAPE   H4X19266   1.267   6.247   6.973 -0.3737 -0.9437  1.5873
  170SAPE   H4Y19267   1.282   6.404   7.057 -0.3036  0.5326 -0.8350
  170SAPE   C3519268   1.277   6.226   7.178 -0.0134  0.0093  0.1800
  170SAPE   H5X19269   1.329   6.129   7.187 -0.7450 -0.4201 -0.1635
  170SAPE   H5Y19270   1.172   6.193   7.165 -0.3681  0.9917  0.4245
  170SAPE   C3619271   1.299   6.301   7.314  0.7628 -0.8390  0.2863
  170SAPE   H6X19272   1.225   6.384   7.311 -0.9453 -2.2382  1.6346
  170SAPE   H6Y19273   1.404   6.339   7.317  1.1833 -1.7002 -1.7227
  170SAPE   C3719274   1.293   6.223   7.444  0.1557  0.1187 -0.4314
  170SAPE   H7X19275   1.393   6.177   7.461 -0.0676  0.1372  1.0680
  170SAPE   H7Y19276   1.228   6.134   7.432  2.0806 -1.4207 -0.1049
  170SAPE   C3819277   1.271   6.309   7.572 -0.5126  0.1892 -0.6765
  170SAPE   H8X19278   1.272   6.417   7.548 -0.0951  0.4485  0.4272
  170SAPE   H8Y19279   1.351   6.291   7.647  1.1230 -0.8939 -2.5699
  170SAPE   C3919280   1.137   6.273   7.651 -0.0620  0.5969 -0.4092
  170SAPE   H9X19281   1.141   6.171   7.696 -0.4381  1.4142  1.5844
  170SAPE   H9Y19282   1.053   6.257   7.579  1.7998 -1.7176 -2.2459
  170SAPE  C31019283   1.104   6.372   7.762 -0.1640  0.4695  0.2813
  170SAPE  H10X19284   1.002   6.343   7.795 -0.2472 -0.1290 -0.4829
  170SAPE  H10Y19285   1.105   6.472   7.713 -0.9619  0.0626 -0.5947
  170SAPE  C31119286   1.203   6.385   7.878 -0.4443  0.7194  0.0334
  170SAPE  H11X19287   1.312   6.380   7.855 -0.3969  2.5663 -0.3151
  170SAPE  H11Y19288   1.186   6.309   7.957 -0.2688 -1.2774 -1.7557
  170SAPE  C31219289   1.189   6.526   7.941  0.9602 -0.0959 -0.1774
  170SAPE  H12X19290   1.086   6.568   7.951  1.8672  2.0012  0.9230
  170SAPE  H12Y19291   1.242   6.599   7.875 -0.2033  0.2858 -0.7251
  170SAPE  C31319292   1.253   6.528   8.082 -0.0450 -0.2154 -0.3960
  170SAPE  H13X19293   1.341   6.460   8.083 -1.1992 -1.8365 -1.9817
  170SAPE  H13Y19294   1.179   6.487   8.154  0.0454  0.9302  0.3842
  170SAPE  C31419295   1.284   6.673   8.125 -0.6873  0.0670 -0.1042
  170SAPE  H14X19296   1.349   6.714   8.044  0.3356 -0.5392  0.3942
  170SAPE  H14Y19297   1.339   6.667   8.221 -1.4950  1.5775  0.4765
  170SAPE  C31519298   1.159   6.755   8.153 -0.0345  0.6561 -0.1695
  170SAPE  H15X19299   1.099   6.689   8.219  2.0709 -0.1822  1.0197
  170SAPE  H15Y19300   1.106   6.781   8.059  1.2609  1.7161 -0.6538
  170SAPE  C31619301   1.198   6.886   8.234  0.1490  0.2602  0.6789
  170SAPE  H16X19302   1.239   6.946   8.150  2.6469 -1.8942  0.1947
  170SAPE  H16Y19303   1.286   6.859   8.297  0.7276 -1.6683 -0.8302
  170SAPE  C31719304   1.080   6.955   8.304  0.0449  0.1014  0.5094
  170SAPE  H17X19305   1.123   7.025   8.379  0.5489 -0.3289  0.6214
  170SAPE  H17Y19306   1.033   6.880   8.371 -1.1259  1.2645  1.0478
  170SAPE  C31819307   0.968   7.011   8.210  0.8274 -0.4006  0.0780
  170SAPE  H18X19308   0.882   7.059   8.261  0.4226 -0.2526 -0.7334
  170SAPE  H18Y19309   0.916   6.937   8.147  1.3117  1.1037 -2.2226
  170SAPE  H18Z19310   0.997   7.092   8.140 -1.4184 -1.1933 -1.9006
  171SAPE     N19311   3.300   6.549   6.301  0.0951 -0.9367  0.2084
  171SAPE   HN119312   3.199   6.540   6.276  0.1897  0.5779 -0.8310
  171SAPE   HN219313   3.316   6.479   6.377 -0.0613  0.8938  1.9989
  171SAPE   HN319314   3.328   6.637   6.349  1.0232 -1.0964 -0.0136
  171SAPE   C1219315   3.385   6.509   6.180  0.1214  0.3941  0.5069
  171SAPE  H12A19316   3.352   6.554   6.084 -2.2423 -2.6204 -0.2668
  171SAPE  H12B19317   3.363   6.401   6.166 -0.1734  0.1451  2.6375
  171SAPE   C1119318   3.533   6.537   6.214  0.1760  0.0683 -0.2988
  171SAPE  H11A19319   3.607   6.525   6.132  1.1419 -1.9056  0.8094
  171SAPE  H11B19320   3.565   6.462   6.288  0.3470 -0.6854 -1.1274
  171SAPE     P19321   3.631   6.786   6.225 -0.1560 -0.2368  0.4973
  171SAPE   O1319322   3.725   6.742   6.124  0.0654  0.0714  0.7232
  171SAPE   O1419323   3.526   6.884   6.177  0.0222  0.4251 -0.6403
  171SAPE   O1219324   3.553   6.664   6.278  0.2113 -0.4180 -0.4257
  171SAPE   O1119325   3.718   6.845   6.345  0.0632 -0.4863  0.2472
  171SAPE    C119326   3.762   6.759   6.448 -0.0445  0.2481  0.5531
  171SAPE    HA19327   3.747   6.652   6.423  1.0703 -0.1078  1.3436
  171SAPE    HB19328   3.872   6.763   6.462  0.1865 -1.6986 -0.4504
  171SAPE    C219329   3.668   6.779   6.571 -0.7196  0.5284 -0.9482
  171SAPE    HS19330   3.562   6.768   6.540 -0.8918 -0.2506 -0.1240
  171SAPE   O2119331   3.702   6.905   6.634 -0.1627  0.2580 -0.3341
  171SAPE   C2119332   3.601   6.966   6.701 -0.2157  0.9317 -0.2778
  171SAPE   O2219333   3.490   6.922   6.718 -0.4260  0.2448 -0.3591
  171SAPE   C2219334   3.650   7.104   6.751  0.1109  0.0744 -0.5540
  171SAPE   H2R19335   3.741   7.139   6.697 -0.0038  2.6408  0.7833
  171SAPE   H2S19336   3.569   7.175   6.724 -0.0521 -0.0527 -0.4025
  171SAPE    C319337   3.695   6.656   6.662  0.5241  0.4952 -0.6224
  171SAPE    HX19338   3.801   6.628   6.683  0.3230  1.1382  1.5626
  171SAPE    HY19339   3.656   6.561   6.622  0.2364  0.0358  0.6840
  171SAPE   O3119340   3.636   6.677   6.796 -0.4823  0.4099  0.3781
  171SAPE   C3119341   3.515   6.631   6.819  0.2619 -0.3871  0.7888
  171SAPE   O3219342   3.448   6.565   6.739  0.2795  0.2935  0.4049
  171SAPE   C3219343   3.461   6.683   6.954 -0.1410 -0.5377  0.5786
  171SAPE   H2X19344   3.470   6.793   6.963  2.5588 -0.7559  1.8129
  171SAPE   H2Y19345   3.535   6.652   7.032  2.0764  2.9950  0.1191
  171SAPE   C2319346   3.674   7.095   6.906  0.1991 -0.0301 -0.0331
  171SAPE   H3R19347   3.579   7.075   6.959  1.4464 -0.8390  2.0421
  171SAPE   H3S19348   3.707   7.197   6.933  3.0155 -0.9033  0.1767
  171SAPE   C2419349   3.794   7.015   6.956  0.3461 -1.2131  0.3334
  171SAPE   H4R19350   3.837   7.067   7.045  0.2566 -2.5912  1.2216
  171SAPE   H4S19351   3.869   7.026   6.875  0.5672  0.5395  0.7327
  171SAPE   C2519352   3.770   6.874   6.995  0.5044 -0.0220 -1.0092
  171SAPE   H5R19353   3.792   6.805   6.912  2.5671  1.1152 -1.4800
  171SAPE   C2619354   3.752   6.824   7.121 -0.2946  0.3256  0.1993
  171SAPE   H6R19355   3.735   6.716   7.135  0.1683  0.4703  2.2833
  171SAPE   C2719356   3.742   6.904   7.243 -0.3674 -0.6265  0.3267
  171SAPE   H7R19357   3.793   7.002   7.230  0.8680 -0.9183  2.4301
  171SAPE   H7S19358   3.794   6.855   7.328  0.6332  0.0580  0.1262
  171SAPE   C2819359   3.600   6.924   7.286  0.3003 -0.3595  0.1179
  171SAPE   H8R19360   3.524   6.942   7.209 -1.0844  2.8468  2.0079
  171SAPE   C2919361   3.549   6.917   7.409 -0.0545 -0.1032  0.2834
  171SAPE   H9R19362   3.442   6.939   7.424 -0.1798  0.5754 -1.3286
  171SAPE  C21019363   3.627   6.885   7.531 -0.3414  0.1370  0.5149
  171SAPE  H10R19364   3.720   6.944   7.514 -1.2919  1.8116  0.9938
  171SAPE  H10S19365   3.647   6.776   7.526 -0.6899  0.1211 -1.2947
  171SAPE  C21119366   3.575   6.951   7.657 -0.2540  0.2997 -0.4591
  171SAPE  H11R19367   3.525   7.046   7.634  0.3967  0.7195 -0.1684
  171SAPE  C21219368   3.591   6.911   7.786 -0.1193 -0.4357 -0.5121
  171SAPE  H12R19369   3.551   6.974   7.867  2.1554 -1.0818  1.1959
  171SAPE  C21319370   3.660   6.787   7.848  0.6288 -0.2026  0.2443
  171SAPE  H13R19371   3.726   6.733   7.776 -0.6509 -1.4714 -0.0144
  171SAPE  H13S19372   3.585   6.717   7.890  0.8277  0.3518  1.5854
  171SAPE  C21419373   3.746   6.837   7.957 -0.7919 -0.1688  0.6698
  171SAPE  H14R19374   3.780   6.941   7.941  0.1285 -0.6559 -0.7525
  171SAPE  C21519375   3.781   6.778   8.071 -0.6025 -0.6018  0.4471
  171SAPE  H15R19376   3.823   6.842   8.150 -0.0963  1.3844 -1.3330
  171SAPE  C21619377   3.732   6.640   8.108  0.1449 -0.1502  0.1789
  171SAPE  H16R19378   3.822   6.575   8.117  1.5444  1.3087 -2.1643
  171SAPE  H16S19379   3.675   6.598   8.022  0.8963 -2.4914  0.7424
  171SAPE  C21719380   3.644   6.638   8.230  0.1015 -0.0646  0.2528
  171SAPE  H17R19381   3.575   6.724   8.217 -0.1619 -0.3098  0.0050
  171SAPE  H17S19382   3.706   6.647   8.322  0.3202  1.2563 -0.0040
  171SAPE  C21819383   3.546   6.525   8.247  0.1571 -0.1546 -0.0567
  171SAPE  H18R19384   3.598   6.427   8.253 -1.0126 -0.7425  0.7450
  171SAPE  H18S19385   3.465   6.523   8.170 -1.4455 -1.7513  1.5715
  171SAPE  C21919386   3.467   6.548   8.381 -0.1176 -0.5120 -0.4142
  171SAPE  H19R19387   3.411   6.643   8.367  1.8491  0.7595 -0.0293
  171SAPE  H19S19388   3.544   6.565   8.460  0.6951 -1.1167 -1.0529
  171SAPE  C22019389   3.363   6.441   8.414 -0.3384  0.4941 -0.6174
  171SAPE  H20R19390   3.287   6.423   8.335  0.8732 -2.0556 -1.3052
  171SAPE  H20S19391   3.309   6.462   8.509 -0.0967  3.1809 -1.0004
  171SAPE  H20T19392   3.416   6.344   8.424 -0.0342  0.5836 -1.2951
  171SAPE   C3319393   3.321   6.630   6.991 -0.1687 -0.7393  0.6759
  171SAPE   H3X19394   3.337   6.520   7.001 -1.7867 -0.9804  1.0102
  171SAPE   H3Y19395   3.249   6.630   6.906 -1.7041 -0.8658  1.9409
  171SAPE   C3419396   3.242   6.697   7.107  0.0519 -0.1855 -0.0540
  171SAPE   H4X19397   3.134   6.674   7.110 -0.2316  0.8779 -1.2959
  171SAPE   H4Y19398   3.261   6.805   7.089  1.6511 -0.7119 -1.8466
  171SAPE   C3519399   3.291   6.643   7.251  0.0301  0.4077 -0.2702
  171SAPE   H5X19400   3.398   6.666   7.265  0.6020 -1.9475 -0.2840
  171SAPE   H5Y19401   3.277   6.532   7.250  0.3750  0.3519  0.7824
  171SAPE   C3619402   3.211   6.724   7.353 -0.3066 -0.3509 -0.4524
  171SAPE   H6X19403   3.102   6.714   7.334 -0.8245  0.3283  1.8560
  171SAPE   H6Y19404   3.229   6.827   7.317  3.3845 -1.3897 -1.9608
  171SAPE   C3719405   3.241   6.683   7.500 -0.6370 -0.0237  0.0150
  171SAPE   H7X19406   3.352   6.674   7.504 -0.3808  1.0711 -2.6848
  171SAPE   H7Y19407   3.188   6.587   7.512 -0.5058  0.0307  1.1685
  171SAPE   C3819408   3.197   6.789   7.600  0.4222 -0.3976  0.1290
  171SAPE   H8X19409   3.094   6.811   7.563 -0.1394 -2.1814  0.5230
  171SAPE   H8Y19410   3.276   6.867   7.596  1.8108 -1.7578 -0.1466
  171SAPE   C3919411   3.190   6.727   7.735  0.9269  0.3761  0.1906
  171SAPE   H9X19412   3.283   6.667   7.744  1.4064  1.3970  2.9215
  171SAPE   H9Y19413   3.110   6.651   7.735  2.4994 -1.3727 -0.9968
  171SAPE  C31019414   3.179   6.843   7.842 -0.1486  0.0897  0.2839
  171SAPE  H10X19415   3.091   6.906   7.819 -0.1973  0.0524  0.3694
  171SAPE  H10Y19416   3.267   6.911   7.837 -1.2883  1.5096 -1.5926
  171SAPE  C31119417   3.179   6.788   7.985 -0.2879  0.2880 -0.0710
  171SAPE  H11X19418   3.280   6.751   8.013 -0.2675 -0.5677 -1.2112
  171SAPE  H11Y19419   3.126   6.690   7.985  0.6240 -0.2163  0.1256
  171SAPE  C31219420   3.114   6.887   8.078  0.0086  0.3884  0.0868
  171SAPE  H12X19421   3.008   6.895   8.049  0.2647  1.5720 -0.5994
  171SAPE  H12Y19422   3.161   6.988   8.071 -0.2945  0.5517  0.3852
  171SAPE  C31319423   3.131   6.840   8.227 -0.0755  0.1143  0.2168
  171SAPE  H13X19424   3.077   6.914   8.289 -1.3225  1.2028 -2.0629
  171SAPE  H13Y19425   3.238   6.838   8.258 -0.0614 -0.0134  0.1610
  171SAPE  C31419426   3.048   6.719   8.251 -0.0767  0.6221 -0.0544
  171SAPE  H14X19427   3.083   6.633   8.191  0.5489  1.6914 -1.2686
  171SAPE  H14Y19428   2.939   6.722   8.226 -0.2673 -0.0343  0.6706
  171SAPE  C31519429   3.054   6.672   8.404  0.1687  0.1054  0.5657
  171SAPE  H15X19430   3.049   6.771   8.454  1.7228  1.3246 -1.5447
  171SAPE  H15Y19431   3.155   6.631   8.427  0.9423  0.6553 -1.6907
  171SAPE  C31619432   2.939   6.566   8.436  0.3030 -0.1307 -0.7612
  171SAPE  H16X19433   2.853   6.613   8.384  0.3278  0.0156 -0.6704
  171SAPE  H16Y19434   2.929   6.562   8.547  0.8635  1.0047 -0.6556
  171SAPE  C31719435   2.946   6.429   8.378  0.7646 -0.3607  0.1229
  171SAPE  H17X19436   3.032   6.394   8.439  0.2903 -1.4045  0.2125
  171SAPE  H17Y19437   2.969   6.420   8.269 -0.6159  0.2931 -0.2310
  171SAPE  C31819438   2.834   6.342   8.439 -0.0460 -0.0438  0.7295
  171SAPE  H18X19439   2.813   6.379   8.542 -0.8024  0.1403  0.5096
  171SAPE  H18Y19440   2.850   6.233   8.451 -0.4082 -0.1582  0.1892
  171SAPE  H18Z19441   2.744   6.365   8.380  1.1322 -1.4531 -1.7830
  172SAPE     N19442   1.904   6.589   6.058 -0.0234 -0.4265  0.0630
  172SAPE   HN119443   1.895   6.491   6.091 -2.8795 -0.3491 -0.2016
  172SAPE   HN219444   1.847   6.587   5.970  1.3292 -4.5080 -0.9527
  172SAPE   HN319445   2.000   6.603   6.020 -1.0037 -0.4776 -2.7208
  172SAPE   C1219446   1.863   6.680   6.167 -0.5973  0.9878 -1.1413
  172SAPE  H12A19447   1.755   6.664   6.191 -0.0575 -2.3373 -0.5601
  172SAPE  H12B19448   1.871   6.788   6.141  0.4154  1.4648  0.9490
  172SAPE   C1119449   1.935   6.642   6.297  0.1402  0.5535 -0.4739
  172SAPE  H11A19450   1.915   6.538   6.329  4.3668  0.4443  2.7935
  172SAPE  H11B19451   1.888   6.710   6.372 -1.2946  0.4865 -1.2893
  172SAPE     P19452   2.166   6.538   6.326 -0.0493  0.0400  0.0339
  172SAPE   O1319453   2.137   6.423   6.241 -0.4657 -0.2862 -0.4161
  172SAPE   O1419454   2.309   6.587   6.339  0.3446  0.4163  0.7330
  172SAPE   O1219455   2.076   6.660   6.285  0.3572 -0.0388  0.9509
  172SAPE   O1119456   2.108   6.511   6.464 -0.2672  0.0549  0.3044
  172SAPE    C119457   2.099   6.611   6.563 -0.5195 -0.2694  0.1672
  172SAPE    HA19458   2.188   6.677   6.565 -0.2907 -0.5225 -0.9642
  172SAPE    HB19459   2.018   6.686   6.552 -0.5457 -0.4655 -1.1798
  172SAPE    C219460   2.086   6.540   6.699 -0.0374  0.0321 -1.2364
  172SAPE    HS19461   2.111   6.605   6.786  1.0420 -2.0980  0.1341
  172SAPE   O2119462   2.175   6.434   6.708 -0.6204 -0.2379  0.0477
  172SAPE   C2119463   2.304   6.471   6.724  0.2115  0.2133 -0.7462
  172SAPE   O2219464   2.336   6.586   6.743 -0.0799 -0.0900 -0.6177
  172SAPE   C2219465   2.388   6.346   6.742  0.0046 -0.7704  0.3088
  172SAPE   H2R19466   2.327   6.255   6.724  0.4944 -1.2329  0.9460
  172SAPE   H2S19467   2.473   6.358   6.671  0.2955 -0.6523  0.6728
  172SAPE    C319468   1.939   6.484   6.720  0.0037 -0.1823  0.7815
  172SAPE    HX19469   1.917   6.415   6.635  1.0472 -1.6916  1.7008
  172SAPE    HY19470   1.871   6.572   6.715 -0.5154 -0.6100  0.0817
  172SAPE   O3119471   1.921   6.429   6.850 -0.1099 -0.2897  0.6505
  172SAPE   C3119472   1.920   6.292   6.852  0.2963  0.3534  0.5341
  172SAPE   O3219473   1.945   6.220   6.752 -0.1334  0.0829  0.3009
  172SAPE   C3219474   1.899   6.242   6.990  0.2964 -0.2157 -0.3676
  172SAPE   H2X19475   1.791   6.256   7.012 -0.0245 -0.6596 -1.5578
  172SAPE   H2Y19476   1.952   6.283   7.079 -1.3793  0.7904  0.2172
  172SAPE   C2319477   2.455   6.353   6.881 -0.2685  0.3217 -0.0685
  172SAPE   H3R19478   2.375   6.381   6.953  0.3373  0.6929  0.4684
  172SAPE   H3S19479   2.533   6.432   6.876  1.7216 -1.5811 -0.6852
  172SAPE   C2419480   2.533   6.224   6.928  0.3075 -0.4093  0.3173
  172SAPE   H4R19481   2.601   6.241   7.014 -0.7921  0.7401  1.0059
  172SAPE   H4S19482   2.599   6.197   6.843  0.7681 -1.6782  1.0595
  172SAPE   C2519483   2.450   6.105   6.951 -0.4478 -0.2603 -0.0550
  172SAPE   H5R19484   2.448   6.022   6.878  1.2101  0.2386 -0.7063
  172SAPE   C2619485   2.376   6.094   7.060 -0.3212  0.1381  0.6432
  172SAPE   H6R19486   2.305   6.009   7.063  0.5004 -0.6134 -0.2854
  172SAPE   C2719487   2.360   6.198   7.173  0.6920  0.2147 -0.5541
  172SAPE   H7R19488   2.326   6.298   7.139 -2.4752  0.1505  1.9592
  172SAPE   H7S19489   2.457   6.220   7.222  0.3756  1.4275 -0.4443
  172SAPE   C2819490   2.259   6.173   7.281 -0.2986  0.3335  0.6127
  172SAPE   H8R19491   2.179   6.101   7.259  0.4719 -0.6265  0.8670
  172SAPE   C2919492   2.272   6.220   7.404  0.0425  0.4662 -0.1201
  172SAPE   H9R19493   2.183   6.220   7.469  0.8449  0.3006  1.0102
  172SAPE  C21019494   2.377   6.313   7.451  0.3479 -1.0514 -0.2545
  172SAPE  H10R19495   2.321   6.387   7.512  2.4055 -0.8702  1.5162
  172SAPE  H10S19496   2.419   6.374   7.368 -1.2022  0.2367 -0.1568
  172SAPE  C21119497   2.484   6.236   7.527  0.1176  0.7676  0.2843
  172SAPE  H11R19498   2.588   6.254   7.495 -0.0213 -0.5993 -1.0454
  172SAPE  C21219499   2.464   6.177   7.646  0.1547  0.6994  0.1357
  172SAPE  H12R19500   2.547   6.123   7.694 -1.0435  0.3356  1.8909
  172SAPE  C21319501   2.342   6.161   7.731  0.6515 -0.6451 -1.2342
  172SAPE  H13R19502   2.351   6.058   7.770  0.8511 -0.4300 -0.6998
  172SAPE  H13S19503   2.256   6.156   7.661  0.9945  1.5579 -1.9027
  172SAPE  C21419504   2.307   6.263   7.836 -0.2214 -0.1901 -0.5167
  172SAPE  H14R19505   2.364   6.357   7.832 -0.2164 -0.0875  1.3204
  172SAPE  C21519506   2.198   6.250   7.914  0.3269  1.0504 -0.0470
  172SAPE  H15R19507   2.174   6.330   7.986 -2.5443 -0.1694  0.5103
  172SAPE  C21619508   2.098   6.136   7.909  0.4797 -0.0318  0.5687
  172SAPE  H16R19509   2.087   6.087   8.008 -3.4357  0.7992  0.7212
  172SAPE  H16S19510   2.127   6.056   7.838  0.2506  0.9794 -0.7109
  172SAPE  C21719511   1.968   6.188   7.860  0.1807 -0.2096 -0.3382
  172SAPE  H17R19512   1.938   6.275   7.922  0.4048  0.6278 -1.3639
  172SAPE  H17S19513   1.893   6.106   7.871  0.8074 -0.9914 -1.6152
  172SAPE  C21819514   1.971   6.224   7.709  0.3479  0.0830 -0.4264
  172SAPE  H18R19515   1.950   6.127   7.659  1.7055 -1.2077  1.3773
  172SAPE  H18S19516   2.072   6.255   7.675  1.4258 -3.3227 -0.6748
  172SAPE  C21919517   1.859   6.303   7.662 -0.0108 -0.2686  0.0858
  172SAPE  H19R19518   1.861   6.405   7.708 -1.9412 -0.7885  1.4537
  172SAPE  H19S19519   1.773   6.251   7.709 -0.0107 -0.7821 -0.4834
  172SAPE  C22019520   1.850   6.320   7.511 -0.1863 -0.4008 -0.1731
  172SAPE  H20R19521   1.862   6.218   7.466  0.2981  0.1003 -1.2268
  172SAPE  H20S19522   1.935   6.383   7.478  1.0334 -0.9046  1.8788
  172SAPE  H20T19523   1.758   6.375   7.483  2.4355  3.7829 -1.6249
  172SAPE   C3319524   1.924   6.088   7.002 -0.0055  0.0309  0.6066
  172SAPE   H3X19525   2.017   6.060   6.949 -1.7003  0.9200 -3.1522
  172SAPE   H3Y19526   1.847   6.036   6.941 -0.9069  1.2604  0.6743
  172SAPE   C3419527   1.919   6.021   7.134 -0.3256  0.8807  0.2668
  172SAPE   H4X19528   1.986   6.078   7.202  1.4446 -0.7085 -0.0688
  172SAPE   H4Y19529   1.963   5.920   7.128  2.7722  2.1483 -0.6012
  172SAPE   C3519530   1.775   6.029   7.183  0.5350 -0.3791  0.4452
  172SAPE   H5X19531   1.712   5.988   7.102  0.3678  1.5090 -0.4452
  172SAPE   H5Y19532   1.739   6.131   7.209  3.8287  1.1378 -0.3962
  172SAPE   C3619533   1.748   5.933   7.296  0.2539  0.5224  0.2513
  172SAPE   H6X19534   1.830   5.947   7.369  2.1185  0.9768 -1.8351
  172SAPE   H6Y19535   1.776   5.835   7.250  3.8846  1.8432 -0.6663
  172SAPE   C3719536   1.600   5.941   7.341  0.1601  0.6291 -0.8141
  172SAPE   H7X19537   1.555   5.840   7.346  2.6759 -0.5303  2.6301
  172SAPE   H7Y19538   1.538   5.999   7.270 -0.9254  0.6054  0.0910
  172SAPE   C3819539   1.593   5.980   7.491 -0.1645 -0.1193  0.4220
  172SAPE   H8X19540   1.486   5.982   7.519 -0.4049  2.0452 -0.4883
  172SAPE   H8Y19541   1.638   6.078   7.516 -1.3670 -0.0805  2.7883
  172SAPE   C3919542   1.676   5.882   7.583  1.2376 -0.1401  0.3269
  172SAPE   H9X19543   1.783   5.866   7.555  1.5055  1.6791  0.1915
  172SAPE   H9Y19544   1.619   5.787   7.581 -0.1684  0.6319  1.4990
  172SAPE  C31019545   1.685   5.934   7.727  0.9124 -0.4643 -0.0777
  172SAPE  H10X19546   1.752   6.022   7.734  0.7917 -0.4555  1.5751
  172SAPE  H10Y19547   1.736   5.861   7.794  1.6865 -0.1113 -0.2710
  172SAPE  C31119548   1.543   5.955   7.798 -0.1343 -0.4837 -0.1335
  172SAPE  H11X19549   1.481   5.863   7.789 -2.7694  1.2815 -1.2368
  172SAPE  H11Y19550   1.492   6.039   7.747  2.0769  0.3661 -1.0738
  172SAPE  C31219551   1.563   5.983   7.945 -0.5888  0.2779 -0.2303
  172SAPE  H12X19552   1.620   6.079   7.947  3.8766 -2.0868 -1.6273
  172SAPE  H12Y19553   1.607   5.894   7.993 -0.1312 -0.8101 -2.5362
  172SAPE  C31319554   1.423   6.008   8.012 -0.1062 -0.1549  0.8106
  172SAPE  H13X19555   1.378   5.908   8.032  1.1401 -0.6654  1.1437
  172SAPE  H13Y19556   1.351   6.063   7.948  0.4691  0.0010  0.2922
  172SAPE  C31419557   1.440   6.076   8.154  0.1690  0.1828  0.6685
  172SAPE  H14X19558   1.484   6.179   8.158 -0.2260  0.3174  1.7815
  172SAPE  H14Y19559   1.506   6.019   8.222 -1.6797  0.6765  2.9988
  172SAPE  C31519560   1.306   6.104   8.225  0.4683  0.1003 -0.3917
  172SAPE  H15X19561   1.242   6.014   8.242  0.6584  0.1661  0.7820
  172SAPE  H15Y19562   1.242   6.160   8.154  1.9482  1.9686 -0.3290
  172SAPE  C31619563   1.316   6.189   8.364  0.5722 -0.1092  0.3239
  172SAPE  H16X19564   1.392   6.269   8.354 -1.6222  1.8151 -2.6787
  172SAPE  H16Y19565   1.346   6.125   8.450 -0.9948 -0.3935  0.6900
  172SAPE  C31719566   1.182   6.252   8.400  0.4139 -0.6916 -0.6939
  172SAPE  H17X19567   1.099   6.223   8.332 -1.0172  1.5516  0.0030
  172SAPE  H17Y19568   1.192   6.360   8.378  1.6738 -0.1223  2.2247
  172SAPE  C31819569   1.132   6.211   8.540  0.3215 -0.2347 -0.3147
  172SAPE  H18X19570   1.025   6.241   8.545  0.1151  0.0120 -3.8486
  172SAPE  H18Y19571   1.192   6.266   8.616  0.7252 -0.7247 -0.2789
  172SAPE  H18Z19572   1.140   6.103   8.563 -1.6586 -0.6934 -1.5957
  173SOPE     N19573   4.186   1.172  11.176 -0.3237  0.0310 -0.2927
  173SOPE   HN119574   4.269   1.181  11.114 -0.7219 -0.5210 -0.9205
  173SOPE   HN219575   4.172   1.264  11.222 -0.1958 -1.1824  2.3461
  173SOPE   HN319576   4.219   1.114  11.256 -0.9104 -1.6739 -1.2285
  173SOPE   C1219577   4.060   1.129  11.109  0.0661  0.2190 -0.6289
  173SOPE  H12A19578   3.977   1.113  11.182  0.9563  2.0027  0.8534
  173SOPE  H12B19579   4.079   1.042  11.042 -0.6941 -0.2732 -0.2258
  173SOPE   C1119580   4.009   1.245  11.012 -0.0563 -0.5384  0.3910
  173SOPE  H11A19581   3.992   1.347  11.053 -0.9757 -0.2189 -0.7300
  173SOPE  H11B19582   3.908   1.217  10.977 -1.0699  2.8585  0.2367
  173SOPE     P19583   4.197   1.364  10.872  0.0481 -0.0390  0.0273
  173SOPE   O1319584   4.253   1.339  10.732 -0.1147  0.1011 -0.0149
  173SOPE   O1419585   4.299   1.373  10.982 -0.4802  0.0520  0.8820
  173SOPE   O1219586   4.096   1.247  10.900  0.1623  0.2055  0.4083
  173SOPE   O1119587   4.108   1.494  10.867  0.2006 -0.3505  0.0841
  173SOPE    C119588   3.986   1.501  10.783 -0.3799  0.8287 -0.5605
  173SOPE    HA19589   3.894   1.485  10.844  0.0423  1.3656  0.2332
  173SOPE    HB19590   3.996   1.420  10.708  1.9881  1.1858 -0.6861
  173SOPE    C219591   3.978   1.638  10.702 -0.1433  0.5001  0.2221
  173SOPE    HS19592   3.965   1.724  10.772  1.3164  1.6752 -0.8946
  173SOPE   O2119593   3.859   1.616  10.631  0.6905 -0.4049  0.5723
  173SOPE   C2119594   3.792   1.724  10.582 -0.4907 -0.1581 -0.2567
  173SOPE   O2219595   3.811   1.838  10.619 -0.1471  0.2449 -0.0953
  173SOPE   C2219596   3.690   1.672  10.491  0.3108  0.3013 -0.1048
  173SOPE   H2R19597   3.600   1.668  10.556 -0.3865  0.5820 -1.0444
  173SOPE   H2S19598   3.697   1.564  10.467 -1.2267 -0.5699  2.9290
  173SOPE    C319599   4.098   1.671  10.612 -0.0059  0.8706 -0.3798
  173SOPE    HX19600   4.112   1.592  10.535  1.4903  0.5615  0.1722
  173SOPE    HY19601   4.187   1.662  10.678 -0.8190 -1.5719  0.4699
  173SOPE   O3119602   4.091   1.800  10.550  0.4462  0.4122  0.3401
  173SOPE   C3119603   4.150   1.903  10.610  0.6222 -0.0767 -0.3318
  173SOPE   O3219604   4.207   1.904  10.718 -0.2396  0.3216 -0.3077
  173SOPE   C3219605   4.148   2.024  10.510  0.1249  0.2177 -0.2452
  173SOPE   H2X19606   4.214   2.002  10.424 -2.5753  1.3801 -2.8168
  173SOPE   H2Y19607   4.187   2.116  10.557 -1.3567 -0.4005  2.3722
  173SOPE   C2319608   3.659   1.754  10.361 -0.2782 -0.6619 -0.7039
  173SOPE   H3R19609   3.755   1.790  10.317 -0.8187 -0.2364 -1.5638
  173SOPE   H3S19610   3.603   1.845  10.392  0.0217 -0.4932 -0.6540
  173SOPE   C2419611   3.568   1.679  10.255 -0.7837 -0.3698 -0.5701
  173SOPE   H4R19612   3.486   1.632  10.313 -0.4427 -0.7576 -0.4003
  173SOPE   H4S19613   3.534   1.747  10.175  0.4380 -2.0675 -2.6468
  173SOPE   C2519614   3.645   1.565  10.183  0.8981 -1.0168  0.5319
  173SOPE   H5R19615   3.720   1.612  10.116 -0.2699  0.2867  0.0732
  173SOPE   H5S19616   3.698   1.490  10.245  1.7553 -0.5619  0.3633
  173SOPE   C2619617   3.537   1.480  10.105 -0.0455  0.0295  0.4259
  173SOPE   H6R19618   3.456   1.440  10.171 -0.9921 -0.6644 -1.1068
  173SOPE   H6S19619   3.491   1.548  10.030  0.0008 -0.0860  0.2942
  173SOPE   C2719620   3.596   1.361  10.029  0.7137  0.3396  0.4654
  173SOPE   H7R19621   3.674   1.391   9.955  1.1364  0.3590  0.9116
  173SOPE   H7S19622   3.649   1.297  10.103  0.4158  0.3995  0.7301
  173SOPE   C2819623   3.486   1.267   9.969 -0.5921  0.9340 -0.7243
  173SOPE   H8R19624   3.535   1.196   9.899  0.0339 -0.4963  1.0728
  173SOPE   H8S19625   3.435   1.209  10.049 -0.9544 -1.5360 -2.6346
  173SOPE   C2919626   3.380   1.345   9.892 -0.8268  0.6863 -0.6598
  173SOPE   H9119627   3.283   1.336   9.942  0.1178 -1.3429  0.9360
  173SOPE  C21019628   3.392   1.405   9.774 -0.5495  0.1844  0.8950
  173SOPE  H10119629   3.315   1.471   9.733  0.8591  1.6251  0.4998
  173SOPE  C21119630   3.523   1.414   9.697 -0.0943 -0.5691  0.1285
  173SOPE  H11R19631   3.610   1.372   9.752  0.2521  0.5574  0.4764
  173SOPE  H11S19632   3.553   1.521   9.691  0.9663 -0.8850 -0.5612
  173SOPE  C21219633   3.515   1.361   9.550 -0.2781  0.4373  0.0339
  173SOPE  H12R19634   3.510   1.251   9.562 -0.9536  0.3131 -1.2627
  173SOPE  H12S19635   3.611   1.371   9.494  0.2252  0.8984  0.9429
  173SOPE  C21319636   3.400   1.419   9.466 -0.4955  0.0875 -0.4918
  173SOPE  H13R19637   3.416   1.528   9.457 -0.8480  0.1723 -0.1412
  173SOPE  H13S19638   3.302   1.421   9.519  0.9072 -1.8539  2.4845
  173SOPE  C21419639   3.379   1.368   9.326 -0.3136 -0.5260  0.0644
  173SOPE  H14R19640   3.308   1.283   9.323 -1.2988  0.2963 -0.5138
  173SOPE  H14S19641   3.482   1.342   9.293  1.3196  2.0273  2.6259
  173SOPE  C21519642   3.337   1.465   9.225  0.3971  0.3164 -0.5804
  173SOPE  H15R19643   3.424   1.525   9.188 -0.6206 -0.3236 -4.5231
  173SOPE  H15S19644   3.269   1.541   9.270  1.2115  0.7176  0.0079
  173SOPE  C21619645   3.281   1.390   9.105 -0.3436 -0.7438 -0.4292
  173SOPE  H16R19646   3.190   1.331   9.129 -0.8666 -0.9643 -2.6561
  173SOPE  H16S19647   3.361   1.323   9.067 -1.7168 -2.5175 -0.3152
  173SOPE  C21719648   3.247   1.480   8.988  0.0029  0.5634  0.0548
  173SOPE  H17R19649   3.186   1.560   9.034 -1.7318  0.0042 -1.1753
  173SOPE  H17S19650   3.191   1.419   8.915 -0.6765 -0.1624  1.1593
  173SOPE  C21819651   3.373   1.539   8.921 -0.0934  0.0321  0.7362
  173SOPE  H18R19652   3.431   1.592   9.000 -0.2789 -0.1991  1.0282
  173SOPE  H18S19653   3.332   1.607   8.844 -1.9174 -1.3335  0.4228
  173SOPE  H18T19654   3.427   1.457   8.869 -0.8957 -0.5942  0.8606
  173SOPE   C3319655   4.004   2.058  10.465  0.2977 -0.0876  1.0531
  173SOPE   H3X19656   3.960   2.100  10.559  1.1316 -0.0038  1.4143
  173SOPE   H3Y19657   3.935   1.976  10.434 -0.4307  1.0606 -0.4988
  173SOPE   C3419658   3.999   2.156  10.347 -0.0719  0.6514  0.2852
  173SOPE   H4X19659   4.061   2.245  10.369  2.2090 -0.8165  0.1333
  173SOPE   H4Y19660   3.892   2.186  10.343 -0.1945  0.4578  1.6348
  173SOPE   C3519661   4.055   2.094  10.216  0.5332  0.0239 -0.3729
  173SOPE   H5X19662   4.003   1.999  10.191  1.1230  0.1675 -2.2503
  173SOPE   H5Y19663   4.160   2.059  10.219  0.3169 -0.6971 -1.0527
  173SOPE   C3619664   4.043   2.191  10.093 -0.1305  0.1287 -0.4573
  173SOPE   H6X19665   4.087   2.291  10.111 -1.0937  0.5090 -0.1774
  173SOPE   H6Y19666   3.936   2.215  10.076  0.4427  3.2056 -0.2581
  173SOPE   C3719667   4.099   2.140   9.960  0.6231 -0.3499 -0.0057
  173SOPE   H7X19668   4.075   2.032   9.956  1.7048 -0.6011 -0.2320
  173SOPE   H7Y19669   4.209   2.157   9.968  0.4431  0.4632  0.9582
  173SOPE   C3819670   4.034   2.225   9.847 -0.7933  0.7035 -0.4966
  173SOPE   H8X19671   4.063   2.330   9.867 -0.4521  0.3797  0.8097
  173SOPE   H8Y19672   3.927   2.193   9.845 -0.4277 -0.5370 -1.3049
  173SOPE   C3919673   4.078   2.194   9.703 -0.1092 -0.7605  0.4707
  173SOPE   H9X19674   4.183   2.227   9.691 -0.1024 -1.2303 -0.9175
  173SOPE   H9Y19675   4.008   2.259   9.646 -1.0481 -2.4316 -0.3668
  173SOPE  C31019676   4.054   2.052   9.650  0.0840 -0.5542  0.0892
  173SOPE  H10X19677   3.951   2.020   9.679 -0.0285  0.7329  1.1919
  173SOPE  H10Y19678   4.124   1.971   9.680  1.2537  0.8649  1.3455
  173SOPE  C31119679   4.050   2.054   9.497 -0.3966  0.1916  0.5429
  173SOPE  H11X19680   3.981   2.136   9.467 -2.9332 -1.5808  1.1914
  173SOPE  H11Y19681   4.000   1.961   9.464  1.0213 -1.3767  2.5841
  173SOPE  C31219682   4.188   2.062   9.441 -0.1245  0.1042  0.1238
  173SOPE  H12X19683   4.232   1.960   9.435  0.3714  0.2929  0.5079
  173SOPE  H12Y19684   4.264   2.126   9.491  1.9105  0.3960 -3.0298
  173SOPE  C31319685   4.173   2.115   9.296  0.0985  0.2941  0.6044
  173SOPE  H13X19686   4.271   2.151   9.257  0.6429  0.7162  2.3011
  173SOPE  H13Y19687   4.092   2.191   9.291 -2.1167 -1.8808  1.2984
  173SOPE  C31419688   4.138   2.002   9.191  0.3309  0.2654 -0.1567
  173SOPE  H14X19689   4.036   1.965   9.219  0.8535  0.2269  1.8470
  173SOPE  H14Y19690   4.207   1.915   9.198  1.4302  1.1973  0.9519
  173SOPE  C31519691   4.138   2.051   9.048  0.4838 -0.1320  0.0321
  173SOPE  H15X19692   4.239   2.097   9.042  1.6511 -2.2483  1.7416
  173SOPE  H15Y19693   4.054   2.122   9.034 -0.2089 -1.1513 -1.2609
  173SOPE  C31619694   4.103   1.950   8.943 -0.7149  0.4907 -0.6495
  173SOPE  H16X19695   3.999   1.915   8.962  0.0437 -1.8687 -0.4483
  173SOPE  H16Y19696   4.182   1.871   8.943 -0.2151  0.9135 -3.2007
  173SOPE  C31719697   4.121   2.009   8.801 -0.3100  0.6082 -1.1657
  173SOPE  H17X19698   4.150   1.926   8.733  0.9026 -1.5816  1.8256
  173SOPE  H17Y19699   4.207   2.079   8.809  0.5204 -0.5365  0.5725
  173SOPE  C31819700   3.997   2.084   8.761 -0.5797 -0.2618 -0.2086
  173SOPE  H18X19701   3.971   2.155   8.841 -2.1259  0.5996 -1.4363
  173SOPE  H18Y19702   3.906   2.020   8.752 -0.4712 -0.2091 -2.3206
  173SOPE  H18Z19703   4.016   2.144   8.669  2.4832  1.0830  1.1541
  174SOPE     N19704   5.063   1.515  10.875  0.2803  0.3812  0.0044
  174SOPE   HN119705   5.036   1.417  10.895 -0.4593  0.1271 -1.9581
  174SOPE   HN219706   5.022   1.556  10.788 -0.5863  1.2676  0.8011
  174SOPE   HN319707   5.163   1.516  10.844  0.2106  0.4582 -0.2252
  174SOPE   C1219708   5.034   1.605  10.994  0.6547  0.6809  0.3737
  174SOPE  H12A19709   5.105   1.690  10.992  1.6775 -0.1763 -0.8495
  174SOPE  H12B19710   5.068   1.544  11.081  0.2097  0.0547  0.1180
  174SOPE   C1119711   4.882   1.630  10.999  0.2603 -0.1334  0.3592
  174SOPE  H11A19712   4.861   1.705  11.079  0.0700 -0.2118  0.3816
  174SOPE  H11B19713   4.828   1.537  11.024 -0.6946  0.1301 -0.6598
  174SOPE     P19714   4.692   1.656  10.818  0.1928 -0.0489 -0.0848
  174SOPE   O1319715   4.607   1.632  10.935  0.3328 -0.2608  0.3824
  174SOPE   O1419716   4.702   1.550  10.716 -0.9067 -0.7968  0.2749
  174SOPE   O1219717   4.840   1.679  10.872  0.1873 -0.1375  0.4835
  174SOPE   O1119718   4.658   1.802  10.762 -0.4082  0.2683  0.2464
  174SOPE    C119719   4.714   1.837  10.640 -0.5142 -0.1641 -0.4267
  174SOPE    HA19720   4.822   1.812  10.629  0.7887  2.8092  3.4009
  174SOPE    HB19721   4.716   1.948  10.636 -0.6231 -0.1295  0.3291
  174SOPE    C219722   4.628   1.784  10.526  0.4937  0.5959  0.1861
  174SOPE    HS19723   4.642   1.674  10.522  1.4925  0.6921  0.6404
  174SOPE   O2119724   4.682   1.849  10.406  0.6971  0.0673 -0.2111
  174SOPE   C2119725   4.790   1.797  10.355  0.5551  0.1997 -0.7386
  174SOPE   O2219726   4.830   1.690  10.391 -0.2870 -0.4423  0.5054
  174SOPE   C2219727   4.846   1.895  10.253  0.4190 -0.1890 -0.2333
  174SOPE   H2R19728   4.897   1.979  10.304 -0.2105 -0.3473  0.6740
  174SOPE   H2S19729   4.758   1.936  10.199  0.7722  1.1513  0.1686
  174SOPE    C319730   4.474   1.823  10.541 -0.0243 -0.0124 -0.0559
  174SOPE    HX19731   4.459   1.913  10.603 -1.0358  0.3685 -0.8333
  174SOPE    HY19732   4.435   1.743  10.609  1.4257 -0.6277  0.0949
  174SOPE   O3119733   4.389   1.833  10.424 -0.2006  0.3739  0.5076
  174SOPE   C3119734   4.338   1.727  10.370 -0.1574  0.8980  0.0409
  174SOPE   O3219735   4.336   1.613  10.418  0.1924 -0.0440 -0.3283
  174SOPE   C3219736   4.266   1.752  10.236 -0.2449 -0.3615  0.7609
  174SOPE   H2X19737   4.171   1.804  10.262 -0.1463 -0.3872  1.1769
  174SOPE   H2Y19738   4.232   1.650  10.209 -1.5762 -0.1309  1.4986
  174SOPE   C2319739   4.960   1.827  10.171 -0.0024  0.4974 -0.2655
  174SOPE   H3R19740   5.019   1.760  10.237 -1.9060  0.3262  1.3677
  174SOPE   H3S19741   5.029   1.908  10.140  1.4410 -0.8361 -0.6385
  174SOPE   C2419742   4.905   1.764  10.039  0.1280  0.3062 -0.5935
  174SOPE   H4R19743   4.838   1.682  10.074  0.4627  0.2217 -0.1373
  174SOPE   H4S19744   4.848   1.845   9.988  0.3977  1.1073  0.3449
  174SOPE   C2519745   5.014   1.725   9.939 -0.3840 -0.0904  0.0300
  174SOPE   H5R19746   5.096   1.800   9.941 -2.3659  2.1532  1.4105
  174SOPE   H5S19747   5.040   1.622   9.971 -0.7651 -0.7462 -1.6573
  174SOPE   C2619748   4.969   1.712   9.790  0.0351 -0.2337 -0.4341
  174SOPE   H6R19749   4.932   1.813   9.760 -1.3415 -1.2668 -2.3667
  174SOPE   H6S19750   5.053   1.679   9.726  0.1273 -0.3600 -0.2506
  174SOPE   C2719751   4.843   1.620   9.771 -0.4860 -0.5530 -0.4087
  174SOPE   H7R19752   4.861   1.529   9.832  1.5793 -0.5909 -1.0039
  174SOPE   H7S19753   4.745   1.666   9.797 -0.6619  0.9082 -3.2414
  174SOPE   C2819754   4.842   1.570   9.621 -0.9942 -0.0219 -0.4852
  174SOPE   H8R19755   4.948   1.538   9.620 -0.7402  0.7441  0.2062
  174SOPE   H8S19756   4.789   1.473   9.624 -1.3469  0.1919  1.9972
  174SOPE   C2919757   4.799   1.677   9.521 -0.5572  0.4468  0.8704
  174SOPE   H9119758   4.793   1.782   9.554 -1.2660  0.5872  0.3184
  174SOPE  C21019759   4.779   1.649   9.395  0.3074 -0.1257  0.0047
  174SOPE  H10119760   4.746   1.721   9.319  0.2713  1.2683  1.2997
  174SOPE  C21119761   4.793   1.512   9.331  0.0342  0.2665 -0.0551
  174SOPE  H11R19762   4.851   1.449   9.402 -0.8239  0.9634  1.2982
  174SOPE  H11S19763   4.856   1.515   9.240 -1.8807  0.4156 -1.4419
  174SOPE  C21219764   4.668   1.436   9.295 -0.6599 -0.8035  0.1989
  174SOPE  H12R19765   4.629   1.475   9.199  2.4039 -0.7514 -1.1648
  174SOPE  H12S19766   4.592   1.454   9.374  0.7445  0.6344  1.2886
  174SOPE  C21319767   4.687   1.287   9.292 -0.0939 -0.1052 -0.6084
  174SOPE  H13R19768   4.777   1.263   9.230  0.2292  2.1176 -1.0932
  174SOPE  H13S19769   4.607   1.223   9.249  1.6380 -2.9771  0.1667
  174SOPE  C21419770   4.703   1.230   9.435 -0.1611  0.2999 -0.2797
  174SOPE  H14R19771   4.606   1.242   9.489 -0.3084  1.0321 -0.6967
  174SOPE  H14S19772   4.780   1.285   9.493  1.1236 -3.6785  2.1559
  174SOPE  C21519773   4.728   1.075   9.437 -0.5549  0.2215  0.3061
  174SOPE  H15R19774   4.830   1.051   9.400 -1.1170 -1.2951 -0.3596
  174SOPE  H15S19775   4.656   1.029   9.366 -1.0402 -0.0753  0.9769
  174SOPE  C21619776   4.704   1.019   9.578  0.2976 -0.1743 -0.4312
  174SOPE  H16R19777   4.661   0.919   9.554  0.4569  0.0464 -1.6841
  174SOPE  H16S19778   4.619   1.071   9.626  0.5273 -0.1570 -0.0367
  174SOPE  C21719779   4.830   1.034   9.655 -0.5409  0.3507  0.8651
  174SOPE  H17R19780   4.858   1.142   9.653 -0.0212  0.2338  1.4404
  174SOPE  H17S19781   4.916   0.984   9.606  1.3759  1.6613  2.7185
  174SOPE  C21819782   4.815   0.987   9.802 -0.6550  0.5813  0.7266
  174SOPE  H18R19783   4.710   0.980   9.837 -2.5142  2.1596 -3.7720
  174SOPE  H18S19784   4.868   1.061   9.865 -0.2229  0.9817 -0.0859
  174SOPE  H18T19785   4.864   0.888   9.798  1.0228  1.3828 -2.2156
  174SOPE   C3319786   4.358   1.822  10.138 -0.3129  0.2451  0.0998
  174SOPE   H3X19787   4.421   1.902  10.181  0.4564  0.5261 -1.4654
  174SOPE   H3Y19788   4.299   1.855  10.049 -4.4317 -2.4659  1.5127
  174SOPE   C3419789   4.467   1.729  10.086  0.4255 -0.4549 -0.5672
  174SOPE   H4X19790   4.423   1.633  10.050  1.3718 -0.5184 -1.5898
  174SOPE   H4Y19791   4.525   1.703  10.178 -1.7973 -3.2385  0.2033
  174SOPE   C3519792   4.556   1.796   9.980  0.6027  0.1386 -0.0880
  174SOPE   H5X19793   4.643   1.726   9.975 -0.0561 -0.9925  2.7532
  174SOPE   H5Y19794   4.597   1.892  10.017  1.2153 -0.3428  0.5117
  174SOPE   C3619795   4.480   1.815   9.846  0.6584 -0.2638 -0.1279
  174SOPE   H6X19796   4.548   1.871   9.778 -0.1932  1.7572  0.5843
  174SOPE   H6Y19797   4.392   1.879   9.871  0.2465 -0.1506 -1.7386
  174SOPE   C3719798   4.420   1.698   9.771  0.0827 -0.3361 -0.0547
  174SOPE   H7X19799   4.320   1.672   9.813 -0.1224  0.0947 -0.2713
  174SOPE   H7Y19800   4.487   1.610   9.781 -1.3074 -1.6252 -1.4855
  174SOPE   C3819801   4.393   1.730   9.615 -1.2083 -0.4315  0.2278
  174SOPE   H8X19802   4.496   1.747   9.577 -1.5109 -1.5675 -1.1948
  174SOPE   H8Y19803   4.335   1.824   9.621  0.9763  0.9071  2.9420
  174SOPE   C3919804   4.329   1.615   9.532 -0.2489  0.0600  0.3838
  174SOPE   H9X19805   4.226   1.613   9.572  0.1075  2.1642  1.5464
  174SOPE   H9Y19806   4.371   1.512   9.540 -1.4378 -0.5922 -1.1476
  174SOPE  C31019807   4.330   1.646   9.385  0.2537 -0.3813  0.0924
  174SOPE  H10X19808   4.431   1.660   9.343  0.4897  1.9922  1.2787
  174SOPE  H10Y19809   4.284   1.745   9.363 -1.0736 -1.3527 -1.8304
  174SOPE  C31119810   4.254   1.546   9.290 -0.2858 -0.2793 -0.2066
  174SOPE  H11X19811   4.145   1.548   9.310 -0.6093 -0.6019 -1.8162
  174SOPE  H11Y19812   4.280   1.440   9.312  1.2343  0.4500  1.8182
  174SOPE  C31219813   4.292   1.565   9.140 -0.4484  0.2525 -0.6469
  174SOPE  H12X19814   4.389   1.515   9.123 -0.3947  1.1030 -3.3652
  174SOPE  H12Y19815   4.314   1.669   9.106 -0.2517  0.2578 -0.5030
  174SOPE  C31319816   4.192   1.502   9.045 -0.2836 -0.7670 -0.4006
  174SOPE  H13X19817   4.094   1.547   9.072  0.0434 -0.4795  0.3341
  174SOPE  H13Y19818   4.201   1.395   9.072  3.2207 -0.3865  0.4859
  174SOPE  C31419819   4.213   1.526   8.894  0.3453  0.3835  0.5836
  174SOPE  H14X19820   4.304   1.472   8.859  0.4261 -0.2241  1.6853
  174SOPE  H14Y19821   4.246   1.628   8.865  1.9345 -0.5845 -1.2009
  174SOPE  C31519822   4.082   1.497   8.820 -0.1784 -0.6394 -0.4341
  174SOPE  H15X19823   4.003   1.568   8.851 -0.9269 -1.2938 -0.7900
  174SOPE  H15Y19824   4.040   1.400   8.854  2.2640 -1.4145  0.5469
  174SOPE  C31619825   4.097   1.494   8.665  0.3763 -0.3365  0.0542
  174SOPE  H16X19826   3.994   1.492   8.624 -0.4255 -1.5417  1.9885
  174SOPE  H16Y19827   4.138   1.400   8.622 -1.9665 -1.0577 -0.7467
  174SOPE  C31719828   4.168   1.621   8.619  0.0203  0.3668  0.2064
  174SOPE  H17X19829   4.275   1.616   8.651  0.6598  0.7231 -1.7326
  174SOPE  H17Y19830   4.115   1.702   8.673  1.5946  0.4926  1.6513
  174SOPE  C31819831   4.168   1.637   8.471 -0.1764  0.1560  0.0603
  174SOPE  H18X19832   4.197   1.538   8.431 -1.6268 -0.1470 -0.3243
  174SOPE  H18Y19833   4.230   1.724   8.442  2.4310 -1.3089  0.9678
  174SOPE  H18Z19834   4.069   1.648   8.421  0.6865  0.4512 -1.6551
  175SOPE     N19835   5.572   3.136  10.316 -0.6296 -0.1763  0.4515
  175SOPE   HN119836   5.488   3.082  10.285 -0.2782 -0.1602 -0.5684
  175SOPE   HN219837   5.568   3.227  10.267 -1.1155 -0.8309 -0.7774
  175SOPE   HN319838   5.654   3.085  10.277 -0.8187 -0.0696 -0.0908
  175SOPE   C1219839   5.571   3.159  10.465 -0.4666  0.1621  0.8566
  175SOPE  H12A19840   5.552   3.059  10.509  0.1280  0.0331  0.8330
  175SOPE  H12B19841   5.484   3.226  10.479 -0.6860 -0.4798  2.8102
  175SOPE   C1119842   5.696   3.216  10.522  0.0890 -0.0737  0.4499
  175SOPE  H11A19843   5.675   3.227  10.630 -0.3350  4.3104  0.1143
  175SOPE  H11B19844   5.716   3.315  10.474  1.5886 -1.0614 -1.0894
  175SOPE     P19845   5.848   3.010  10.588  0.0109  0.2043 -0.3350
  175SOPE   O1319846   5.809   3.030  10.726  0.2776 -0.1510 -0.3545
  175SOPE   O1419847   5.993   2.987  10.567 -0.8314  0.5132  0.5458
  175SOPE   O1219848   5.805   3.135  10.496  0.0997 -0.0410 -0.1029
  175SOPE   O1119849   5.765   2.891  10.536 -0.1662 -0.2180  0.3305
  175SOPE    C119850   5.821   2.797  10.451  0.1590  0.5207  0.2763
  175SOPE    HA19851   5.780   2.696  10.473 -1.1291  0.9240 -0.1573
  175SOPE    HB19852   5.931   2.791  10.438 -0.0616  0.0791 -1.6775
  175SOPE    C219853   5.765   2.819  10.302 -0.6440  0.4208  0.4443
  175SOPE    HS19854   5.815   2.750  10.231  1.8616  1.1351  1.3929
  175SOPE   O2119855   5.783   2.958  10.254 -0.1640  0.4034  0.3317
  175SOPE   C2119856   5.902   2.978  10.205  0.2902  0.1189  0.1400
  175SOPE   O2219857   6.004   2.909  10.207  0.1058 -0.4546 -0.1541
  175SOPE   C2219858   5.897   3.104  10.131  0.1205 -0.0534  0.9934
  175SOPE   H2R19859   5.999   3.120  10.088  0.5789 -0.1483  2.0191
  175SOPE   H2S19860   5.877   3.189  10.200  2.8334  0.7079  0.9827
  175SOPE    C319861   5.612   2.771  10.303  0.0773  0.1759  0.6234
  175SOPE    HX19862   5.547   2.856  10.333 -2.5905 -0.7258 -2.0459
  175SOPE    HY19863   5.594   2.689  10.376 -0.1445  0.8987  1.3986
  175SOPE   O3119864   5.568   2.737  10.169 -0.4813  0.7300 -0.4073
  175SOPE   C3119865   5.526   2.834  10.091  0.7045 -0.2916  0.1756
  175SOPE   O3219866   5.516   2.955  10.118 -0.3072  0.4226 -0.1753
  175SOPE   C3219867   5.474   2.754   9.968  0.6628 -0.0856  0.6891
  175SOPE   H2X19868   5.387   2.687   9.987  1.7470 -1.4056  1.1101
  175SOPE   H2Y19869   5.557   2.690   9.931  1.2880  1.7652 -1.3091
  175SOPE   C2319870   5.799   3.100  10.008 -0.5772  0.0561 -0.0253
  175SOPE   H3R19871   5.699   3.123  10.049  0.2845  0.4040  2.0546
  175SOPE   H3S19872   5.791   2.997   9.968  1.6127 -0.3435  0.4383
  175SOPE   C2419873   5.837   3.210   9.903  0.1203 -0.0373 -0.3579
  175SOPE   H4R19874   5.823   3.305   9.958  0.1218  0.0555 -0.5190
  175SOPE   H4S19875   5.945   3.209   9.876  0.1580 -3.4951 -0.5357
  175SOPE   C2519876   5.753   3.223   9.781  0.4523  0.5866 -0.1846
  175SOPE   H5R19877   5.645   3.232   9.804 -0.1258  0.2223 -2.4698
  175SOPE   H5S19878   5.773   3.319   9.729  2.6977  0.9410  1.2187
  175SOPE   C2619879   5.778   3.117   9.676  0.3962  0.1847  0.1103
  175SOPE   H6R19880   5.886   3.112   9.652  0.3411 -0.0438 -0.1033
  175SOPE   H6S19881   5.755   3.013   9.711  0.7616 -0.2329 -0.8649
  175SOPE   C2719882   5.694   3.132   9.544 -0.3133  0.2564  0.6646
  175SOPE   H7R19883   5.587   3.149   9.567 -0.4317  0.0215  0.2975
  175SOPE   H7S19884   5.732   3.224   9.496 -1.5462 -0.1305 -1.1314
  175SOPE   C2819885   5.705   3.013   9.444  0.1614 -0.0338  0.1971
  175SOPE   H8R19886   5.806   3.023   9.399  0.0926  2.7697  0.5321
  175SOPE   H8S19887   5.716   2.920   9.505  0.0552  0.2704  0.6845
  175SOPE   C2919888   5.583   2.991   9.355  0.2997 -0.6099 -0.1151
  175SOPE   H9119889   5.485   2.986   9.405  0.8697 -0.5021  1.0405
  175SOPE  C21019890   5.601   2.973   9.221  0.5085 -0.3109 -0.6523
  175SOPE  H10119891   5.512   2.958   9.158 -0.3530  3.4370 -0.5242
  175SOPE  C21119892   5.729   2.980   9.137  0.5663 -0.0909 -0.4939
  175SOPE  H11R19893   5.730   2.894   9.067 -1.6735  1.1359 -2.1350
  175SOPE  H11S19894   5.822   2.966   9.197  2.4071  2.7489 -2.4206
  175SOPE  C21219895   5.768   3.102   9.044 -0.4700  0.3009  0.0145
  175SOPE  H12R19896   5.876   3.095   9.019  0.3292  1.5351  2.7421
  175SOPE  H12S19897   5.754   3.197   9.101 -0.0258 -0.2307  1.0471
  175SOPE  C21319898   5.693   3.106   8.910  0.1853  0.8537 -0.3886
  175SOPE  H13R19899   5.584   3.111   8.934 -0.0945 -1.1237 -1.0929
  175SOPE  H13S19900   5.707   3.005   8.866  0.3936  1.1520 -1.0265
  175SOPE  C21419901   5.730   3.219   8.831 -0.4125 -0.1343  0.4671
  175SOPE  H14R19902   5.833   3.206   8.792  0.0766  1.5833  1.0836
  175SOPE  H14S19903   5.726   3.315   8.888 -1.5965 -0.6267  1.2594
  175SOPE  C21519904   5.635   3.216   8.706  0.7954 -0.1704 -0.4312
  175SOPE  H15R19905   5.529   3.207   8.740  0.9177 -1.5166 -0.3629
  175SOPE  H15S19906   5.658   3.125   8.647  1.1079  0.8208 -1.8739
  175SOPE  C21619907   5.651   3.326   8.602 -0.3768 -0.2000 -0.4118
  175SOPE  H16R19908   5.590   3.299   8.513  1.7177  1.1657 -2.3642
  175SOPE  H16S19909   5.759   3.315   8.582 -0.5227 -3.0675 -0.0635
  175SOPE  C21719910   5.625   3.461   8.659  0.0016  0.5421 -0.6918
  175SOPE  H17R19911   5.700   3.479   8.739 -1.1242  0.2027  0.4783
  175SOPE  H17S19912   5.524   3.474   8.705  0.0566 -1.1114 -0.0289
  175SOPE  C21819913   5.653   3.570   8.559  0.2179  0.8555  0.4082
  175SOPE  H18R19914   5.764   3.574   8.545  0.2399  0.1573  0.3370
  175SOPE  H18S19915   5.615   3.672   8.583  2.1220  1.8438 -0.4913
  175SOPE  H18T19916   5.599   3.553   8.463 -0.4062  1.4336  0.6511
  175SOPE   C3319917   5.424   2.838   9.851 -0.7240 -0.4107 -0.3368
  175SOPE   H3X19918   5.487   2.928   9.831 -0.4369 -0.8608 -1.5773
  175SOPE   H3Y19919   5.322   2.874   9.876 -0.0220  0.6826  1.0786
  175SOPE   C3419920   5.424   2.761   9.723 -0.0426 -0.0809  0.4803
  175SOPE   H4X19921   5.366   2.668   9.744 -0.0205 -0.2318 -0.1167
  175SOPE   H4Y19922   5.528   2.735   9.696 -0.0198  1.6348 -1.2535
  175SOPE   C3519923   5.337   2.827   9.617 -0.6127 -0.0768  0.7540
  175SOPE   H5X19924   5.398   2.914   9.585  0.3131 -1.4285 -1.4227
  175SOPE   H5Y19925   5.235   2.855   9.651  0.4891  1.3054  3.1727
  175SOPE   C3619926   5.325   2.734   9.489  0.1362 -0.0429  0.0670
  175SOPE   H6X19927   5.279   2.633   9.489  0.5180 -0.3473 -3.3242
  175SOPE   H6Y19928   5.426   2.695   9.462 -0.7060 -2.1032 -0.3099
  175SOPE   C3719929   5.250   2.815   9.385  0.4873 -0.1476 -0.0923
  175SOPE   H7X19930   5.311   2.907   9.372  1.0500 -0.7120 -1.6993
  175SOPE   H7Y19931   5.159   2.857   9.433  1.5177 -0.6279  2.4137
  175SOPE   C3819932   5.219   2.740   9.252 -0.0274  0.2320  0.2183
  175SOPE   H8X19933   5.148   2.658   9.278 -1.0229  1.7824  2.7691
  175SOPE   H8Y19934   5.312   2.693   9.213  0.6334  0.3498  1.5769
  175SOPE   C3919935   5.168   2.824   9.132 -0.3056 -0.1135 -0.3367
  175SOPE   H9X19936   5.248   2.898   9.110 -0.2937  0.0794  0.3477
  175SOPE   H9Y19937   5.080   2.885   9.160 -0.6846 -0.5500 -0.5654
  175SOPE  C31019938   5.141   2.734   9.014 -0.5198  0.2122 -0.1801
  175SOPE  H10X19939   5.052   2.674   9.042 -0.9539  0.8512 -0.1679
  175SOPE  H10Y19940   5.231   2.669   9.014 -0.5330  0.1950  0.5407
  175SOPE  C31119941   5.115   2.797   8.880  0.1305  0.2761  0.4702
  175SOPE  H11X19942   5.041   2.878   8.897 -0.2419  0.3570 -1.3068
  175SOPE  H11Y19943   5.062   2.721   8.820 -1.9871  1.7020  0.4413
  175SOPE  C31219944   5.225   2.864   8.793  0.2570 -0.4350 -0.1818
  175SOPE  H12X19945   5.262   2.947   8.856 -1.2013  0.8238 -0.8912
  175SOPE  H12Y19946   5.181   2.902   8.698  0.1243 -0.9903 -0.3487
  175SOPE  C31319947   5.320   2.761   8.743 -0.3956  0.2542  0.0469
  175SOPE  H13X19948   5.270   2.682   8.683 -0.7706  0.5528 -0.0351
  175SOPE  H13Y19949   5.364   2.706   8.829 -2.5667 -1.4859  0.1424
  175SOPE  C31419950   5.444   2.816   8.669  0.3845  0.5709 -0.0231
  175SOPE  H14X19951   5.490   2.894   8.733 -0.7171 -0.4159  2.0545
  175SOPE  H14Y19952   5.423   2.845   8.564 -0.8744 -0.7592 -0.1637
  175SOPE  C31519953   5.554   2.708   8.645 -0.1379 -0.0192 -0.4276
  175SOPE  H15X19954   5.598   2.661   8.736 -0.3239  2.4510  1.0125
  175SOPE  H15Y19955   5.631   2.767   8.591 -0.0063  2.7573  2.4716
  175SOPE  C31619956   5.510   2.593   8.551  0.1310  0.3569  0.2746
  175SOPE  H16X19957   5.454   2.651   8.474  1.1821  1.2363  0.1448
  175SOPE  H16Y19958   5.454   2.512   8.601 -1.8201  1.6475  0.2974
  175SOPE  C31719959   5.621   2.521   8.469 -0.5394  0.3930  0.1148
  175SOPE  H17X19960   5.686   2.478   8.548  0.2457  0.3479 -0.5511
  175SOPE  H17Y19961   5.666   2.591   8.396 -0.3573  1.7709  1.5078
  175SOPE  C31819962   5.553   2.408   8.389 -0.2258 -0.0423 -0.5609
  175SOPE  H18X19963   5.522   2.325   8.455 -0.8569  0.3405 -0.3679
  175SOPE  H18Y19964   5.617   2.373   8.305 -2.6549 -0.4966 -2.3315
  175SOPE  H18Z19965   5.461   2.443   8.337 -0.8408 -1.4501 -0.4641
  176SOPE     N19966   6.304   2.637  11.249  0.0170 -0.5771  0.5025
  176SOPE   HN119967   6.328   2.665  11.346 -3.3422  5.7391  0.0704
  176SOPE   HN219968   6.394   2.639  11.198  1.0079  0.0356  2.1842
  176SOPE   HN319969   6.237   2.712  11.220  1.2364  0.3866  0.0733
  176SOPE   C1219970   6.233   2.502  11.229 -0.5387 -0.1826  0.0583
  176SOPE  H12A19971   6.138   2.506  11.287 -0.3786 -0.6461  0.3587
  176SOPE  H12B19972   6.302   2.427  11.274 -0.3507  1.6910  3.1548
  176SOPE   C1119973   6.222   2.471  11.078  0.5517  0.1450 -0.5753
  176SOPE  H11A19974   6.159   2.548  11.026 -0.6051  0.8134  1.6789
  176SOPE  H11B19975   6.163   2.376  11.077  1.9285 -0.7323 -1.5362
  176SOPE     P19976   6.392   2.506  10.884  0.2255  0.3481 -0.0488
  176SOPE   O1319977   6.536   2.469  10.854 -0.3892 -0.7231  0.0729
  176SOPE   O1419978   6.359   2.650  10.894  0.2575  0.4882  0.6973
  176SOPE   O1219979   6.344   2.429  11.016  0.4064 -0.4156 -0.2238
  176SOPE   O1119980   6.301   2.434  10.782  0.4543  0.0355  0.2214
  176SOPE    C119981   6.174   2.475  10.735 -0.2552  1.0173 -0.3462
  176SOPE    HA19982   6.141   2.567  10.788  1.5907  0.3320  2.1368
  176SOPE    HB19983   6.099   2.394  10.750 -1.5561  2.0176 -1.1978
  176SOPE    C219984   6.167   2.512  10.580  0.3954  0.3252 -0.0949
  176SOPE    HS19985   6.085   2.587  10.573  0.8694  0.7365 -2.1316
  176SOPE   O2119986   6.127   2.403  10.504  0.2606 -0.4366 -0.1339
  176SOPE   C2119987   5.989   2.365  10.521 -0.9658  0.0882  0.4001
  176SOPE   O2219988   5.904   2.427  10.579 -0.3066  0.0592  0.3084
  176SOPE   C2219989   5.970   2.239  10.436  0.6772  0.0475  0.0321
  176SOPE   H2R19990   5.924   2.151  10.487  1.5001 -0.5777 -0.2850
  176SOPE   H2S19991   6.070   2.207  10.400 -0.2505 -2.4835 -0.5645
  176SOPE    C319992   6.303   2.569  10.528  0.4137 -0.5015  0.2283
  176SOPE    HX19993   6.375   2.485  10.529  1.7115  0.4936 -1.9300
  176SOPE    HY19994   6.340   2.647  10.599 -1.5136  0.7143 -0.0113
  176SOPE   O3119995   6.284   2.631  10.397 -0.6930  0.5615  0.2795
  176SOPE   C3119996   6.340   2.570  10.291  0.0500  0.4849 -0.3724
  176SOPE   O3219997   6.416   2.477  10.294  0.1327  0.4294  0.0846
  176SOPE   C3219998   6.313   2.654  10.168  0.2991 -0.1399 -0.6350
  176SOPE   H2X19999   6.345   2.760  10.182  0.5109 -0.1429 -1.0665
  176SOPE   H2Y20000   6.204   2.649  10.149  0.4844  2.8864 -3.4756
  176SOPE   C2320001   5.883   2.271  10.313  0.3734 -0.4362  0.3773
  176SOPE   H3R20002   5.788   2.315  10.347 -0.7182 -1.0386 -1.7037
  176SOPE   H3S20003   5.864   2.177  10.256 -0.2199 -0.1060  0.0329
  176SOPE   C2420004   5.959   2.378  10.225 -0.1788  0.4175 -0.0659
  176SOPE   H4R20005   5.968   2.465  10.294 -0.9164 -1.8937  3.1965
  176SOPE   H4S20006   6.056   2.330  10.202  1.0926  1.8235  1.9758
  176SOPE   C2520007   5.870   2.405  10.101 -0.3781  0.1267 -0.4000
  176SOPE   H5R20008   5.872   2.320  10.029 -2.5735  0.8864 -1.4348
  176SOPE   H5S20009   5.768   2.430  10.136  1.3673  0.5161  5.3403
  176SOPE   C2620010   5.924   2.527  10.025 -0.0389  0.6142 -0.0197
  176SOPE   H6R20011   5.942   2.603  10.103 -4.0306  0.5443  1.1719
  176SOPE   H6S20012   6.019   2.494   9.978 -0.2631  0.4087 -0.3334
  176SOPE   C2720013   5.831   2.571   9.909  0.3057 -0.5544 -0.2481
  176SOPE   H7R20014   5.797   2.479   9.856  2.4744 -1.1680 -0.6485
  176SOPE   H7S20015   5.738   2.610   9.956  2.0988  3.3344  0.4270
  176SOPE   C2820016   5.890   2.666   9.808  0.0742 -0.0609 -0.0395
  176SOPE   H8R20017   5.917   2.762   9.855  0.3984 -0.3631  0.3959
  176SOPE   H8S20018   5.988   2.627   9.773 -1.2631 -1.0738 -3.0947
  176SOPE   C2920019   5.804   2.693   9.684 -0.8177 -0.2971 -0.4187
  176SOPE   H9120020   5.751   2.789   9.685 -0.8754 -0.2425  3.0710
  176SOPE  C21020021   5.763   2.612   9.590 -0.2473  0.3917  0.0981
  176SOPE  H10120022   5.687   2.645   9.517  0.2919  2.2540  0.3360
  176SOPE  C21120023   5.795   2.459   9.581  0.7899 -0.2034 -0.2205
  176SOPE  H11R20024   5.703   2.399   9.568  1.4310 -1.1333 -0.5768
  176SOPE  H11S20025   5.850   2.409   9.664  1.7027 -0.4006 -0.9298
  176SOPE  C21220026   5.887   2.413   9.466  0.4051 -0.9080  0.3948
  176SOPE  H12R20027   5.883   2.302   9.458  1.1546 -1.0241  1.4126
  176SOPE  H12S20028   5.991   2.441   9.493  0.4566  1.9105 -2.2415
  176SOPE  C21320029   5.849   2.464   9.319  0.0623 -0.0599 -0.2245
  176SOPE  H13R20030   5.887   2.569   9.316 -1.4888  0.5041 -1.7086
  176SOPE  H13S20031   5.738   2.472   9.321  0.1298  1.0750  1.3981
  176SOPE  C21420032   5.903   2.373   9.210  0.3431 -0.3506  1.3201
  176SOPE  H14R20033   5.840   2.284   9.191 -0.3039  0.1922  0.8866
  176SOPE  H14S20034   6.006   2.337   9.233  1.2734  2.1530  1.4174
  176SOPE  C21520035   5.926   2.454   9.079 -0.0096 -0.0327  0.1151
  176SOPE  H15R20036   5.984   2.381   9.018  0.8847 -0.8128  1.8009
  176SOPE  H15S20037   5.992   2.539   9.108 -0.0815 -0.5216  1.8468
  176SOPE  C21620038   5.811   2.512   9.001  1.0287 -0.0271 -0.1603
  176SOPE  H16R20039   5.848   2.564   8.910  2.0083 -0.7439 -0.1926
  176SOPE  H16S20040   5.749   2.587   9.055  2.0647  0.8087 -0.0930
  176SOPE  C21720041   5.716   2.407   8.949  0.1823  0.6584  0.2185
  176SOPE  H17R20042   5.660   2.444   8.860  2.9479 -0.7445 -2.2825
  176SOPE  H17S20043   5.640   2.379   9.026 -0.0254 -0.6772 -0.4251
  176SOPE  C21820044   5.770   2.266   8.893  0.2793  0.1918 -0.3086
  176SOPE  H18R20045   5.826   2.268   8.798 -0.0333  1.0997 -0.4845
  176SOPE  H18S20046   5.679   2.202   8.890  0.7554 -0.6233  1.3093
  176SOPE  H18T20047   5.838   2.228   8.972 -0.7833  0.8162  0.9505
  176SOPE   C3320048   6.386   2.587  10.047  0.3125  0.0520  0.3124
  176SOPE   H3X20049   6.345   2.483  10.041 -0.3226  0.3667 -1.3183
  176SOPE   H3Y20050   6.497   2.588  10.056  0.1741 -0.4388  3.1759
  176SOPE   C3420051   6.345   2.643   9.906 -0.1012 -0.7295 -0.0534
  176SOPE   H4X20052   6.393   2.742   9.894  0.1996 -0.8690  0.0002
  176SOPE   H4Y20053   6.236   2.667   9.916  0.5750  2.3170  1.1358
  176SOPE   C3520054   6.389   2.542   9.800 -0.5458  0.8513  0.0558
  176SOPE   H5X20055   6.359   2.437   9.817  0.2037  0.8368  1.4029
  176SOPE   H5Y20056   6.500   2.548   9.795 -0.5354  0.4768 -0.1981
  176SOPE   C3620057   6.344   2.572   9.655 -0.8385 -0.5367 -0.4357
  176SOPE   H6X20058   6.352   2.681   9.633 -0.4806 -0.1864  1.3276
  176SOPE   H6Y20059   6.235   2.553   9.652 -1.0833  0.8240 -1.9505
  176SOPE   C3720060   6.400   2.473   9.553  0.0431 -0.4767  0.2273
  176SOPE   H7X20061   6.375   2.367   9.575  0.5197 -0.3774  1.2888
  176SOPE   H7Y20062   6.511   2.474   9.564 -0.0380  0.9990  1.0473
  176SOPE   C3820063   6.355   2.510   9.410  0.0163 -0.7395 -0.0219
  176SOPE   H8X20064   6.426   2.594   9.392  0.0246 -0.9235 -0.8843
  176SOPE   H8Y20065   6.247   2.533   9.422 -0.4259 -2.1389 -1.0370
  176SOPE   C3920066   6.374   2.402   9.302 -0.7958  0.5732 -0.0053
  176SOPE   H9X20067   6.309   2.315   9.326  0.5922 -1.0289 -1.7622
  176SOPE   H9Y20068   6.479   2.369   9.288  0.0713  2.8883  0.6233
  176SOPE  C31020069   6.325   2.452   9.166  0.2138 -0.4706  0.1339
  176SOPE  H10X20070   6.370   2.547   9.129 -0.8322  0.1074  0.2994
  176SOPE  H10Y20071   6.218   2.481   9.176  0.5410  1.8416 -2.2136
  176SOPE  C31120072   6.340   2.358   9.044 -0.4234 -0.1477 -0.0646
  176SOPE  H11X20073   6.319   2.251   9.066  2.4626 -0.6254  0.7697
  176SOPE  H11Y20074   6.449   2.353   9.026 -0.1350 -2.9147  1.8532
  176SOPE  C31220075   6.273   2.411   8.922  0.2280  0.7820  0.4934
  176SOPE  H12X20076   6.319   2.507   8.891 -1.1530  1.6906  1.1531
  176SOPE  H12Y20077   6.164   2.428   8.937 -0.0117  0.0991 -0.3434
  176SOPE  C31320078   6.279   2.303   8.809 -0.6819 -0.4312 -0.0015
  176SOPE  H13X20079   6.196   2.321   8.738  0.5688 -3.1810 -2.3625
  176SOPE  H13Y20080   6.264   2.197   8.840  0.2856 -0.6316 -0.1786
  176SOPE  C31420081   6.402   2.311   8.713  0.2360 -0.4545 -0.2282
  176SOPE  H14X20082   6.505   2.320   8.755  0.5843  0.4098 -1.2034
  176SOPE  H14Y20083   6.395   2.401   8.648 -2.6766 -0.9970 -0.7946
  176SOPE  C31520084   6.403   2.198   8.610 -0.3630  0.3039 -0.0325
  176SOPE  H15X20085   6.304   2.201   8.559 -0.8393 -0.1719  0.8330
  176SOPE  H15Y20086   6.401   2.100   8.662 -1.4673  0.5055  0.3370
  176SOPE  C31620087   6.508   2.201   8.495  0.2457  0.1648  0.5664
  176SOPE  H16X20088   6.597   2.215   8.560  0.7408 -3.1899  0.7383
  176SOPE  H16Y20089   6.485   2.273   8.413 -1.8350 -1.3703 -0.2748
  176SOPE  C31720090   6.525   2.060   8.426  0.0131 -0.3503  0.5457
  176SOPE  H17X20091   6.492   1.991   8.505 -1.0461 -1.3703 -0.7389
  176SOPE  H17Y20092   6.632   2.051   8.395  0.4659  1.7223  1.3362
  176SOPE  C31820093   6.443   2.048   8.302 -0.2857  0.0214 -0.1903
  176SOPE  H18X20094   6.338   2.081   8.315 -0.4080 -0.2138 -0.5460
  176SOPE  H18Y20095   6.445   1.939   8.280  3.1133 -0.3315  1.2295
  176SOPE  H18Z20096   6.477   2.102   8.211 -3.2134  2.4945  0.0058
  177SOPE     N20097   5.339   0.660  11.149  0.0243  0.0134  0.6723
  177SOPE   HN120098   5.291   0.569  11.137 -0.7309  0.4330  0.4970
  177SOPE   HN220099   5.374   0.699  11.059 -2.1797  1.2185  0.2780
  177SOPE   HN320100   5.423   0.647  11.209 -0.8630 -0.3776  1.8644
  177SOPE   C1220101   5.254   0.768  11.208  0.2628 -0.1998 -0.6610
  177SOPE  H12A20102   5.287   0.871  11.182 -2.1355  0.2405 -2.2724
  177SOPE  H12B20103   5.270   0.764  11.318  1.9908 -1.2428 -0.9037
  177SOPE   C1120104   5.109   0.738  11.175 -0.8401  0.4340 -0.6045
  177SOPE  H11A20105   5.051   0.795  11.250  3.3361  1.9472  1.8162
  177SOPE  H11B20106   5.082   0.632  11.194 -0.7656  0.1873 -1.7961
  177SOPE     P20107   4.944   0.718  10.976 -0.1801  0.0838 -0.4075
  177SOPE   O1320108   4.827   0.781  11.040 -0.0628 -0.0322 -0.6382
  177SOPE   O1420109   4.963   0.569  10.980  0.6503 -0.0718  0.0343
  177SOPE   O1220110   5.069   0.784  11.046  0.2493  0.0903 -0.2353
  177SOPE   O1120111   4.939   0.772  10.829 -0.4690  0.2546  0.5025
  177SOPE    C120112   4.996   0.898  10.795 -0.1262 -0.4929  0.2157
  177SOPE    HA20113   5.106   0.891  10.780 -0.5063  0.1581 -3.8825
  177SOPE    HB20114   4.983   0.980  10.869  1.0439 -0.9914  1.0096
  177SOPE    C220115   4.935   0.943  10.654 -0.7040 -0.0923 -0.2136
  177SOPE    HS20116   4.826   0.967  10.662 -1.0318 -1.0791 -1.5139
  177SOPE   O2120117   4.964   0.836  10.561 -0.0317 -0.3271  0.2997
  177SOPE   C2120118   4.899   0.822  10.447 -0.2191  0.6871 -0.9323
  177SOPE   O2220119   4.799   0.892  10.419 -0.0609  0.0067  0.5248
  177SOPE   C2220120   4.952   0.719  10.348  0.0337  0.8494  0.0012
  177SOPE   H2R20121   4.862   0.663  10.316 -0.6832  1.4285  0.9699
  177SOPE   H2S20122   5.031   0.655  10.395 -0.7739  1.3331  2.1226
  177SOPE    C320123   5.006   1.077  10.604 -0.2089  0.6519 -0.1034
  177SOPE    HX20124   5.112   1.046  10.592 -0.6368 -0.5798 -0.8962
  177SOPE    HY20125   5.003   1.139  10.696  2.0071  1.5607 -0.5923
  177SOPE   O3120126   4.956   1.128  10.484  0.3043  0.3951  0.2727
  177SOPE   C3120127   4.847   1.207  10.495  0.3110  0.0161  0.1005
  177SOPE   O3220128   4.790   1.244  10.597 -0.6148  0.3660  0.6650
  177SOPE   C3220129   4.801   1.241  10.353 -0.1006  0.9804  1.1811
  177SOPE   H2X20130   4.762   1.148  10.306  0.3533  1.4254 -0.1042
  177SOPE   H2Y20131   4.888   1.273  10.293 -0.1880 -0.9798 -0.0860
  177SOPE   C2320132   5.016   0.774  10.220 -0.2879 -0.2769 -0.2784
  177SOPE   H3R20133   4.931   0.828  10.171 -1.2188 -0.6391  0.8897
  177SOPE   H3S20134   5.053   0.686  10.163 -0.7641 -0.3656 -0.4553
  177SOPE   C2420135   5.127   0.873  10.249  0.0721 -0.6886  0.4084
  177SOPE   H4R20136   5.082   0.957  10.306  1.5214  0.8429 -0.6051
  177SOPE   H4S20137   5.209   0.834  10.313  0.2617  0.4857  0.9121
  177SOPE   C2520138   5.178   0.937  10.119  0.4014 -0.5078  0.4571
  177SOPE   H5R20139   5.090   0.997  10.087  0.9382  0.5892  0.9846
  177SOPE   H5S20140   5.245   1.023  10.139  0.4299 -0.1626 -1.0060
  177SOPE   C2620141   5.225   0.839  10.009  0.6000  1.0674 -0.0369
  177SOPE   H6R20142   5.325   0.795  10.031  0.6300  1.1183 -0.0678
  177SOPE   H6S20143   5.160   0.750  10.009 -0.1613  1.5864  1.6232
  177SOPE   C2720144   5.228   0.911   9.876  0.0034 -0.0285  0.2176
  177SOPE   H7R20145   5.123   0.939   9.852 -0.1920 -0.4429  0.5645
  177SOPE   H7S20146   5.298   0.997   9.882  1.2324 -1.0565  1.2905
  177SOPE   C2820147   5.274   0.829   9.757 -0.1535 -0.7465 -0.0175
  177SOPE   H8R20148   5.305   0.905   9.683 -2.3922  1.9773  1.6278
  177SOPE   H8S20149   5.366   0.770   9.775  1.0436  1.5480  1.8777
  177SOPE   C2920150   5.161   0.740   9.717 -0.6143  1.0257 -0.4751
  177SOPE   H9120151   5.123   0.689   9.807  1.8808 -1.2138 -0.5689
  177SOPE  C21020152   5.106   0.718   9.601  0.2019  0.0302  0.5164
  177SOPE  H10120153   5.029   0.640   9.600  0.0221  0.1716  1.5834
  177SOPE  C21120154   5.141   0.788   9.472 -0.0702 -0.0356 -0.3927
  177SOPE  H11R20155   5.239   0.840   9.482 -0.3169  0.1722  1.2421
  177SOPE  H11S20156   5.061   0.862   9.454 -0.5349 -0.1769  1.0273
  177SOPE  C21220157   5.141   0.695   9.352  0.3737  0.4953  0.3917
  177SOPE  H12R20158   5.071   0.609   9.362  0.6091  0.5843  5.4038
  177SOPE  H12S20159   5.242   0.650   9.359  0.0114 -0.1372  2.0154
  177SOPE  C21320160   5.120   0.768   9.217 -0.0584 -0.3714 -0.5170
  177SOPE  H13R20161   5.195   0.849   9.211 -1.1685  0.6290 -1.4120
  177SOPE  H13S20162   5.020   0.817   9.209 -0.5701 -0.7518  2.2381
  177SOPE  C21420163   5.144   0.660   9.111  0.0045 -0.5265  0.2301
  177SOPE  H14R20164   5.058   0.590   9.105  0.0508 -0.6568  1.0059
  177SOPE  H14S20165   5.236   0.600   9.130 -1.1953 -2.7330 -0.5068
  177SOPE  C21520166   5.167   0.727   8.979 -0.2092 -0.8998 -0.7070
  177SOPE  H15R20167   5.260   0.786   8.991 -1.0747  0.2725  0.5290
  177SOPE  H15S20168   5.083   0.800   8.975  1.5393  1.1342 -1.7859
  177SOPE  C21620169   5.196   0.630   8.863 -0.4731  0.0120 -0.5375
  177SOPE  H16R20170   5.123   0.547   8.872  0.3849 -0.7066 -0.1419
  177SOPE  H16S20171   5.294   0.582   8.884 -0.2057  0.8830  0.2878
  177SOPE  C21720172   5.191   0.699   8.727 -0.0663  0.2488  0.4390
  177SOPE  H17R20173   5.263   0.783   8.740  1.1552 -0.9078  1.4834
  177SOPE  H17S20174   5.086   0.727   8.706  0.4047  1.2759 -0.6498
  177SOPE  C21820175   5.244   0.616   8.613 -0.3096  0.3944  0.5347
  177SOPE  H18R20176   5.326   0.550   8.647 -1.8946 -1.6506  0.6255
  177SOPE  H18S20177   5.279   0.686   8.534  0.2247 -0.4312  0.0284
  177SOPE  H18T20178   5.165   0.548   8.573  0.1314 -0.0072  0.3429
  177SOPE   C3320179   4.687   1.346  10.351  0.3788  0.4124 -0.3087
  177SOPE   H3X20180   4.720   1.434  10.411  1.6589 -0.6114  0.5464
  177SOPE   H3Y20181   4.592   1.304  10.390  0.2158 -1.0978 -2.1902
  177SOPE   C3420182   4.659   1.400  10.208  0.2848 -0.8495  0.3487
  177SOPE   H4X20183   4.755   1.435  10.162  0.8033 -3.1555 -0.4419
  177SOPE   H4Y20184   4.582   1.480  10.216  0.7748 -0.3247 -0.0540
  177SOPE   C3520185   4.597   1.299  10.109  0.1876  0.1975  0.1139
  177SOPE   H5X20186   4.507   1.263  10.162 -0.5681  1.1027 -0.5144
  177SOPE   H5Y20187   4.671   1.217  10.101 -1.2661 -0.9760 -3.1596
  177SOPE   C3620188   4.571   1.355   9.970 -0.7669  0.3666  0.0713
  177SOPE   H6X20189   4.665   1.390   9.923  0.4792 -1.5007  1.0376
  177SOPE   H6Y20190   4.510   1.447   9.982 -0.5967  0.5235 -0.2477
  177SOPE   C3720191   4.499   1.253   9.882  0.0856 -1.0310 -0.0192
  177SOPE   H7X20192   4.412   1.217   9.942  0.0853  0.9158  1.2182
  177SOPE   H7Y20193   4.567   1.166   9.867 -1.0307 -1.7106 -1.4943
  177SOPE   C3820194   4.444   1.304   9.748 -0.6710  0.1349  0.6652
  177SOPE   H8X20195   4.522   1.335   9.675 -3.2847 -0.5451 -2.6184
  177SOPE   H8Y20196   4.386   1.395   9.776  1.2929  0.9054  2.4840
  177SOPE   C3920197   4.346   1.203   9.686 -0.6323 -0.0842  0.2507
  177SOPE   H9X20198   4.254   1.206   9.748 -0.5680  2.2475  0.2917
  177SOPE   H9Y20199   4.395   1.103   9.691 -0.8136 -0.2674 -1.2203
  177SOPE  C31020200   4.323   1.240   9.537  0.3766 -0.0603 -0.5146
  177SOPE  H10X20201   4.420   1.286   9.507 -0.0076  0.6234 -0.7220
  177SOPE  H10Y20202   4.242   1.316   9.530  0.0035 -0.2472  1.1966
  177SOPE  C31120203   4.304   1.119   9.447  0.3585 -0.1758 -1.2775
  177SOPE  H11X20204   4.209   1.073   9.483 -0.0060  1.3810 -0.1200
  177SOPE  H11Y20205   4.380   1.040   9.464 -1.8475 -1.6711  3.3249
  177SOPE  C31220206   4.274   1.154   9.298  0.4308 -0.0505  0.8707
  177SOPE  H12X20207   4.368   1.198   9.257 -0.3143 -0.3137 -1.2608
  177SOPE  H12Y20208   4.192   1.229   9.294  1.9508  1.6473 -2.1749
  177SOPE  C31320209   4.234   1.041   9.213  0.7389  0.1200 -0.3042
  177SOPE  H13X20210   4.136   1.003   9.252  0.6991 -3.8678 -3.5698
  177SOPE  H13Y20211   4.301   0.953   9.224 -1.4457 -2.0610 -3.0530
  177SOPE  C31420212   4.216   1.074   9.066 -0.0503 -0.7356 -1.0336
  177SOPE  H14X20213   4.305   1.134   9.038  0.5766 -1.3679 -0.4654
  177SOPE  H14Y20214   4.124   1.132   9.046 -0.2372 -1.6205 -3.1173
  177SOPE  C31520215   4.222   0.969   8.956  0.0148  0.1959  0.6789
  177SOPE  H15X20216   4.182   0.880   9.009 -0.6935  1.2377  1.9545
  177SOPE  H15Y20217   4.326   0.936   8.938 -0.4941 -0.7979 -0.7021
  177SOPE  C31620218   4.146   0.998   8.827  0.4310 -0.4212 -0.0320
  177SOPE  H16X20219   4.164   1.100   8.788  0.8950 -1.0035 -1.4093
  177SOPE  H16Y20220   4.043   0.983   8.865  0.1895 -3.3612 -1.5713
  177SOPE  C31720221   4.184   0.891   8.725 -0.7697  0.0721 -0.1633
  177SOPE  H17X20222   4.227   0.803   8.778 -2.9312 -1.6453 -1.1223
  177SOPE  H17Y20223   4.262   0.932   8.658  0.1645  2.6348  2.2985
  177SOPE  C31820224   4.072   0.842   8.633 -0.4637 -0.3528 -0.0313
  177SOPE  H18X20225   4.041   0.921   8.562 -0.1400 -0.3446 -0.1655
  177SOPE  H18Y20226   3.989   0.818   8.703  0.1240  0.6259  1.0400
  177SOPE  H18Z20227   4.101   0.746   8.584  1.0309  0.1125 -0.1048
  178SOPE     N20228   2.931   5.124  10.886 -0.6430  0.1076 -0.2057
  178SOPE   HN120229   2.947   5.137  10.988 -1.5349 -0.2050 -0.0182
  178SOPE   HN220230   2.922   5.220  10.847 -0.5930 -0.3838 -1.4682
  178SOPE   HN320231   2.845   5.072  10.861 -1.1762  1.1314 -0.5696
  178SOPE   C1220232   3.044   5.057  10.827  0.5541 -0.1160 -0.2258
  178SOPE  H12A20233   3.138   5.111  10.851 -0.3367  1.6278 -0.4907
  178SOPE  H12B20234   3.033   5.066  10.717  2.3279  1.2971 -0.3351
  178SOPE   C1120235   3.046   4.905  10.853  0.3067 -0.2775  0.1606
  178SOPE  H11A20236   3.077   4.887  10.958 -0.3236 -2.0021  0.0783
  178SOPE  H11B20237   3.139   4.867  10.806  1.2531 -0.5678  2.1694
  178SOPE     P20238   2.898   4.691  10.857  0.4698  0.4291 -0.3440
  178SOPE   O1320239   2.836   4.709  10.985 -0.2001  0.4289 -0.2129
  178SOPE   O1420240   3.026   4.617  10.867 -0.6480 -0.0525 -0.1876
  178SOPE   O1220241   2.923   4.840  10.803 -0.8170  0.0081  0.5520
  178SOPE   O1120242   2.805   4.611  10.757 -0.4071 -0.4073  0.0799
  178SOPE    C120243   2.713   4.672  10.668 -0.2443 -0.9200  0.4694
  178SOPE    HA20244   2.698   4.780  10.689 -1.5653 -0.8874 -0.5172
  178SOPE    HB20245   2.615   4.620  10.668 -0.2203 -1.1530 -2.7710
  178SOPE    C220246   2.754   4.665  10.518 -0.1321 -0.1490 -0.5160
  178SOPE    HS20247   2.786   4.562  10.493  2.6378 -0.0158  2.0058
  178SOPE   O2120248   2.867   4.753  10.498  0.3625  0.1572 -0.4535
  178SOPE   C2120249   2.989   4.705  10.495 -0.1581  0.2534 -0.4576
  178SOPE   O2220250   3.020   4.584  10.497  0.2524 -0.1056  0.3876
  178SOPE   C2220251   3.093   4.812  10.482  0.3125  0.0895 -0.5530
  178SOPE   H2R20252   3.129   4.826  10.587 -0.3251  1.6071 -0.5244
  178SOPE   H2S20253   3.047   4.911  10.463  0.3131 -0.0960 -1.5455
  178SOPE    C320254   2.639   4.713  10.432  0.1659 -0.0106 -0.3925
  178SOPE    HX20255   2.605   4.813  10.466  0.2872 -0.2798  0.5538
  178SOPE    HY20256   2.553   4.651  10.467  0.2266  0.7475  1.1975
  178SOPE   O3120257   2.674   4.694  10.295 -0.2111  0.4284 -0.1195
  178SOPE   C3120258   2.679   4.797  10.215  0.3020  0.2041  0.2045
  178SOPE   O3220259   2.665   4.912  10.254 -0.1981 -0.0215  0.3610
  178SOPE   C3220260   2.725   4.755  10.072  0.2023  0.4114 -0.7928
  178SOPE   H2X20261   2.647   4.681  10.047  0.5407 -1.3103  2.6467
  178SOPE   H2Y20262   2.825   4.706  10.081 -1.3339 -2.9438 -0.6398
  178SOPE   C2320263   3.216   4.772  10.403  0.0033  0.4707 -0.2904
  178SOPE   H3R20264   3.264   4.685  10.454  1.9927  2.4431  1.4490
  178SOPE   H3S20265   3.283   4.858  10.422  1.4001 -0.8591  1.1040
  178SOPE   C2420266   3.179   4.738  10.258 -0.7663  0.4779  0.1685
  178SOPE   H4R20267   3.275   4.720  10.205 -0.3148  1.3670  0.6677
  178SOPE   H4S20268   3.131   4.638  10.255  0.1520  0.0420 -0.8575
  178SOPE   C2520269   3.103   4.838  10.170  0.0617  0.3642  0.4801
  178SOPE   H5R20270   2.993   4.828  10.179 -0.1871  1.1097 -1.4101
  178SOPE   H5S20271   3.134   4.938  10.208 -1.9249  1.1720  0.0967
  178SOPE   C2620272   3.142   4.826  10.026 -0.7721 -0.2381  0.3001
  178SOPE   H6R20273   3.122   4.920   9.969  1.6338 -1.6767 -3.2953
  178SOPE   H6S20274   3.251   4.805  10.025 -0.8087 -0.9524  3.2838
  178SOPE   C2720275   3.070   4.715   9.947 -1.3997 -0.0380  0.2161
  178SOPE   H7R20276   3.087   4.627  10.013  0.9886 -0.1846 -0.5044
  178SOPE   H7S20277   2.961   4.723   9.929 -1.0476 -0.6702 -2.6825
  178SOPE   C2820278   3.132   4.669   9.820 -0.6813  0.1351  0.1429
  178SOPE   H8R20279   3.238   4.637   9.827  0.1818  2.2319 -1.9397
  178SOPE   H8S20280   3.086   4.572   9.789  2.1668 -1.5215  0.8048
  178SOPE   C2920281   3.126   4.782   9.720 -0.5605 -0.4792  0.5554
  178SOPE   H9120282   3.171   4.877   9.752  1.1128 -0.6421 -1.1090
  178SOPE  C21020283   3.092   4.756   9.592  0.7921  0.3073 -0.0061
  178SOPE  H10120284   3.070   4.840   9.525 -0.3988  1.5737  1.8690
  178SOPE  C21120285   3.039   4.634   9.523 -0.0466  0.2020 -0.0606
  178SOPE  H11R20286   3.026   4.547   9.592 -2.3208 -1.3485 -2.2611
  178SOPE  H11S20287   3.097   4.591   9.438 -1.4919 -0.8789 -0.5327
  178SOPE  C21220288   2.902   4.643   9.465 -0.3205 -0.3972 -0.3306
  178SOPE  H12R20289   2.842   4.698   9.540 -0.5300  0.1343 -0.8861
  178SOPE  H12S20290   2.859   4.541   9.452  0.9448 -1.1247  0.8976
  178SOPE  C21320291   2.898   4.715   9.336 -1.1599 -0.3539  0.4473
  178SOPE  H13R20292   2.999   4.758   9.320 -1.7659 -0.0221 -3.6798
  178SOPE  H13S20293   2.836   4.807   9.346  3.4012  3.1290  0.0381
  178SOPE  C21420294   2.852   4.629   9.220  0.7578  0.5935 -0.0389
  178SOPE  H14R20295   2.765   4.572   9.258  1.1612  0.5627  0.8628
  178SOPE  H14S20296   2.929   4.553   9.195  0.8431  0.8710 -0.6467
  178SOPE  C21520297   2.818   4.703   9.090  0.4412  0.0834 -0.9047
  178SOPE  H15R20298   2.869   4.802   9.097  1.4196 -0.3181 -2.0121
  178SOPE  H15S20299   2.707   4.710   9.087  0.2673 -2.1133 -1.8880
  178SOPE  C21620300   2.869   4.645   8.968 -0.3314 -0.4406  0.0762
  178SOPE  H16R20301   2.820   4.549   8.940 -0.8990 -0.2144  0.2946
  178SOPE  H16S20302   2.978   4.640   8.990 -0.3506  0.0052  0.2802
  178SOPE  C21720303   2.865   4.735   8.841 -0.1756  0.1678 -0.2940
  178SOPE  H17R20304   2.944   4.810   8.861 -0.9648  1.8099 -2.8740
  178SOPE  H17S20305   2.764   4.782   8.841 -0.9381 -1.3560  0.6950
  178SOPE  C21820306   2.893   4.676   8.700  1.0727  0.4578 -0.4260
  178SOPE  H18R20307   2.993   4.628   8.692  0.4425 -1.9543  3.6230
  178SOPE  H18S20308   2.898   4.759   8.627  0.7597 -0.4999 -1.5813
  178SOPE  H18T20309   2.813   4.606   8.668  1.7287 -1.9770  2.7886
  178SOPE   C3320310   2.725   4.879   9.976 -0.2496  0.3384 -0.0929
  178SOPE   H3X20311   2.783   4.855   9.884 -0.4616 -0.6353  0.0227
  178SOPE   H3Y20312   2.778   4.958  10.034 -0.7952  0.1086  0.7326
  178SOPE   C3420313   2.594   4.931   9.924  0.4420  0.2873 -0.3482
  178SOPE   H4X20314   2.525   4.976   9.999 -1.1943 -2.4613 -0.1052
  178SOPE   H4Y20315   2.539   4.842   9.889  1.3343  0.9062 -3.7430
  178SOPE   C3520316   2.615   5.037   9.816  0.1964 -0.2622  0.0978
  178SOPE   H5X20317   2.704   5.102   9.830  2.6536 -2.4475 -3.3253
  178SOPE   H5Y20318   2.525   5.102   9.820  1.6315  1.7546  2.1183
  178SOPE   C3620319   2.622   4.982   9.676 -0.6505 -0.7424 -0.0031
  178SOPE   H6X20320   2.536   4.916   9.649 -2.1171  1.0712  0.0640
  178SOPE   H6Y20321   2.708   4.912   9.665  1.0679  1.3376 -0.3441
  178SOPE   C3720322   2.622   5.094   9.570  0.1798 -0.4914 -0.0487
  178SOPE   H7X20323   2.699   5.170   9.596  1.2936 -1.6143  0.0374
  178SOPE   H7Y20324   2.519   5.135   9.567 -0.5095 -2.1420 -0.1450
  178SOPE   C3820325   2.656   5.034   9.433  0.3421  1.0783  0.2594
  178SOPE   H8X20326   2.574   4.968   9.398  1.7476 -1.2750  1.1850
  178SOPE   H8Y20327   2.743   4.968   9.452 -0.8543 -0.9086 -0.8150
  178SOPE   C3920328   2.674   5.137   9.329  0.1913  0.0770  0.2934
  178SOPE   H9X20329   2.743   5.214   9.371  0.0975  0.2757  0.0864
  178SOPE   H9Y20330   2.582   5.197   9.313  2.5921  4.3536  1.0092
  178SOPE  C31020331   2.730   5.077   9.201  0.1732  0.0372  0.1086
  178SOPE  H10X20332   2.658   4.996   9.177  0.5722 -0.7054  1.2980
  178SOPE  H10Y20333   2.829   5.028   9.209 -0.5649 -1.3025  1.9881
  178SOPE  C31120334   2.768   5.169   9.082 -0.3628 -0.5435  0.1995
  178SOPE  H11X20335   2.854   5.233   9.109 -0.0259 -0.3866 -1.1580
  178SOPE  H11Y20336   2.686   5.240   9.058  0.7963  0.6232 -0.3861
  178SOPE  C31220337   2.793   5.084   8.955 -0.0341  0.2800  0.1395
  178SOPE  H12X20338   2.696   5.031   8.940  0.0307  0.3771 -0.6768
  178SOPE  H12Y20339   2.879   5.015   8.970 -1.6181 -1.2663  2.9030
  178SOPE  C31320340   2.822   5.175   8.829 -0.0722  0.4351  0.7157
  178SOPE  H13X20341   2.908   5.244   8.842  0.3492  0.2359 -0.8794
  178SOPE  H13Y20342   2.736   5.245   8.819  0.6614  1.3637  0.7034
  178SOPE  C31420343   2.842   5.094   8.699 -0.4522  0.2942 -0.3762
  178SOPE  H14X20344   2.765   5.014   8.697  0.1247 -0.2728 -0.2563
  178SOPE  H14Y20345   2.937   5.038   8.713 -0.3156  0.7919  0.8155
  178SOPE  C31520346   2.840   5.172   8.571  0.6988 -0.6887 -0.0176
  178SOPE  H15X20347   2.926   5.243   8.573  0.4840 -0.3942  2.5035
  178SOPE  H15Y20348   2.742   5.224   8.578 -0.6166 -2.6685 -2.2402
  178SOPE  C31620349   2.825   5.089   8.443 -0.2628  0.2190  0.3002
  178SOPE  H16X20350   2.747   5.010   8.444 -0.3824  0.3304 -0.0331
  178SOPE  H16Y20351   2.922   5.036   8.445 -1.1476 -1.5996  4.3871
  178SOPE  C31720352   2.808   5.172   8.317  0.3693 -0.7824 -0.0703
  178SOPE  H17X20353   2.738   5.252   8.351 -1.0952 -2.1312  0.1996
  178SOPE  H17Y20354   2.741   5.120   8.246 -2.6629  0.7803  1.4576
  178SOPE  C31820355   2.934   5.227   8.255 -0.7022 -0.5255 -1.3100
  178SOPE  H18X20356   2.911   5.319   8.197  1.0863  1.1293  0.4535
  178SOPE  H18Y20357   2.980   5.147   8.193  2.9978 -0.5054  1.1110
  178SOPE  H18Z20358   3.005   5.253   8.337 -3.1556  1.8838  0.2291
  179SOPE     N20359   0.118   1.906   6.311 -0.9364 -0.4872 -0.1125
  179SOPE   HN120360   0.025   1.881   6.272 -2.2183  1.4705  1.4435
  179SOPE   HN220361   0.133   2.003   6.276 -3.1491 -0.2139 -0.4919
  179SOPE   HN320362   0.192   1.842   6.277 -1.6997 -0.8394 -1.1564
  179SOPE   C1220363   0.128   1.897   6.457 -0.3726 -0.2969  0.5062
  179SOPE  H12A20364   0.229   1.932   6.486 -1.1637  2.9376 -0.2898
  179SOPE  H12B20365   0.117   1.788   6.480  0.1533 -0.6811 -0.9908
  179SOPE   C1120366   0.014   1.966   6.540  0.0969  0.0316 -0.2838
  179SOPE  H11A20367   0.034   2.075   6.542  1.2510 -0.1709  0.2457
  179SOPE  H11B20368   0.009   1.934   6.647 -0.0419  2.1458  0.3849
  179SOPE     P20369  -0.197   1.802   6.519 -0.0906 -0.4123 -0.1365
  179SOPE   O1320370  -0.109   1.685   6.501  0.3049  0.3942  0.4275
  179SOPE   O1420371  -0.322   1.807   6.442  0.0317  0.2536 -0.0793
  179SOPE   O1220372  -0.116   1.938   6.481 -0.1539  0.4488 -0.2488
  179SOPE   O1120373  -0.232   1.822   6.668 -0.1466 -0.4645 -0.0434
  179SOPE    C120374  -0.300   1.937   6.719 -0.1712 -0.8347 -0.4228
  179SOPE    HA20375  -0.391   1.953   6.656 -0.5791  2.3635  0.7714
  179SOPE    HB20376  -0.239   2.030   6.726 -0.6758 -0.5990  1.6244
  179SOPE    C220377  -0.355   1.923   6.867  0.1338 -0.3384 -0.4114
  179SOPE    HS20378  -0.427   2.006   6.886  1.4720  1.0913 -1.3513
  179SOPE   O2120379  -0.246   1.917   6.961  0.1903  0.4979  0.1921
  179SOPE   C2120380  -0.186   2.032   6.977 -0.4649 -0.4062  0.2922
  179SOPE   O2220381  -0.230   2.141   6.941  0.6183  0.5311  0.2187
  179SOPE   C2220382  -0.054   2.013   7.045  0.0111  0.1815  0.1781
  179SOPE   H2R20383   0.025   2.011   6.967 -0.2899  0.7615 -0.1416
  179SOPE   H2S20384  -0.042   1.911   7.089 -0.6044 -1.5167 -3.2611
  179SOPE    C320385  -0.443   1.789   6.870  0.4746  0.1148 -0.8035
  179SOPE    HX20386  -0.405   1.696   6.822 -1.5053 -1.2128  0.1097
  179SOPE    HY20387  -0.528   1.816   6.804 -1.3207 -0.2298  1.2765
  179SOPE   O3120388  -0.511   1.766   6.999 -0.2348 -0.7289  0.1456
  179SOPE   C3120389  -0.450   1.685   7.075  0.5349  0.4005  0.3154
  179SOPE   O3220390  -0.346   1.624   7.055  0.6430 -0.3742 -0.0402
  179SOPE   C3220391  -0.534   1.682   7.203  1.1387  0.4303  0.3704
  179SOPE   H2X20392  -0.553   1.579   7.240  1.2946  1.4029  3.4580
  179SOPE   H2Y20393  -0.630   1.736   7.186  0.8461 -0.2493 -0.1816
  179SOPE   C2320394  -0.037   2.124   7.153  0.3156  0.0323  0.7186
  179SOPE   H3R20395  -0.064   2.223   7.111 -0.3336  1.2421  3.6976
  179SOPE   H3S20396   0.071   2.129   7.179  0.6018 -2.0353  0.1234
  179SOPE   C2420397  -0.119   2.108   7.287  0.3153 -0.9153 -0.4091
  179SOPE   H4R20398  -0.123   2.212   7.325  1.6278 -0.5013 -1.3349
  179SOPE   H4S20399  -0.221   2.072   7.263  0.3946  0.4088 -3.0523
  179SOPE   C2520400  -0.057   2.020   7.389 -0.7213  0.6262 -0.4910
  179SOPE   H5R20401  -0.033   1.915   7.360 -0.7322  0.3448  0.4854
  179SOPE   H5S20402   0.040   2.069   7.411 -1.2368  0.9145  1.2696
  179SOPE   C2620403  -0.137   2.003   7.520  0.7855  0.2291 -0.6748
  179SOPE   H6R20404  -0.150   2.104   7.566 -0.4425 -0.7300  1.2050
  179SOPE   H6S20405  -0.235   1.955   7.503  1.5844 -1.5845 -0.3400
  179SOPE   C2720406  -0.053   1.913   7.615 -0.1539 -0.3281  0.4875
  179SOPE   H7R20407  -0.065   1.816   7.562 -0.4141  0.0055 -0.0745
  179SOPE   H7S20408   0.051   1.951   7.622 -0.2372  0.4490 -1.7182
  179SOPE   C2820409  -0.119   1.912   7.754  0.3975  0.0583 -0.1078
  179SOPE   H8R20410  -0.087   2.010   7.795 -0.0478  0.6336 -1.1172
  179SOPE   H8S20411  -0.228   1.890   7.753 -0.1431  2.5561 -0.9234
  179SOPE   C2920412  -0.064   1.802   7.833 -0.0566  0.4267  0.1852
  179SOPE   H9120413  -0.044   1.711   7.774  0.2375  1.2188 -0.9585
  179SOPE  C21020414  -0.033   1.804   7.966  0.0382 -0.1393  0.1189
  179SOPE  H10120415   0.019   1.719   8.013 -1.1025  0.1503  2.0045
  179SOPE  C21120416  -0.045   1.914   8.072  0.0969  0.9651  0.3210
  179SOPE  H11R20417  -0.133   1.892   8.136  0.6846 -3.0507 -0.0172
  179SOPE  H11S20418  -0.058   2.013   8.021  2.6404  1.5362  0.6765
  179SOPE  C21220419   0.074   1.935   8.167  0.3288  0.7196  0.5433
  179SOPE  H12R20420   0.065   2.020   8.238  0.0160  1.2330 -0.0995
  179SOPE  H12S20421   0.162   1.950   8.101 -0.1678  0.3560 -0.2094
  179SOPE  C21320422   0.108   1.812   8.260  0.0390  1.0994  0.5215
  179SOPE  H13R20423   0.216   1.786   8.260 -0.3452 -0.6963  2.1920
  179SOPE  H13S20424   0.054   1.720   8.227  0.0067  1.6348 -0.9949
  179SOPE  C21420425   0.063   1.839   8.404 -0.2749  0.9600 -0.1446
  179SOPE  H14R20426  -0.048   1.831   8.407 -0.2989  1.4173  2.7576
  179SOPE  H14S20427   0.094   1.942   8.431  0.1593  0.7451  0.1833
  179SOPE  C21520428   0.122   1.730   8.501  0.4290  0.4722 -0.3642
  179SOPE  H15R20429   0.232   1.738   8.497  0.4231 -0.0533 -2.5290
  179SOPE  H15S20430   0.094   1.627   8.469  0.7071  0.7775 -1.6478
  179SOPE  C21620431   0.076   1.748   8.651  0.9684 -0.5835  0.0915
  179SOPE  H16R20432  -0.035   1.756   8.658  1.0453 -0.8503  2.0798
  179SOPE  H16S20433   0.110   1.850   8.682 -0.0769 -0.1914  0.0046
  179SOPE  C21720434   0.127   1.641   8.742 -0.2559 -0.0828  0.0065
  179SOPE  H17R20435   0.237   1.628   8.736 -0.1990 -1.1311  2.0991
  179SOPE  H17S20436   0.081   1.547   8.705 -2.5334  1.6958 -1.9690
  179SOPE  C21820437   0.086   1.656   8.894 -0.1952  0.2371  0.2483
  179SOPE  H18R20438  -0.020   1.688   8.904 -0.8298 -2.3282  3.5667
  179SOPE  H18S20439   0.154   1.724   8.950  1.1385  1.2825 -2.4505
  179SOPE  H18T20440   0.098   1.556   8.941 -1.0122  1.2643  2.8059
  179SOPE   C3320441  -0.461   1.736   7.333 -0.0581  0.3614 -0.4194
  179SOPE   H3X20442  -0.460   1.846   7.325 -0.6654  0.3418 -0.8273
  179SOPE   H3Y20443  -0.357   1.698   7.347  0.3507  0.5314 -2.5947
  179SOPE   C3420444  -0.539   1.698   7.458  0.1446 -1.2950 -0.4017
  179SOPE   H4X20445  -0.534   1.587   7.469 -2.5409 -1.5462 -1.0105
  179SOPE   H4Y20446  -0.641   1.737   7.440  1.8067  2.7482 -2.1253
  179SOPE   C3520447  -0.486   1.755   7.592  0.3275  0.5381  0.4731
  179SOPE   H5X20448  -0.474   1.866   7.589  0.8637  0.4596 -0.8268
  179SOPE   H5Y20449  -0.386   1.709   7.596  0.6619  1.3398  1.5463
  179SOPE   C3620450  -0.570   1.706   7.706 -0.3218 -0.2823  0.0659
  179SOPE   H6X20451  -0.583   1.596   7.697 -0.0617 -0.3438  0.4286
  179SOPE   H6Y20452  -0.669   1.757   7.709 -0.3853 -0.3840 -0.2137
  179SOPE   C3720453  -0.497   1.723   7.847  0.2847 -0.3313 -0.2141
  179SOPE   H7X20454  -0.470   1.830   7.856  0.1700 -0.2571 -0.7291
  179SOPE   H7Y20455  -0.398   1.674   7.838 -0.2483 -1.2346 -1.4224
  179SOPE   C3820456  -0.583   1.672   7.958 -0.0238 -0.7573  0.0393
  179SOPE   H8X20457  -0.579   1.561   7.966  2.1074 -0.5941  3.3916
  179SOPE   H8Y20458  -0.691   1.693   7.949  0.0776 -0.0777  0.4155
  179SOPE   C3920459  -0.534   1.735   8.087 -0.2432  0.1121 -0.0893
  179SOPE   H9X20460  -0.581   1.836   8.089  1.6866  1.1930 -2.9208
  179SOPE   H9Y20461  -0.424   1.749   8.089 -0.2437  0.1133  1.6455
  179SOPE  C31020462  -0.567   1.659   8.216  0.1469  0.2544 -0.0792
  179SOPE  H10X20463  -0.517   1.560   8.209  1.6664  1.0499 -0.9338
  179SOPE  H10Y20464  -0.676   1.639   8.219  0.4416 -1.9291 -1.4857
  179SOPE  C31120465  -0.525   1.730   8.343 -0.3632  0.0113  0.3373
  179SOPE  H11X20466  -0.565   1.833   8.352 -1.0943 -0.0912 -1.3428
  179SOPE  H11Y20467  -0.414   1.730   8.352 -0.0891 -1.4793 -2.1113
  179SOPE  C31220468  -0.570   1.647   8.461  0.2629  0.6446 -0.0434
  179SOPE  H12X20469  -0.521   1.549   8.445  0.5998  0.7378  0.3842
  179SOPE  H12Y20470  -0.681   1.636   8.463  0.2636  0.6233 -0.1122
  179SOPE  C31320471  -0.503   1.687   8.598 -0.1949  0.1939  0.4184
  179SOPE  H13X20472  -0.538   1.783   8.640  0.9532  0.1270  1.5657
  179SOPE  H13Y20473  -0.402   1.726   8.574 -0.4461  1.1164  0.8385
  179SOPE  C31420474  -0.480   1.580   8.706 -0.1090  0.4993  0.8647
  179SOPE  H14X20475  -0.423   1.508   8.644  1.3639  0.6023  2.0514
  179SOPE  H14Y20476  -0.583   1.543   8.725 -0.0839 -0.0493 -0.0288
  179SOPE  C31520477  -0.402   1.623   8.833 -0.3150 -0.2441 -0.0404
  179SOPE  H15X20478  -0.461   1.683   8.906  1.8271 -0.9327  2.4107
  179SOPE  H15Y20479  -0.312   1.681   8.803 -0.5635 -0.0939 -0.5065
  179SOPE  C31620480  -0.349   1.488   8.901 -0.1542 -0.0658 -0.2197
  179SOPE  H16X20481  -0.292   1.525   8.989 -0.3482 -1.2418  0.4291
  179SOPE  H16Y20482  -0.291   1.437   8.821  0.1908 -0.0388  0.0081
  179SOPE  C31720483  -0.460   1.392   8.943  0.6086 -0.5120 -0.4929
  179SOPE  H17X20484  -0.534   1.381   8.861  1.3462 -1.0193 -1.1099
  179SOPE  H17Y20485  -0.505   1.443   9.031  0.0602  0.9841 -1.5902
  179SOPE  C31820486  -0.409   1.250   8.981  0.2860 -0.3700 -0.0841
  179SOPE  H18X20487  -0.489   1.180   9.014 -3.0804  2.1189 -2.3298
  179SOPE  H18Y20488  -0.328   1.264   9.056  0.3482  1.4861 -0.4603
  179SOPE  H18Z20489  -0.378   1.206   8.884 -1.3188 -1.7569 -0.0144
  180SOPE     N20490   6.308   1.425   6.231  0.2931 -0.2361  0.0375
  180SOPE   HN120491   6.268   1.485   6.156 -1.5939  1.0714  1.9788
  180SOPE   HN220492   6.374   1.354   6.195 -1.0946 -2.3276  1.3967
  180SOPE   HN320493   6.228   1.371   6.270 -0.3084  0.0232 -0.8065
  180SOPE   C1220494   6.379   1.504   6.343  0.5918 -0.2251 -0.2508
  180SOPE  H12A20495   6.296   1.553   6.399 -0.3437  0.1930 -1.9415
  180SOPE  H12B20496   6.444   1.581   6.297 -0.8565  1.1779 -0.0490
  180SOPE   C1120497   6.463   1.397   6.415  0.5708 -0.3165 -0.1141
  180SOPE  H11A20498   6.392   1.320   6.451 -1.1327  1.4129  0.4306
  180SOPE  H11B20499   6.496   1.450   6.508 -1.9497  0.0867  0.6360
  180SOPE     P20500   6.588   1.208   6.290  0.3176 -0.0276  0.0877
  180SOPE   O1320501   6.728   1.185   6.249 -0.4842 -0.5947 -0.2049
  180SOPE   O1420502   6.479   1.197   6.190 -0.6913 -0.4477  0.7441
  180SOPE   O1220503   6.577   1.357   6.338 -0.5134 -0.2624  0.6637
  180SOPE   O1120504   6.540   1.127   6.415  0.2195  0.0420  0.0428
  180SOPE    C120505   6.611   1.141   6.540 -0.0661 -0.0476  0.0934
  180SOPE    HA20506   6.596   1.243   6.581  1.5904  0.6892 -0.9843
  180SOPE    HB20507   6.720   1.123   6.527  0.1927  1.3819  0.1884
  180SOPE    C220508   6.549   1.047   6.645 -0.2188 -0.5151 -0.0849
  180SOPE    HS20509   6.555   1.099   6.743 -0.6138  1.2272 -0.9537
  180SOPE   O2120510   6.615   0.919   6.640 -0.4321 -0.1650  0.0702
  180SOPE   C2120511   6.615   0.852   6.754 -0.4198 -0.7364  0.5634
  180SOPE   O2220512   6.579   0.897   6.859 -0.9350  0.5253 -0.7115
  180SOPE   C2220513   6.636   0.700   6.717 -0.0176  0.0270 -0.4026
  180SOPE   H2R20514   6.700   0.681   6.628  1.5469  1.6449  0.3129
  180SOPE   H2S20515   6.533   0.666   6.693 -0.9799  3.8030 -2.5258
  180SOPE    C320516   6.395   1.030   6.629 -0.2778  0.3400  0.0492
  180SOPE    HX20517   6.377   0.961   6.544  2.2481 -0.6510  0.2139
  180SOPE    HY20518   6.355   1.130   6.606 -1.2179 -0.0753 -0.1635
  180SOPE   O3120519   6.327   0.985   6.751  0.5671  0.3373 -0.6076
  180SOPE   C3120520   6.302   1.069   6.843  0.1130 -0.3051  0.3508
  180SOPE   O3220521   6.344   1.183   6.851 -0.2856 -0.1666 -0.0356
  180SOPE   C3220522   6.222   0.993   6.950  0.1809  0.2623  0.3981
  180SOPE   H2X20523   6.164   0.916   6.896  1.4619  1.1044 -2.3401
  180SOPE   H2Y20524   6.153   1.069   6.994 -0.4827 -0.7463  1.1517
  180SOPE   C2320525   6.692   0.613   6.834  0.6195 -0.5109  0.9562
  180SOPE   H3R20526   6.788   0.655   6.869  0.2819 -0.7312  2.1714
  180SOPE   H3S20527   6.713   0.511   6.797 -0.2818  0.3311 -2.2118
  180SOPE   C2420528   6.601   0.587   6.954  0.5427 -0.0803 -0.5890
  180SOPE   H4R20529   6.563   0.685   6.991 -1.5708 -0.8663 -0.5251
  180SOPE   H4S20530   6.511   0.532   6.918  0.7846  1.5154 -3.9933
  180SOPE   C2520531   6.666   0.515   7.063  0.3350  0.3202 -0.3206
  180SOPE   H5R20532   6.659   0.408   7.032 -1.1805  0.3378 -0.1050
  180SOPE   H5S20533   6.769   0.551   7.085  0.2761 -0.3177  1.1742
  180SOPE   C2620534   6.591   0.534   7.195 -0.6354 -0.0048  0.4978
  180SOPE   H6R20535   6.557   0.639   7.206 -0.1248  0.1487  0.6558
  180SOPE   H6S20536   6.502   0.468   7.192 -0.6116 -0.0863  1.3484
  180SOPE   C2720537   6.676   0.495   7.320 -0.0824 -0.4847  0.0042
  180SOPE   H7R20538   6.727   0.399   7.299  0.8472 -0.7290  2.8417
  180SOPE   H7S20539   6.758   0.561   7.355  0.5444 -1.7217  0.9903
  180SOPE   C2820540   6.584   0.457   7.446  0.2394  0.5466 -0.1515
  180SOPE   H8R20541   6.556   0.555   7.492  0.0432  0.7875 -0.7645
  180SOPE   H8S20542   6.489   0.416   7.406 -0.7905  0.7780  1.9185
  180SOPE   C2920543   6.644   0.361   7.546 -0.1921 -0.1207  0.9032
  180SOPE   H9120544   6.706   0.280   7.504  0.9360  0.4495  1.4399
  180SOPE  C21020545   6.640   0.373   7.678  0.4153 -0.2908  0.4164
  180SOPE  H10120546   6.674   0.288   7.738 -1.3547 -1.1671  0.2430
  180SOPE  C21120547   6.583   0.487   7.755 -0.1143 -0.1657 -0.5044
  180SOPE  H11R20548   6.534   0.438   7.841  1.5900  1.0208  1.2252
  180SOPE  H11S20549   6.514   0.552   7.696  2.6427  2.3245 -1.2690
  180SOPE  C21220550   6.694   0.584   7.809  0.7821 -0.2109 -0.1459
  180SOPE  H12R20551   6.742   0.628   7.719 -1.2909  3.0419  0.1615
  180SOPE  H12S20552   6.773   0.533   7.868  0.1607  0.1938  1.0682
  180SOPE  C21320553   6.635   0.711   7.882 -0.2858  0.3340 -0.0824
  180SOPE  H13R20554   6.543   0.740   7.827 -1.3716  0.7659  1.8810
  180SOPE  H13S20555   6.718   0.784   7.872  1.1340 -1.2100 -0.0943
  180SOPE  C21420556   6.612   0.687   8.033  0.1729  0.6522 -0.1004
  180SOPE  H14R20557   6.692   0.620   8.073 -1.3892 -0.3576  1.4575
  180SOPE  H14S20558   6.517   0.633   8.050 -0.1311  0.6972 -1.5963
  180SOPE  C21520559   6.600   0.814   8.115 -0.3222  0.0080 -0.3974
  180SOPE  H15R20560   6.518   0.876   8.073  1.3466  1.6579 -1.3456
  180SOPE  H15S20561   6.694   0.867   8.091 -1.5007  1.7638 -1.3730
  180SOPE  C21620562   6.577   0.782   8.265 -0.7580  0.1554  0.9132
  180SOPE  H16R20563   6.659   0.720   8.307 -0.9358  0.4073  1.6487
  180SOPE  H16S20564   6.486   0.721   8.282  0.6549 -2.5387 -0.5717
  180SOPE  C21720565   6.568   0.910   8.352 -0.6017  0.0901  0.3235
  180SOPE  H17R20566   6.511   0.989   8.299 -0.9610  0.0489  0.6360
  180SOPE  H17S20567   6.669   0.953   8.366 -0.5650  1.1441 -2.5379
  180SOPE  C21820568   6.516   0.877   8.494 -0.1832  0.2703  0.1167
  180SOPE  H18R20569   6.598   0.830   8.554  0.6818 -0.4204 -1.5390
  180SOPE  H18S20570   6.423   0.817   8.499 -1.3480  2.1096  1.8854
  180SOPE  H18T20571   6.501   0.975   8.543  1.1918  0.2459  0.6357
  180SOPE   C3320572   6.317   0.930   7.051  0.4576 -0.1750 -0.8584
  180SOPE   H3X20573   6.408   0.992   7.059  1.7650 -1.9896 -0.9156
  180SOPE   H3Y20574   6.357   0.837   7.003 -0.2811 -1.6351  1.2041
  180SOPE   C3420575   6.240   0.879   7.169 -0.2546  0.1198 -0.3578
  180SOPE   H4X20576   6.159   0.809   7.139 -1.8200  0.5218  2.5995
  180SOPE   H4Y20577   6.186   0.970   7.202  3.4316  2.2044  0.5448
  180SOPE   C3520578   6.325   0.822   7.289 -0.6296 -0.0254  0.7065
  180SOPE   H5X20579   6.417   0.883   7.301 -0.3572 -0.4288  0.6893
  180SOPE   H5Y20580   6.355   0.723   7.249 -1.9584  0.4752 -1.7739
  180SOPE   C3620581   6.238   0.817   7.414 -0.2519  0.0613 -0.0127
  180SOPE   H6X20582   6.135   0.790   7.384 -0.5197  3.1965 -2.4082
  180SOPE   H6Y20583   6.231   0.925   7.435  1.0931  0.5110 -1.6710
  180SOPE   C3720584   6.280   0.725   7.528  0.0099 -0.1398  0.0440
  180SOPE   H7X20585   6.386   0.753   7.546  0.0354 -0.1034 -0.1667
  180SOPE   H7Y20586   6.298   0.623   7.488 -1.0602 -0.2567 -0.1705
  180SOPE   C3820587   6.184   0.724   7.652  0.0390  0.0518  1.2996
  180SOPE   H8X20588   6.091   0.674   7.618  0.6087  0.2887 -0.7461
  180SOPE   H8Y20589   6.194   0.832   7.676  2.2686  0.4530 -0.9540
  180SOPE   C3920590   6.241   0.647   7.764 -0.1899  0.3367 -0.6875
  180SOPE   H9X20591   6.351   0.660   7.774 -0.1462 -1.2873  1.6376
  180SOPE   H9Y20592   6.228   0.541   7.734  0.2780  0.2558 -0.6119
  180SOPE  C31020593   6.174   0.672   7.897 -0.8021 -0.2429  0.1119
  180SOPE  H10X20594   6.066   0.652   7.881 -0.8496 -1.0533  1.3482
  180SOPE  H10Y20595   6.184   0.781   7.914 -4.0009  0.1771 -0.0795
  180SOPE  C31120596   6.221   0.570   8.003 -0.9705  0.1858 -0.7690
  180SOPE  H11X20597   6.332   0.568   8.001 -0.8681 -0.0186  1.6691
  180SOPE  H11Y20598   6.188   0.468   7.974 -0.2286 -0.5990  1.0156
  180SOPE  C31220599   6.166   0.575   8.147  0.1864 -0.1224 -0.8001
  180SOPE  H12X20600   6.231   0.509   8.208  2.3252  3.8489  1.6512
  180SOPE  H12Y20601   6.062   0.535   8.150  0.4282 -0.6978  0.6936
  180SOPE  C31320602   6.159   0.719   8.207  0.2125 -0.4246 -0.1573
  180SOPE  H13X20603   6.088   0.784   8.153 -3.1331 -0.8804  3.2496
  180SOPE  H13Y20604   6.259   0.767   8.195 -0.0669  0.1698 -0.1417
  180SOPE  C31420605   6.104   0.726   8.351  0.5417 -0.2322 -0.2960
  180SOPE  H14X20606   6.169   0.672   8.423 -0.1676 -1.7142 -0.7155
  180SOPE  H14Y20607   6.015   0.659   8.349 -0.1839  0.6264  1.0440
  180SOPE  C31520608   6.060   0.865   8.392 -0.2678  0.1539  0.4804
  180SOPE  H15X20609   5.971   0.851   8.458  0.3084  0.7688  1.4264
  180SOPE  H15Y20610   6.024   0.938   8.317  0.9310  1.1606  0.8375
  180SOPE  C31620611   6.177   0.943   8.467  0.8173  0.4665 -0.5523
  180SOPE  H16X20612   6.269   0.951   8.405  1.0554 -1.2129 -0.4590
  180SOPE  H16Y20613   6.197   0.887   8.561 -0.1761  1.3576  0.2188
  180SOPE  C31720614   6.130   1.090   8.494  0.0196  0.6492  0.1882
  180SOPE  H17X20615   6.054   1.094   8.575 -0.4460 -2.0616 -0.0363
  180SOPE  H17Y20616   6.095   1.138   8.400 -0.2744 -0.2751 -0.1830
  180SOPE  C31820617   6.240   1.181   8.550 -0.2480 -0.1487 -0.9518
  180SOPE  H18X20618   6.257   1.155   8.657 -1.1156  4.1979  0.4502
  180SOPE  H18Y20619   6.212   1.288   8.549  1.9799  0.4933 -0.6514
  180SOPE  H18Z20620   6.331   1.172   8.487  0.5839 -0.3383  0.2433
  181SOPE     N20621   4.597   6.326   5.814 -0.5550 -0.4430  0.2986
  181SOPE   HN120622   4.677   6.388   5.793 -0.4228 -1.2272 -1.8477
  181SOPE   HN220623   4.585   6.273   5.725  0.7075 -2.2239  1.1262
  181SOPE   HN320624   4.512   6.386   5.824 -0.3229 -0.0142 -0.2388
  181SOPE   C1220625   4.628   6.224   5.920 -0.0838  0.5150 -0.2761
  181SOPE  H12A20626   4.692   6.269   5.999 -1.6754  0.0011  1.3993
  181SOPE  H12B20627   4.676   6.149   5.854  0.2685  0.4760  0.0253
  181SOPE   C1120628   4.487   6.168   5.962  0.1047 -0.6318 -0.2691
  181SOPE  H11A20629   4.521   6.110   6.050  1.1948  1.4976  0.7756
  181SOPE  H11B20630   4.442   6.105   5.882 -0.4181 -0.0196 -0.4664
  181SOPE     P20631   4.326   6.276   6.152 -0.2353 -0.0485 -0.6617
  181SOPE   O1320632   4.295   6.132   6.183  0.4313 -0.2591 -0.2355
  181SOPE   O1420633   4.215   6.368   6.149 -0.2595 -0.2050 -0.4000
  181SOPE   O1220634   4.401   6.277   6.007 -0.2351  0.5589  0.4033
  181SOPE   O1120635   4.442   6.308   6.256  0.2359  0.4265  0.4039
  181SOPE    C120636   4.531   6.416   6.258  0.7387 -0.3712 -0.4593
  181SOPE    HA20637   4.476   6.508   6.229 -1.5796 -1.5749 -0.1136
  181SOPE    HB20638   4.613   6.415   6.182  1.2799  0.3262  0.1019
  181SOPE    C220639   4.602   6.430   6.399  0.2236 -0.8580  0.2660
  181SOPE    HS20640   4.672   6.346   6.415  1.5236  0.1451  0.1005
  181SOPE   O2120641   4.499   6.443   6.503 -0.1434 -0.0029  0.3635
  181SOPE   C2120642   4.462   6.324   6.553 -0.3864 -0.3477 -0.4628
  181SOPE   O2220643   4.510   6.214   6.539  0.0302 -0.2761 -0.0855
  181SOPE   C2220644   4.334   6.348   6.627  0.8740  0.0944 -0.3922
  181SOPE   H2R20645   4.252   6.332   6.553  0.8645 -0.9379 -0.1681
  181SOPE   H2S20646   4.332   6.451   6.668 -2.0381 -0.2992  0.7292
  181SOPE    C320647   4.691   6.561   6.405  0.1294  0.2716 -0.1570
  181SOPE    HX20648   4.615   6.638   6.429  1.4283  2.5991 -2.9388
  181SOPE    HY20649   4.732   6.590   6.306  0.4861 -0.0642 -0.1103
  181SOPE   O3120650   4.784   6.553   6.510  0.4865 -0.3396 -0.9242
  181SOPE   C3120651   4.903   6.510   6.469 -0.1896 -0.5472 -0.3310
  181SOPE   O3220652   4.940   6.497   6.355 -0.2213  0.5569  0.4823
  181SOPE   C3220653   4.993   6.476   6.597  0.9961  0.4875  0.1472
  181SOPE   H2X20654   5.068   6.557   6.595  1.0373  0.4470 -1.1587
  181SOPE   H2Y20655   5.052   6.390   6.559 -0.0546 -0.2586  0.1650
  181SOPE   C2320656   4.320   6.251   6.750  0.1632  0.1207 -0.3508
  181SOPE   H3R20657   4.347   6.146   6.725  2.4734  0.8191 -1.0941
  181SOPE   H3S20658   4.211   6.259   6.771  0.3651  0.0211  0.8467
  181SOPE   C2420659   4.394   6.294   6.881 -0.0613 -0.0648 -0.1927
  181SOPE   H4R20660   4.345   6.382   6.928 -0.2646 -1.5526  2.6119
  181SOPE   H4S20661   4.389   6.223   6.967 -2.1929  0.4091  0.1135
  181SOPE   C2520662   4.547   6.331   6.869 -0.0204  0.7495  0.3329
  181SOPE   H5R20663   4.600   6.235   6.852  0.6544  0.4102  3.7331
  181SOPE   H5S20664   4.579   6.386   6.778 -1.2922 -3.3130 -2.8770
  181SOPE   C2620665   4.617   6.376   6.991  1.1465  0.1235 -0.0436
  181SOPE   H6R20666   4.726   6.390   6.974  0.8720  0.1578 -2.0932
  181SOPE   H6S20667   4.580   6.479   7.012  0.9302  0.1561 -0.5552
  181SOPE   C2720668   4.591   6.280   7.109  0.4114  0.4942 -0.1971
  181SOPE   H7R20669   4.501   6.305   7.169  0.6455  0.9372 -0.0253
  181SOPE   H7S20670   4.581   6.172   7.082 -1.7272  0.1584  1.6437
  181SOPE   C2820671   4.715   6.280   7.208  0.4565 -0.2166 -0.4426
  181SOPE   H8R20672   4.726   6.184   7.263  2.1046  0.5000  0.5568
  181SOPE   H8S20673   4.804   6.270   7.142  1.9326  1.1438  1.2560
  181SOPE   C2920674   4.725   6.399   7.299  0.7464 -0.5438  0.5443
  181SOPE   H9120675   4.720   6.499   7.255  0.6159 -0.5943  0.4471
  181SOPE  C21020676   4.734   6.390   7.430 -0.0514 -0.2177 -0.0225
  181SOPE  H10120677   4.750   6.485   7.483 -0.8559  1.3272 -2.4200
  181SOPE  C21120678   4.730   6.266   7.528  0.5976 -0.8754 -0.6376
  181SOPE  H11R20679   4.835   6.237   7.550  0.3039 -1.4722 -0.0042
  181SOPE  H11S20680   4.677   6.178   7.485 -0.3741 -0.3112 -0.6180
  181SOPE  C21220681   4.669   6.299   7.662 -0.1552 -0.3317 -0.8833
  181SOPE  H12R20682   4.640   6.207   7.719 -0.7503  0.8072  0.7314
  181SOPE  H12S20683   4.568   6.345   7.655 -0.3968 -0.8248 -0.7183
  181SOPE  C21320684   4.760   6.377   7.753 -0.2227 -0.6744 -0.4387
  181SOPE  H13R20685   4.785   6.474   7.704  0.3721  0.6624  2.3236
  181SOPE  H13S20686   4.860   6.329   7.764 -1.6583 -3.3816  2.7292
  181SOPE  C21420687   4.712   6.400   7.893  0.8513 -0.0528  0.2099
  181SOPE  H14R20688   4.721   6.300   7.941  0.4298  0.6058  1.7349
  181SOPE  H14S20689   4.605   6.428   7.902  0.9998 -0.0951  3.0743
  181SOPE  C21520690   4.794   6.495   7.979  0.3066 -0.2647  0.1012
  181SOPE  H15R20691   4.789   6.598   7.936  0.2565 -0.1096  0.4740
  181SOPE  H15S20692   4.897   6.454   7.987  0.4813  0.1118 -0.1517
  181SOPE  C21620693   4.738   6.513   8.121 -0.0499  0.4318 -0.0203
  181SOPE  H16R20694   4.728   6.409   8.158  3.8265  0.1066  0.4791
  181SOPE  H16S20695   4.642   6.570   8.119  0.9078  2.1160 -0.0640
  181SOPE  C21720696   4.821   6.597   8.222  0.0217 -0.1031 -0.1423
  181SOPE  H17R20697   4.829   6.701   8.183 -3.1225  0.3670  0.1842
  181SOPE  H17S20698   4.919   6.547   8.234  1.0634  1.4788 -1.5875
  181SOPE  C21820699   4.747   6.603   8.349  0.4438 -0.2110  0.0231
  181SOPE  H18R20700   4.667   6.680   8.334  1.8786  1.2683 -0.3025
  181SOPE  H18S20701   4.813   6.630   8.434 -1.2308 -1.1645  1.7202
  181SOPE  H18T20702   4.697   6.506   8.371  0.2090  0.5467  3.3402
  181SOPE   C3320703   4.933   6.473   6.736 -0.1077  0.1482  0.0456
  181SOPE   H3X20704   4.843   6.407   6.735 -1.3920  1.8005  1.5858
  181SOPE   H3Y20705   4.893   6.575   6.753  0.4187  0.2622  0.6338
  181SOPE   C3420706   5.034   6.428   6.849 -0.1077  0.5784  0.1948
  181SOPE   H4X20707   5.127   6.475   6.810 -1.1984  1.7738 -1.0722
  181SOPE   H4Y20708   5.042   6.318   6.848  0.1957  0.6061 -0.8207
  181SOPE   C3520709   5.001   6.475   6.991 -0.0100  0.6151  0.1839
  181SOPE   H5X20710   5.079   6.436   7.058 -0.3056  0.7924  0.6339
  181SOPE   H5Y20711   4.915   6.413   7.026  2.0950 -3.2228 -0.8814
  181SOPE   C3620712   4.978   6.620   7.024 -0.0616 -0.6886  0.1086
  181SOPE   H6X20713   4.885   6.660   6.978 -1.0138 -0.7787  1.8554
  181SOPE   H6Y20714   5.060   6.675   6.973 -0.1944 -1.9815 -1.5657
  181SOPE   C3720715   4.983   6.642   7.175 -0.3503 -0.5833 -0.3886
  181SOPE   H7X20716   5.078   6.615   7.226  0.0721  0.2849 -0.6802
  181SOPE   H7Y20717   4.895   6.589   7.215 -2.3280  1.5935 -1.6092
  181SOPE   C3820718   4.956   6.786   7.210  0.0681  0.4582  1.1810
  181SOPE   H8X20719   4.878   6.826   7.142 -0.2937 -2.2058 -0.1428
  181SOPE   H8Y20720   5.047   6.843   7.181 -0.6850  1.3723  0.5572
  181SOPE   C3920721   4.919   6.819   7.348 -0.6747 -0.1992  0.1931
  181SOPE   H9X20722   4.932   6.928   7.364 -1.0174 -0.4051  2.1068
  181SOPE   H9Y20723   4.985   6.757   7.412  1.4131  0.1680 -1.4844
  181SOPE  C31020724   4.778   6.798   7.380 -0.4108 -0.2082 -1.1481
  181SOPE  H10X20725   4.738   6.700   7.346 -0.1767 -2.8364  4.8669
  181SOPE  H10Y20726   4.728   6.886   7.336  1.9059  0.8523 -1.8034
  181SOPE  C31120727   4.743   6.795   7.526 -0.1693 -0.3133 -0.8888
  181SOPE  H11X20728   4.782   6.892   7.564 -0.2751 -0.4157 -0.5112
  181SOPE  H11Y20729   4.807   6.718   7.574  3.7198  3.6948  1.0950
  181SOPE  C31220730   4.596   6.784   7.560  0.9880  0.8207  0.8893
  181SOPE  H12X20731   4.550   6.692   7.518 -2.1515  2.6309  0.0027
  181SOPE  H12Y20732   4.541   6.855   7.495  2.7831  1.6194  0.1926
  181SOPE  C31320733   4.557   6.790   7.711  0.5305 -0.0497  1.0885
  181SOPE  H13X20734   4.595   6.889   7.748 -1.3491  0.7428  0.9903
  181SOPE  H13Y20735   4.613   6.712   7.767  1.5124 -0.0602  0.1269
  181SOPE  C31420736   4.408   6.773   7.732 -0.9143  0.3205  0.3825
  181SOPE  H14X20737   4.344   6.841   7.671 -2.6274 -1.7653 -0.2835
  181SOPE  H14Y20738   4.396   6.804   7.838 -0.4296 -1.0602  0.8722
  181SOPE  C31520739   4.362   6.629   7.712 -0.2518 -0.5984  0.4151
  181SOPE  H15X20740   4.432   6.558   7.761  0.5095  0.2960  0.6462
  181SOPE  H15Y20741   4.367   6.618   7.601  2.4231 -0.6521  0.4818
  181SOPE  C31620742   4.213   6.595   7.748  0.4286 -0.7550  0.2185
  181SOPE  H16X20743   4.197   6.491   7.714  0.8070 -0.5930 -0.4798
  181SOPE  H16Y20744   4.136   6.659   7.700 -1.2046 -0.7852  2.6546
  181SOPE  C31720745   4.193   6.587   7.897  0.9769  0.3735  0.5352
  181SOPE  H17X20746   4.087   6.575   7.929  0.6903 -0.1580 -0.5739
  181SOPE  H17Y20747   4.213   6.690   7.934 -0.6691  1.7258 -2.0910
  181SOPE  C31820748   4.277   6.484   7.975 -0.6147 -0.0597  0.2155
  181SOPE  H18X20749   4.249   6.377   7.965 -1.5501  0.0685  1.2243
  181SOPE  H18Y20750   4.258   6.504   8.083  2.4707  1.6545  0.5584
  181SOPE  H18Z20751   4.387   6.497   7.967 -0.4729  2.5729  3.8024
  182SOPE     N20752   5.738   0.434   6.045 -0.3263 -0.2836  0.0146
  182SOPE   HN120753   5.774   0.525   6.079 -2.6858  0.7476 -0.0622
  182SOPE   HN220754   5.812   0.363   6.065  2.0610  1.9771 -0.2457
  182SOPE   HN320755   5.719   0.426   5.943 -0.9908 -1.4650  0.2089
  182SOPE   C1220756   5.604   0.404   6.117  0.0883  0.3101  0.2164
  182SOPE  H12A20757   5.536   0.486   6.088 -0.0539 -0.3231 -1.3448
  182SOPE  H12B20758   5.633   0.407   6.225 -0.0803 -1.7596  0.3714
  182SOPE   C1120759   5.543   0.274   6.065 -0.5516 -0.2960 -0.2021
  182SOPE  H11A20760   5.496   0.303   5.969  0.3215  0.9693 -0.2662
  182SOPE  H11B20761   5.459   0.250   6.134  0.5757 -2.8112  0.4310
  182SOPE     P20762   5.646   0.054   6.160  0.2369 -0.4707 -0.4709
  182SOPE   O1320763   5.766  -0.028   6.132  0.1671 -0.3043  0.2410
  182SOPE   O1420764   5.517  -0.016   6.161  0.1813  0.2814 -0.6270
  182SOPE   O1220765   5.644   0.171   6.048  0.1486 -0.8107  0.1218
  182SOPE   O1120766   5.668   0.130   6.297  0.0821  0.6150  0.3294
  182SOPE    C120767   5.593   0.093   6.415 -0.4350  0.3290 -0.0052
  182SOPE    HA20768   5.541  -0.004   6.405  0.7913 -0.5962  1.9694
  182SOPE    HB20769   5.518   0.170   6.444 -1.7915 -1.8670  2.7935
  182SOPE    C220770   5.690   0.063   6.535  0.0949 -0.5730 -0.2554
  182SOPE    HS20771   5.649  -0.020   6.596 -0.6783 -1.2013 -1.5943
  182SOPE   O2120772   5.719   0.176   6.619 -0.1335  0.0674 -0.4379
  182SOPE   C2120773   5.620   0.220   6.693 -0.0162  0.7268  1.0035
  182SOPE   O2220774   5.510   0.165   6.707 -0.7842 -0.1540 -0.1863
  182SOPE   C2220775   5.669   0.352   6.759  0.2142  0.3095  0.1965
  182SOPE   H2R20776   5.586   0.388   6.824  1.7266  2.8173  0.8651
  182SOPE   H2S20777   5.696   0.426   6.680  1.7889  0.7205  1.0848
  182SOPE    C320778   5.817   0.003   6.475 -0.3655  0.0295  0.7089
  182SOPE    HX20779   5.877   0.079   6.421 -1.9783  0.7865 -0.0948
  182SOPE    HY20780   5.779  -0.062   6.393  2.0916  0.7765 -1.1445
  182SOPE   O3120781   5.895  -0.074   6.567 -0.6669 -0.3253  0.1378
  182SOPE   C3120782   6.007  -0.128   6.518  0.0405 -0.0859 -0.6074
  182SOPE   O3220783   6.054  -0.125   6.407 -0.6826 -0.0799 -0.1616
  182SOPE   C3220784   6.071  -0.202   6.634 -0.0303 -1.4289 -0.7108
  182SOPE   H2X20785   6.181  -0.203   6.616  0.3403  1.3780  0.6976
  182SOPE   H2Y20786   6.016  -0.298   6.645 -2.4767  0.1054  1.9075
  182SOPE   C2320787   5.784   0.324   6.855 -0.5935  1.0512  0.2856
  182SOPE   H3R20788   5.811   0.423   6.899  0.3944  1.2372 -0.6903
  182SOPE   H3S20789   5.879   0.282   6.815  0.4428 -0.4441  3.9316
  182SOPE   C2420790   5.747   0.229   6.969  0.0152 -0.1498 -0.3028
  182SOPE   H4R20791   5.654   0.264   7.020  2.4400  0.5078  4.1115
  182SOPE   H4S20792   5.727   0.133   6.917 -0.3366 -0.4462  0.3669
  182SOPE   C2520793   5.858   0.215   7.072 -0.7548  0.2639 -0.3540
  182SOPE   H5R20794   5.955   0.196   7.020  1.4048  0.6162  3.2178
  182SOPE   H5S20795   5.868   0.304   7.137 -2.5436  0.1106  0.1852
  182SOPE   C2620796   5.833   0.103   7.172 -0.3680  0.2812  0.0884
  182SOPE   H6R20797   5.826   0.004   7.122  0.7179  1.2428 -2.1446
  182SOPE   H6S20798   5.923   0.111   7.236 -0.0678  0.7040 -0.3757
  182SOPE   C2720799   5.709   0.111   7.260 -0.1166  0.0591 -0.6876
  182SOPE   H7R20800   5.706   0.208   7.314  0.5752 -0.5267  0.4220
  182SOPE   H7S20801   5.619   0.116   7.194 -0.8226  0.7422  0.2912
  182SOPE   C2820802   5.698  -0.012   7.349 -0.5292  0.0124  0.7931
  182SOPE   H8R20803   5.593  -0.039   7.372 -1.1733  0.8562 -0.9553
  182SOPE   H8S20804   5.731  -0.096   7.285  1.6037 -0.0246  1.8662
  182SOPE   C2920805   5.795   0.007   7.466  0.1634  0.3102 -0.4886
  182SOPE   H9120806   5.901   0.021   7.438  0.3381  1.0341  0.4652
  182SOPE  C21020807   5.753   0.028   7.595  0.2812 -0.3324  0.7401
  182SOPE  H10120808   5.838   0.038   7.664  1.8874 -0.1629 -1.1805
  182SOPE  C21120809   5.614   0.034   7.651 -0.1159 -0.8735 -0.0382
  182SOPE  H11R20810   5.543   0.073   7.575 -0.0901 -0.2567  0.2497
  182SOPE  H11S20811   5.618   0.100   7.740 -1.2531 -1.4120  0.4285
  182SOPE  C21220812   5.591  -0.109   7.707 -1.3480  0.3902 -0.3741
  182SOPE  H12R20813   5.600  -0.178   7.620  3.9683  1.5282 -1.1136
  182SOPE  H12S20814   5.488  -0.121   7.747 -1.1761 -1.6234 -0.4067
  182SOPE  C21320815   5.692  -0.151   7.817 -0.4404  0.6688  0.5353
  182SOPE  H13R20816   5.795  -0.159   7.777 -0.1261 -1.7272  1.5962
  182SOPE  H13S20817   5.659  -0.252   7.851 -2.1766  0.8142 -0.6062
  182SOPE  C21420818   5.704  -0.069   7.949  0.0968  0.4432 -0.7099
  182SOPE  H14R20819   5.726   0.038   7.929  0.0775  1.0517  2.2100
  182SOPE  H14S20820   5.783  -0.100   8.020  1.3622  1.8146 -1.4721
  182SOPE  C21520821   5.579  -0.091   8.037  0.0155 -0.1524 -0.2214
  182SOPE  H15R20822   5.567  -0.199   8.060 -0.8478 -0.1194 -0.4962
  182SOPE  H15S20823   5.493  -0.065   7.972 -0.4941 -2.4737 -0.5676
  182SOPE  C21620824   5.571  -0.020   8.177  0.3342 -0.1843 -0.1305
  182SOPE  H16R20825   5.568   0.090   8.161  1.0024  0.3455  2.7484
  182SOPE  H16S20826   5.667  -0.042   8.228  0.3671  0.9432  0.3187
  182SOPE  C21720827   5.456  -0.071   8.272 -0.2359 -0.1200 -0.5105
  182SOPE  H17R20828   5.486  -0.051   8.377  2.3046 -0.8422 -1.0166
  182SOPE  H17S20829   5.464  -0.182   8.267  2.2177 -0.1498  1.7417
  182SOPE  C21820830   5.320  -0.017   8.232  0.0048  0.6902 -0.0423
  182SOPE  H18R20831   5.298   0.067   8.301  0.0219 -0.4630  1.4176
  182SOPE  H18S20832   5.237  -0.091   8.233 -2.4816  3.3316 -0.1692
  182SOPE  H18T20833   5.323   0.028   8.130  2.4816  0.9505  0.0662
  182SOPE   C3320834   6.060  -0.142   6.775 -0.2317  0.2089  0.5051
  182SOPE   H3X20835   5.955  -0.117   6.800 -0.8315 -1.4001 -0.2706
  182SOPE   H3Y20836   6.113  -0.044   6.773  0.2643 -0.0588  0.3737
  182SOPE   C3420837   6.108  -0.234   6.889 -0.3001 -0.0282  0.1135
  182SOPE   H4X20838   6.209  -0.270   6.858 -0.2122 -2.3587  2.7911
  182SOPE   H4Y20839   6.051  -0.330   6.890 -0.2116 -0.0892 -0.2984
  182SOPE   C3520840   6.108  -0.161   7.021 -0.2869 -0.2162  0.0706
  182SOPE   H5X20841   6.016  -0.098   7.024  0.9153  1.7495 -1.6341
  182SOPE   H5Y20842   6.183  -0.080   7.010 -1.1343  0.4235 -1.3935
  182SOPE   C3620843   6.115  -0.249   7.140 -0.1951 -0.2014 -0.0745
  182SOPE   H6X20844   6.218  -0.288   7.157 -0.3000 -1.6028 -2.2248
  182SOPE   H6Y20845   6.057  -0.342   7.123 -0.7340 -0.2281  1.6990
  182SOPE   C3720846   6.068  -0.194   7.279 -0.2301 -0.7979 -0.3041
  182SOPE   H7X20847   5.959  -0.170   7.282  0.2545  1.8581  2.9833
  182SOPE   H7Y20848   6.121  -0.100   7.304  0.1431 -0.8841 -0.7503
  182SOPE   C3820849   6.089  -0.288   7.407  0.2591 -0.1643  0.6355
  182SOPE   H8X20850   6.198  -0.308   7.406  0.0673 -1.5319 -1.7638
  182SOPE   H8Y20851   6.050  -0.389   7.381  1.1310  0.2580 -2.7766
  182SOPE   C3920852   6.032  -0.239   7.535  0.4599 -0.0962  0.3546
  182SOPE   H9X20853   5.924  -0.262   7.537  0.7207 -1.5723 -0.6339
  182SOPE   H9Y20854   6.058  -0.132   7.546  0.7043  0.1731 -2.2996
  182SOPE  C31020855   6.075  -0.316   7.661 -0.1321  0.6128 -0.2406
  182SOPE  H10X20856   6.182  -0.338   7.643 -0.2377 -0.6884  0.6834
  182SOPE  H10Y20857   6.024  -0.412   7.680  0.4547  0.4766  0.6826
  182SOPE  C31120858   6.070  -0.222   7.787 -0.2300 -0.0466  0.6757
  182SOPE  H11X20859   5.960  -0.232   7.802 -0.3970  0.9952  0.2075
  182SOPE  H11Y20860   6.100  -0.117   7.765 -0.1530  0.9242  4.5365
  182SOPE  C31220861   6.138  -0.276   7.914  0.1034  0.3843  0.0706
  182SOPE  H12X20862   6.244  -0.292   7.885 -0.0740 -0.1199 -0.3063
  182SOPE  H12Y20863   6.096  -0.376   7.940  0.8519  0.2517  0.8094
  182SOPE  C31320864   6.123  -0.192   8.037 -0.0621 -0.3682 -0.5953
  182SOPE  H13X20865   6.017  -0.170   8.062 -0.7260  0.8971 -4.0261
  182SOPE  H13Y20866   6.176  -0.095   8.023  2.3520 -1.8357 -2.3689
  182SOPE  C31420867   6.186  -0.254   8.157  0.6694 -0.1784 -0.0478
  182SOPE  H14X20868   6.289  -0.287   8.131 -0.1092 -1.1616 -2.1039
  182SOPE  H14Y20869   6.132  -0.340   8.202  1.2817 -0.7370 -0.3826
  182SOPE  C31520870   6.225  -0.150   8.263 -0.0952 -0.6936  0.0815
  182SOPE  H15X20871   6.139  -0.131   8.330  0.4363  0.4708  0.4685
  182SOPE  H15Y20872   6.253  -0.058   8.208 -0.3753 -0.0760  0.9516
  182SOPE  C31620873   6.341  -0.201   8.350  0.0868  0.0558 -0.8228
  182SOPE  H16X20874   6.425  -0.224   8.281  0.7465  0.7539 -0.2798
  182SOPE  H16Y20875   6.313  -0.291   8.408 -2.1710  2.1530  1.6187
  182SOPE  C31720876   6.392  -0.094   8.448 -0.4684  0.3553 -0.6659
  182SOPE  H17X20877   6.301  -0.057   8.501 -2.4962 -0.8728 -3.0439
  182SOPE  H17Y20878   6.431  -0.004   8.396  1.2979  0.2591  0.4069
  182SOPE  C31820879   6.497  -0.152   8.544  0.0938  0.4535  0.4946
  182SOPE  H18X20880   6.525  -0.086   8.630 -0.5360  0.7101  0.5132
  182SOPE  H18Y20881   6.587  -0.173   8.483  1.3312  2.4656  1.5002
  182SOPE  H18Z20882   6.452  -0.248   8.576  0.0418 -0.3933 -1.9718
  183SOPE     N20883   2.029   5.480   6.360  0.2574  0.1862  0.2596
  183SOPE   HN120884   2.000   5.480   6.460 -2.3032  2.3787 -0.3700
  183SOPE   HN220885   2.062   5.387   6.326  0.1403  0.0602  0.4931
  183SOPE   HN320886   2.110   5.544   6.347 -0.7308  1.3840 -0.1455
  183SOPE   C1220887   1.921   5.532   6.271  0.8751  0.4590 -0.3309
  183SOPE  H12A20888   1.958   5.540   6.166 -0.1535  0.4493 -0.7124
  183SOPE  H12B20889   1.901   5.636   6.304 -1.8195 -0.0949  0.0488
  183SOPE   C1120890   1.786   5.458   6.291  0.1572 -0.2729 -0.4242
  183SOPE  H11A20891   1.717   5.503   6.217  0.3783 -1.3351 -1.2953
  183SOPE  H11B20892   1.756   5.473   6.397 -0.3157  0.5346 -0.6679
  183SOPE     P20893   1.692   5.205   6.280  0.2508 -0.3318  0.0847
  183SOPE   O1320894   1.749   5.076   6.240 -0.3084  0.0696 -0.1314
  183SOPE   O1420895   1.569   5.259   6.215 -0.3832 -0.2649 -0.0303
  183SOPE   O1220896   1.806   5.317   6.264 -0.3688 -0.2386  0.2636
  183SOPE   O1120897   1.670   5.206   6.433 -0.3735 -0.9182 -0.2205
  183SOPE    C120898   1.776   5.175   6.522 -0.4810 -0.0650  1.0423
  183SOPE    HA20899   1.854   5.253   6.511 -0.0669 -0.8256 -3.4904
  183SOPE    HB20900   1.834   5.086   6.491  1.1543  0.7421  1.6566
  183SOPE    C220901   1.738   5.166   6.671  0.5020 -0.2028  0.1865
  183SOPE    HS20902   1.652   5.096   6.673  0.8500 -0.6652 -0.5710
  183SOPE   O2120903   1.704   5.303   6.716  0.2356  0.8119 -0.4913
  183SOPE   C2120904   1.636   5.298   6.831  0.5994  1.2082  0.2727
  183SOPE   O2220905   1.562   5.206   6.864  0.0494 -0.0560 -0.1049
  183SOPE   C2220906   1.666   5.412   6.917  0.1443  0.0553 -0.0982
  183SOPE   H2R20907   1.573   5.459   6.954 -0.3208 -0.6720 -0.3071
  183SOPE   H2S20908   1.718   5.492   6.860 -0.7852 -0.6572 -2.0652
  183SOPE    C320909   1.862   5.104   6.742  0.0987 -0.4990 -0.2149
  183SOPE    HX20910   1.932   5.190   6.744  0.0344 -0.4629  1.0686
  183SOPE    HY20911   1.900   5.021   6.679 -1.3219 -1.7430  0.4934
  183SOPE   O3120912   1.835   5.067   6.877 -0.3961  0.0442  0.1291
  183SOPE   C3120913   1.753   4.966   6.874  0.1364 -0.1066 -0.0128
  183SOPE   O3220914   1.735   4.885   6.781  0.2582 -0.4562  0.0008
  183SOPE   C3220915   1.679   4.965   7.009  0.2061 -0.4938 -0.0956
  183SOPE   H2X20916   1.572   4.944   6.985  0.4544 -1.2695 -0.5552
  183SOPE   H2Y20917   1.688   5.068   7.051 -1.7857  0.6444 -2.1891
  183SOPE   C2320918   1.737   5.386   7.047  0.1028  0.3516 -0.0208
  183SOPE   H3R20919   1.839   5.343   7.032 -0.0085  0.2985 -0.6507
  183SOPE   H3S20920   1.678   5.328   7.121 -2.2520  0.0192 -2.0504
  183SOPE   C2420921   1.761   5.524   7.112  0.2403  0.2427  0.3610
  183SOPE   H4R20922   1.826   5.589   7.049  1.2230 -1.2078 -0.1759
  183SOPE   H4S20923   1.661   5.571   7.125 -0.0267  0.5774 -2.2643
  183SOPE   C2520924   1.835   5.515   7.245 -0.0088 -0.2597  0.7599
  183SOPE   H5R20925   1.929   5.457   7.234 -0.3293 -0.6588  0.0617
  183SOPE   H5S20926   1.871   5.610   7.289 -0.6103 -0.4274  1.6637
  183SOPE   C2620927   1.757   5.439   7.350  0.0124 -0.3671 -0.0976
  183SOPE   H6R20928   1.647   5.450   7.337 -0.1752 -1.6350  0.2252
  183SOPE   H6S20929   1.771   5.329   7.345  2.3445 -0.0640 -1.5360
  183SOPE   C2720930   1.796   5.477   7.490 -0.2747  0.2228 -0.4068
  183SOPE   H7R20931   1.902   5.451   7.515 -0.3430  2.2330  2.4415
  183SOPE   H7S20932   1.806   5.585   7.512 -1.6282  0.4687 -0.9221
  183SOPE   C2820933   1.699   5.413   7.593  0.8057  0.5864  0.1795
  183SOPE   H8R20934   1.604   5.469   7.603 -0.0504 -1.0062  1.3071
  183SOPE   H8S20935   1.665   5.318   7.547 -1.9012  1.0591  1.0239
  183SOPE   C2920936   1.759   5.397   7.728 -0.3575 -0.0455 -0.1878
  183SOPE   H9120937   1.850   5.335   7.727  0.4592  1.1176 -0.5155
  183SOPE  C21020938   1.718   5.455   7.841  0.0046 -0.5252 -0.4172
  183SOPE  H10120939   1.758   5.415   7.936 -0.3367 -0.0137 -0.0562
  183SOPE  C21120940   1.609   5.556   7.873 -0.3412  0.6486 -0.0648
  183SOPE  H11R20941   1.533   5.540   7.793 -1.6919  0.1258  1.2949
  183SOPE  H11S20942   1.657   5.657   7.864 -0.2233  0.5017 -1.3222
  183SOPE  C21220943   1.528   5.543   8.006 -0.4505 -0.3409  0.1977
  183SOPE  H12R20944   1.471   5.447   8.004  0.4644 -1.0556  3.4385
  183SOPE  H12S20945   1.459   5.629   8.011 -1.0310 -0.6768 -1.4148
  183SOPE  C21320946   1.609   5.540   8.145  0.2588  0.5052 -0.3426
  183SOPE  H13R20947   1.694   5.468   8.139  1.6395  1.9853  0.5859
  183SOPE  H13S20948   1.539   5.505   8.224  1.9096 -3.5259 -0.4418
  183SOPE  C21420949   1.653   5.682   8.172 -0.0086  0.7410 -0.2374
  183SOPE  H14R20950   1.577   5.761   8.157  1.4230  2.2051 -0.0132
  183SOPE  H14S20951   1.736   5.709   8.104 -1.5591  1.7428 -1.8153
  183SOPE  C21520952   1.699   5.703   8.323  1.2088  0.1724  0.1907
  183SOPE  H15R20953   1.784   5.632   8.337  0.9548 -0.3972 -1.0484
  183SOPE  H15S20954   1.610   5.668   8.379  0.2269  2.3212  0.0518
  183SOPE  C21620955   1.746   5.840   8.365  0.5726 -0.8416 -1.2137
  183SOPE  H16R20956   1.664   5.910   8.338 -1.1209 -2.5468 -0.7169
  183SOPE  H16S20957   1.837   5.875   8.312 -0.1341  2.5155 -0.4430
  183SOPE  C21720958   1.745   5.869   8.514  0.1019  0.6794 -0.2762
  183SOPE  H17R20959   1.826   5.808   8.558 -1.6332  0.3601  2.7439
  183SOPE  H17S20960   1.644   5.840   8.549  0.1467 -0.7501 -1.2704
  183SOPE  C21820961   1.784   6.009   8.556 -0.4521 -0.3498 -0.0664
  183SOPE  H18R20962   1.798   6.020   8.665  1.5848 -0.1700 -0.3165
  183SOPE  H18S20963   1.693   6.068   8.531 -2.5643 -3.2783  0.1710
  183SOPE  H18T20964   1.871   6.046   8.497  0.7649 -0.2967  1.6764
  183SOPE   C3320965   1.733   4.861   7.109 -0.1445 -0.4679  0.4584
  183SOPE   H3X20966   1.844   4.870   7.102 -0.3355  1.6567 -0.5425
  183SOPE   H3Y20967   1.707   4.758   7.078 -1.8851  0.1453 -0.2379
  183SOPE   C3420968   1.682   4.863   7.255  1.1525 -0.0868  1.0217
  183SOPE   H4X20969   1.724   4.776   7.310  2.8725 -2.2415 -3.2666
  183SOPE   H4Y20970   1.575   4.836   7.269  1.5752 -1.2471  2.2750
  183SOPE   C3520971   1.721   4.997   7.316 -0.2150  0.4930 -0.0906
  183SOPE   H5X20972   1.653   5.070   7.269 -0.2842  1.7668  1.8517
  183SOPE   H5Y20973   1.828   5.027   7.313 -0.6755  2.2179 -0.3073
  183SOPE   C3620974   1.679   4.985   7.464 -0.1088 -0.1441  0.9391
  183SOPE   H6X20975   1.586   4.925   7.468 -0.2917 -0.3366 -2.8189
  183SOPE   H6Y20976   1.662   5.088   7.502  1.5704  0.3090  0.5527
  183SOPE   C3720977   1.792   4.930   7.551 -0.8042 -0.0849  0.1670
  183SOPE   H7X20978   1.857   5.017   7.576 -2.7695  1.1825  1.2022
  183SOPE   H7Y20979   1.847   4.849   7.499 -0.2357  0.5122 -0.1865
  183SOPE   C3820980   1.745   4.879   7.685 -0.1323  0.4560 -0.1696
  183SOPE   H8X20981   1.807   4.797   7.727 -0.1864  0.0396 -0.8863
  183SOPE   H8Y20982   1.639   4.848   7.672  0.1169 -0.4337 -0.1525
  183SOPE   C3920983   1.766   4.992   7.793 -0.0984  0.2160 -0.0533
  183SOPE   H9X20984   1.722   5.089   7.761  1.4507  1.4348  1.3696
  183SOPE   H9Y20985   1.876   5.006   7.797 -0.0867  0.6234 -1.4326
  183SOPE  C31020986   1.719   4.945   7.939 -0.4635 -0.4747 -0.4418
  183SOPE  H10X20987   1.614   4.910   7.931 -1.6737  2.8713 -1.0034
  183SOPE  H10Y20988   1.725   5.042   7.994  1.0931 -1.2170  0.7939
  183SOPE  C31120989   1.807   4.843   8.010 -0.0559 -0.6736 -1.1011
  183SOPE  H11X20990   1.913   4.875   8.001 -0.2431 -0.2915 -2.0272
  183SOPE  H11Y20991   1.795   4.744   7.961  2.5824 -1.5608 -0.1044
  183SOPE  C31220992   1.771   4.830   8.165 -0.5136 -1.0310 -0.1072
  183SOPE  H12X20993   1.790   4.929   8.212  0.8818 -1.5511  0.4603
  183SOPE  H12Y20994   1.852   4.768   8.208 -0.9011 -0.4845  1.4707
  183SOPE  C31320995   1.630   4.773   8.191  1.4201  0.0645 -0.4095
  183SOPE  H13X20996   1.623   4.698   8.110 -0.6274  1.3520 -1.5204
  183SOPE  H13Y20997   1.557   4.856   8.178  2.0422  0.5999 -0.5929
  183SOPE  C31420998   1.607   4.724   8.332 -0.3686 -0.1893  0.0033
  183SOPE  H14X20999   1.668   4.635   8.360  1.0847  0.5123 -0.8526
  183SOPE  H14Y21000   1.502   4.690   8.324 -0.5141 -0.1539  1.5335
  183SOPE  C31521001   1.607   4.836   8.438  0.2274  0.1127 -0.9917
  183SOPE  H15X21002   1.575   4.928   8.385 -0.5717 -0.4150 -1.4455
  183SOPE  H15Y21003   1.709   4.851   8.480  0.0944 -1.5348 -0.0027
  183SOPE  C31621004   1.506   4.799   8.552 -0.5623 -0.3311 -0.3854
  183SOPE  H16X21005   1.412   4.755   8.512 -1.0625 -2.6155  2.8460
  183SOPE  H16Y21006   1.486   4.898   8.598  0.9323  0.2472 -0.9157
  183SOPE  C31721007   1.574   4.705   8.643  0.4964  1.0297 -0.4381
  183SOPE  H17X21008   1.631   4.765   8.717 -1.2934  2.1832  0.0682
  183SOPE  H17Y21009   1.630   4.632   8.581  1.0326  0.1359  1.0305
  183SOPE  C31821010   1.472   4.619   8.725  0.2328  0.0124  0.2669
  183SOPE  H18X21011   1.393   4.565   8.668  1.7433 -2.6445  0.5485
  183SOPE  H18Y21012   1.411   4.675   8.800 -2.1519 -1.3832 -0.5330
  183SOPE  H18Z21013   1.507   4.536   8.790  0.1243  2.0234  3.0744
  184SOPE     N21014   1.550   4.591   6.530  0.4038  0.8708  0.0823
  184SOPE   HN121015   1.562   4.516   6.460 -0.2111 -0.3271  1.2184
  184SOPE   HN221016   1.563   4.557   6.628  0.1670 -0.3653 -0.3014
  184SOPE   HN321017   1.455   4.634   6.529  0.9466  2.3350  2.5380
  184SOPE   C1221018   1.630   4.715   6.500 -0.4101 -0.1510  0.0054
  184SOPE  H12A21019   1.736   4.692   6.476 -0.1020  0.7717  0.4529
  184SOPE  H12B21020   1.621   4.775   6.593  0.9696  0.6413 -0.3349
  184SOPE   C1121021   1.558   4.800   6.392 -0.4542 -0.4244  0.1113
  184SOPE  H11A21022   1.578   4.751   6.294 -0.7698 -0.3434  0.0062
  184SOPE  H11B21023   1.603   4.901   6.381  1.3319 -1.1769  0.1796
  184SOPE     P21024   1.328   4.928   6.407  0.2795 -0.0473 -0.1320
  184SOPE   O1321025   1.192   4.890   6.448 -0.2928  0.6015 -0.2339
  184SOPE   O1421026   1.351   4.996   6.283 -0.2280  0.3700  0.3850
  184SOPE   O1221027   1.425   4.803   6.417  0.6041  0.3751 -0.0439
  184SOPE   O1121028   1.391   5.024   6.523 -0.1563  0.3014 -0.6972
  184SOPE    C121029   1.394   4.973   6.656 -0.5828  0.0790  0.0027
  184SOPE    HA21030   1.480   5.015   6.714 -0.3664  0.6830 -0.7400
  184SOPE    HB21031   1.408   4.864   6.670 -0.8160  0.0486 -0.0001
  184SOPE    C221032   1.263   5.012   6.743 -0.0603  0.1215 -0.7914
  184SOPE    HS21033   1.178   4.951   6.707 -0.4933  0.4707 -0.3650
  184SOPE   O2121034   1.248   5.152   6.734 -0.3291  0.4058  0.0128
  184SOPE   C2121035   1.140   5.201   6.793 -0.5310 -0.1874 -0.0560
  184SOPE   O2221036   1.047   5.134   6.835  0.7835 -0.0414  0.3134
  184SOPE   C2221037   1.145   5.349   6.813  0.2554 -0.1923 -0.1462
  184SOPE   H2R21038   1.041   5.386   6.826 -0.1809 -0.2243 -2.9423
  184SOPE   H2S21039   1.185   5.386   6.717 -0.8858  1.5904  0.0244
  184SOPE    C321040   1.290   4.976   6.892 -0.1744 -0.8035  0.1981
  184SOPE    HX21041   1.194   5.001   6.943  0.9420 -1.2075  2.6149
  184SOPE    HY21042   1.366   5.051   6.922  0.0002  0.3733 -2.7815
  184SOPE   O3121043   1.335   4.842   6.911  0.3279  0.1732  0.7576
  184SOPE   C3121044   1.235   4.747   6.907 -1.1305  0.3469 -0.2395
  184SOPE   O3221045   1.122   4.775   6.878 -0.2747  0.0942 -0.0678
  184SOPE   C3221046   1.289   4.609   6.932  0.4649 -0.0684  0.7574
  184SOPE   H2X21047   1.400   4.610   6.933  0.4745  0.3273  2.0720
  184SOPE   H2Y21048   1.261   4.530   6.859 -0.9737 -0.3003  1.5141
  184SOPE   C2321049   1.253   5.374   6.920 -0.1399  0.6451 -0.0039
  184SOPE   H3R21050   1.277   5.482   6.912  0.2801  0.7080  1.6926
  184SOPE   H3S21051   1.350   5.327   6.894 -1.1183 -1.1465 -0.5816
  184SOPE   C2421052   1.203   5.337   7.061 -0.1155 -0.1511  0.2170
  184SOPE   H4R21053   1.097   5.369   7.075 -0.0118  0.1558  0.3126
  184SOPE   H4S21054   1.189   5.227   7.052 -0.2833 -0.1143  0.0295
  184SOPE   C2521055   1.303   5.381   7.172  0.0043  0.1750  0.6167
  184SOPE   H5R21056   1.394   5.336   7.126 -1.3057 -0.4175 -1.5646
  184SOPE   H5S21057   1.302   5.492   7.179 -1.6115  0.0822  3.0691
  184SOPE   C2621058   1.285   5.312   7.309 -0.1733  0.0736  0.3790
  184SOPE   H6R21059   1.189   5.349   7.352  0.7889  1.3436  1.5379
  184SOPE   H6S21060   1.289   5.201   7.301  1.0095 -0.1565  3.0104
  184SOPE   C2721061   1.387   5.352   7.411 -0.5972  0.4170 -0.1401
  184SOPE   H7R21062   1.489   5.317   7.382 -1.5774 -2.5306 -0.3360
  184SOPE   H7S21063   1.390   5.462   7.428  1.3752  0.7425 -2.0936
  184SOPE   C2821064   1.346   5.316   7.550  0.5710  0.5767 -0.8443
  184SOPE   H8R21065   1.422   5.361   7.617  0.2879 -0.1370 -0.0284
  184SOPE   H8S21066   1.252   5.373   7.568  0.4952 -0.2871  1.8727
  184SOPE   C2921067   1.344   5.167   7.571 -0.3821  0.0439 -0.5545
  184SOPE   H9121068   1.303   5.116   7.483  0.7918 -0.8672 -0.6003
  184SOPE  C21021069   1.378   5.094   7.678  0.4066 -0.3194  0.1980
  184SOPE  H10121070   1.369   4.985   7.686 -0.4290 -0.4163 -1.5603
  184SOPE  C21121071   1.423   5.153   7.806 -0.2554  0.3030  0.3073
  184SOPE  H11R21072   1.414   5.263   7.814 -1.1644  0.1851  1.1295
  184SOPE  H11S21073   1.531   5.134   7.824  0.5457  1.4198 -2.7741
  184SOPE  C21221074   1.338   5.096   7.926  0.0477  0.0559  0.5487
  184SOPE  H12R21075   1.338   4.985   7.924  1.5175  0.0068  1.5656
  184SOPE  H12S21076   1.234   5.133   7.914  0.2768  0.4099 -0.4283
  184SOPE  C21321077   1.404   5.136   8.065 -0.1873  0.1964  0.3326
  184SOPE  H13R21078   1.431   5.244   8.063 -2.0729  0.7037  0.4224
  184SOPE  H13S21079   1.495   5.079   8.092  0.4060  0.7117 -0.5132
  184SOPE  C21421080   1.309   5.114   8.180 -0.2550  0.0361  0.2797
  184SOPE  H14R21081   1.279   5.007   8.187 -2.1443  0.5167 -0.0281
  184SOPE  H14S21082   1.211   5.163   8.161 -1.4890 -1.9409  1.1941
  184SOPE  C21521083   1.373   5.152   8.316  0.1679 -0.3365 -0.1654
  184SOPE  H15R21084   1.408   5.257   8.303  2.2552 -0.9483  0.1508
  184SOPE  H15S21085   1.466   5.091   8.320 -0.4011 -1.2487 -0.7655
  184SOPE  C21621086   1.285   5.133   8.439  0.7439 -0.3063  0.6844
  184SOPE  H16R21087   1.254   5.027   8.448 -0.9782 -0.0241 -1.3160
  184SOPE  H16S21088   1.190   5.190   8.432  0.8393 -0.1744  0.4687
  184SOPE  C21721089   1.363   5.179   8.564  0.5143  0.4356 -0.5321
  184SOPE  H17R21090   1.385   5.287   8.550  0.8578  0.9515  3.0446
  184SOPE  H17S21091   1.461   5.128   8.560 -0.5736 -1.8518  0.2205
  184SOPE  C21821092   1.283   5.148   8.689 -0.7546  0.0311 -0.0364
  184SOPE  H18R21093   1.246   5.044   8.680 -0.1190 -0.2425  0.4501
  184SOPE  H18S21094   1.202   5.223   8.703 -0.1864  0.2028  3.1245
  184SOPE  H18T21095   1.351   5.155   8.777  0.6633  2.3934 -1.2186
  184SOPE   C3321096   1.247   4.550   7.074 -0.1569  0.4977 -0.0099
  184SOPE   H3X21097   1.264   4.441   7.078 -1.0981  0.2927 -1.1536
  184SOPE   H3Y21098   1.136   4.561   7.082 -0.2213 -0.2640  0.2571
  184SOPE   C3421099   1.311   4.626   7.190 -0.0493  0.2757  1.1564
  184SOPE   H4X21100   1.319   4.736   7.172 -2.2046  0.2971 -0.0743
  184SOPE   H4Y21101   1.416   4.589   7.193  0.7420  2.4271  2.3345
  184SOPE   C3521102   1.237   4.598   7.314 -0.3133 -0.5859 -0.6413
  184SOPE   H5X21103   1.231   4.490   7.337  2.9571 -0.7054  0.1251
  184SOPE   H5Y21104   1.131   4.633   7.316  0.1793  0.9485  0.3971
  184SOPE   C3621105   1.311   4.673   7.430 -0.1642  0.7226 -0.5987
  184SOPE   H6X21106   1.298   4.780   7.406  1.3209  0.4880 -2.8561
  184SOPE   H6Y21107   1.420   4.653   7.421 -0.6080 -2.1967 -0.5259
  184SOPE   C3721108   1.258   4.649   7.574  0.2089  0.4398 -0.1892
  184SOPE   H7X21109   1.234   4.543   7.594  0.8782  0.4359  0.6517
  184SOPE   H7Y21110   1.171   4.718   7.580  1.6407  2.6329 -2.5202
  184SOPE   C3821111   1.354   4.707   7.677 -0.9083 -0.1846 -0.1267
  184SOPE   H8X21112   1.386   4.800   7.626  2.3495 -1.8210 -1.3227
  184SOPE   H8Y21113   1.446   4.646   7.672  1.8733  3.7518 -2.0663
  184SOPE   C3921114   1.298   4.726   7.817 -0.2516 -0.1725 -0.3810
  184SOPE   H9X21115   1.229   4.812   7.806 -1.7569 -1.5142 -1.9409
  184SOPE   H9Y21116   1.379   4.755   7.888 -0.1096 -0.4023 -0.4464
  184SOPE  C31021117   1.236   4.596   7.880 -0.4437  0.1912 -0.6258
  184SOPE  H10X21118   1.332   4.544   7.898 -2.4232 -3.2257  1.0477
  184SOPE  H10Y21119   1.175   4.539   7.806 -0.7278 -0.3707  0.0282
  184SOPE  C31121120   1.162   4.613   8.008 -0.0570  0.2806  0.3195
  184SOPE  H11X21121   1.119   4.517   8.042  0.2937 -0.9488 -2.3926
  184SOPE  H11Y21122   1.091   4.694   7.980  1.1706  1.4129  0.3539
  184SOPE  C31221123   1.248   4.689   8.111  1.4235  0.0572 -0.4097
  184SOPE  H12X21124   1.269   4.795   8.084 -0.1447  0.5940  0.3846
  184SOPE  H12Y21125   1.344   4.634   8.125  1.0178 -0.1657  1.9227
  184SOPE  C31321126   1.188   4.681   8.256  0.2799  0.5033 -0.4008
  184SOPE  H13X21127   1.092   4.734   8.271 -0.8434 -1.6939  0.6560
  184SOPE  H13Y21128   1.268   4.726   8.319 -0.5381 -0.6155  1.5261
  184SOPE  C31421129   1.177   4.534   8.307 -0.5794 -0.2577 -0.1841
  184SOPE  H14X21130   1.278   4.491   8.288 -0.1054  0.9576 -0.4752
  184SOPE  H14Y21131   1.104   4.483   8.240  1.1408 -0.8396 -1.6981
  184SOPE  C31521132   1.140   4.509   8.455  0.0860 -0.1549  0.5537
  184SOPE  H15X21133   1.031   4.525   8.465 -0.4886 -2.3785 -1.2238
  184SOPE  H15Y21134   1.183   4.589   8.519 -0.4423 -0.2582  1.0430
  184SOPE  C31621135   1.185   4.382   8.507 -0.3433  0.1388 -0.7215
  184SOPE  H16X21136   1.149   4.393   8.612  0.1861  2.0152 -0.6887
  184SOPE  H16Y21137   1.295   4.384   8.489  0.0467 -0.2154  1.3856
  184SOPE  C31721138   1.115   4.261   8.442  0.8800  0.0615 -0.0388
  184SOPE  H17X21139   1.158   4.172   8.492 -2.0363 -1.2155  0.3767
  184SOPE  H17Y21140   1.133   4.268   8.332  0.0277 -1.6791 -0.3135
  184SOPE  C31821141   0.968   4.242   8.451  0.3367  0.6745 -0.2140
  184SOPE  H18X21142   0.928   4.237   8.555 -0.3104 -0.2693 -0.4985
  184SOPE  H18Y21143   0.937   4.145   8.407  0.4759 -0.7012  2.4820
  184SOPE  H18Z21144   0.927   4.324   8.389  0.2035 -0.0915 -1.1659
  185SAPI   C1221145   5.318   2.038  11.271 -1.0102  0.6086  0.6075
  185SAPI    H221146   5.222   1.994  11.239 -2.0095  1.9432  1.6603
  185SAPI    O221147   5.359   2.158  11.204 -0.1044 -0.6329 -0.1299
  185SAPI   HO221148   5.405   2.138  11.123  1.1474  0.5475  0.2582
  185SAPI   C1321149   5.305   2.053  11.419  0.3928 -0.5265  0.0737
  185SAPI    H321150   5.290   1.955  11.470  2.5453  0.3967  2.7286
  185SAPI    O321151   5.192   2.141  11.451  0.3901 -0.3969 -0.5771
  185SAPI   HO321152   5.154   2.192  11.379  0.3661 -0.6214 -0.7218
  185SAPI   C1421153   5.431   2.108  11.481 -0.3059  0.4471  0.6592
  185SAPI    H421154   5.477   2.199  11.437  2.1827 -0.3020  1.5248
  185SAPI    O421155   5.405   2.125  11.617 -0.4453 -0.1880  0.3171
  185SAPI   HO421156   5.441   2.210  11.642  0.5262 -0.5974  0.3357
  185SAPI   C1521157   5.541   2.003  11.456 -0.3398  0.8131  0.1006
  185SAPI    H521158   5.502   1.906  11.493 -0.2513 -0.3055 -2.4823
  185SAPI    O521159   5.671   2.042  11.510  0.4130 -0.2316  0.5236
  185SAPI   HO521160   5.644   2.058  11.601  0.6339  1.5936  0.3227
  185SAPI   C1621161   5.557   1.973  11.304  0.0684  0.0760 -0.0280
  185SAPI    H621162   5.600   2.061  11.252  0.2419 -0.6495 -1.1389
  185SAPI    O621163   5.638   1.864  11.280 -0.3357 -0.4592  0.0138
  185SAPI   HO621164   5.682   1.889  11.199 -1.9456  0.5861 -0.5842
  185SAPI   C1121165   5.431   1.934  11.249  0.0681  0.1539  0.5009
  185SAPI    H121166   5.385   1.847  11.302  0.3133 -1.6056 -1.9891
  185SAPI     P21167   5.423   1.769  11.029  0.0051 -0.2639  0.0490
  185SAPI   O1321168   5.375   1.661  11.117  0.0253  0.2138 -0.2844
  185SAPI   O1421169   5.545   1.741  10.950 -0.3121 -0.0680 -0.2990
  185SAPI   O1221170   5.437   1.909  11.108 -0.0731 -0.0809  0.9425
  185SAPI   O1121171   5.298   1.797  10.931 -0.0993  0.2764  0.7047
  185SAPI    C121172   5.291   1.916  10.844  0.0058 -0.5447 -1.0587
  185SAPI    HA21173   5.203   1.980  10.867  1.6497  2.3205 -2.2083
  185SAPI    HB21174   5.386   1.972  10.855  1.1505 -2.9043  3.0647
  185SAPI    C221175   5.287   1.877  10.690 -0.0401 -0.1898  0.4777
  185SAPI    HS21176   5.183   1.845  10.666 -0.0385  0.1867 -0.0442
  185SAPI   O2121177   5.386   1.769  10.661 -0.0442  0.1467 -0.1942
  185SAPI   C2121178   5.330   1.649  10.642 -0.3885  0.2688 -0.6249
  185SAPI   O2221179   5.214   1.623  10.660  0.1430  0.1504 -0.0736
  185SAPI   C2221180   5.434   1.553  10.591 -0.4985 -0.3893 -0.0647
  185SAPI   H2R21181   5.464   1.569  10.486 -1.0363 -1.7838 -0.4525
  185SAPI   H2S21182   5.517   1.567  10.665  0.7452 -3.0718 -0.8474
  185SAPI    C321183   5.306   2.000  10.603 -0.5081 -1.1209  0.5169
  185SAPI    HX21184   5.385   2.068  10.642  1.5379 -2.0807 -1.6488
  185SAPI    HY21185   5.210   2.057  10.599  0.1105 -0.0711  0.1639
  185SAPI   O3121186   5.361   1.965  10.470  0.4733  0.0917 -0.0265
  185SAPI   C3121187   5.271   1.915  10.389  0.6496 -0.0177  0.1625
  185SAPI   O3221188   5.151   1.902  10.413 -0.1212  0.1845  0.6940
  185SAPI   C3221189   5.336   1.849  10.270 -1.1500 -0.5193 -0.2084
  185SAPI   H2X21190   5.273   1.864  10.179 -2.8994  3.6606  1.4599
  185SAPI   H2Y21191   5.330   1.739  10.287 -0.8183 -0.8931 -2.1960
  185SAPI   C2321192   5.388   1.407  10.592  0.2914 -0.3758 -0.0144
  185SAPI   H3R21193   5.291   1.397  10.644  0.5264 -0.6655  0.3729
  185SAPI   H3S21194   5.464   1.353  10.652 -1.6865 -0.5379  2.4876
  185SAPI   C2421195   5.376   1.324  10.458 -0.3726  0.3334 -0.6673
  185SAPI   H4R21196   5.393   1.218  10.487  0.6374  0.9011  0.9644
  185SAPI   H4S21197   5.458   1.346  10.386  2.8378 -3.5936  1.4394
  185SAPI   C2521198   5.244   1.344  10.388 -0.3152 -0.7075  0.1148
  185SAPI   H5R21199   5.159   1.326  10.454  0.1233 -0.2438  0.8261
  185SAPI   C2621200   5.226   1.401  10.271  0.6719 -0.3125  0.3345
  185SAPI   H6R21201   5.127   1.399  10.223  1.5136 -0.1943 -1.5101
  185SAPI   C2721202   5.335   1.440  10.171 -0.0091  0.7071  0.4025
  185SAPI   H7R21203   5.389   1.345  10.152  1.3770  1.2648  1.3782
  185SAPI   H7S21204   5.414   1.497  10.224  2.1881 -0.1881 -1.7561
  185SAPI   C2821205   5.285   1.506  10.046 -0.2228  1.2649 -0.5112
  185SAPI   H8R21206   5.290   1.616  10.046 -1.1585  1.3177  0.2264
  185SAPI   C2921207   5.263   1.446   9.925 -0.7718 -0.4902  0.5422
  185SAPI   H9R21208   5.213   1.508   9.849 -3.8123 -2.1718  1.0482
  185SAPI  C21021209   5.288   1.302   9.885  0.3586  0.0069  0.2136
  185SAPI  H10R21210   5.182   1.269   9.883  0.1633  0.5482 -2.2968
  185SAPI  H10S21211   5.333   1.245   9.968 -0.5509 -1.8987 -0.5379
  185SAPI  C21121212   5.352   1.278   9.753 -1.0301  0.4221 -0.2042
  185SAPI  H11R21213   5.461   1.272   9.766 -1.1997 -1.1467  0.7434
  185SAPI  C21221214   5.290   1.262   9.635 -0.1555  0.2011 -0.1845
  185SAPI  H12R21215   5.358   1.244   9.550  0.9413  1.2222  0.4423
  185SAPI  C21321216   5.144   1.275   9.602 -0.1445 -0.6630  0.3628
  185SAPI  H13R21217   5.143   1.375   9.554  1.2910 -0.9136 -0.2337
  185SAPI  H13S21218   5.077   1.270   9.690  0.6726 -2.4023  0.9161
  185SAPI  C21421219   5.123   1.158   9.511 -0.1212  0.3402  0.7140
  185SAPI  H14R21220   5.108   1.067   9.571 -1.2007  0.8690  1.2766
  185SAPI  C21521221   5.117   1.158   9.380  0.3761 -0.3371 -0.2723
  185SAPI  H15R21222   5.096   1.069   9.319  2.0886 -1.4928  0.7375
  185SAPI  C21621223   5.128   1.283   9.293 -0.4841  0.6619  0.7537
  185SAPI  H16R21224   5.075   1.368   9.342 -1.0745  1.0921 -0.5940
  185SAPI  H16S21225   5.058   1.257   9.211 -1.6800 -0.6155  2.1285
  185SAPI  C21721226   5.261   1.314   9.221  1.0724  0.2942 -0.5613
  185SAPI  H17R21227   5.340   1.313   9.299  1.2912 -0.0312 -0.7824
  185SAPI  H17S21228   5.257   1.416   9.175 -0.0996 -0.3406 -1.9598
  185SAPI  C21821229   5.299   1.223   9.112 -0.1094  0.4413  0.7078
  185SAPI  H18R21230   5.261   1.124   9.147 -2.0310 -0.1968 -2.7832
  185SAPI  H18S21231   5.407   1.208   9.091 -0.3230 -0.2162  0.0167
  185SAPI  C21921232   5.229   1.244   8.974 -0.1650 -0.0066 -0.0351
  185SAPI  H19R21233   5.272   1.333   8.924  0.3857 -0.1520  0.1758
  185SAPI  H19S21234   5.122   1.268   8.994 -0.2548  0.0783 -0.6193
  185SAPI  C22021235   5.235   1.118   8.886  0.5032  0.2593 -0.0010
  185SAPI  H20R21236   5.339   1.078   8.885  0.8335  1.0870  0.4862
  185SAPI  H20S21237   5.201   1.134   8.781 -0.0412 -2.3532 -0.2947
  185SAPI  H20T21238   5.173   1.039   8.933 -0.0851  0.8276  0.2066
  185SAPI   C3321239   5.489   1.888  10.247  0.5695  0.0700  0.0705
  185SAPI   H3X21240   5.543   1.848  10.336 -0.2905  1.7324  1.3760
  185SAPI   H3Y21241   5.485   1.998  10.243 -1.3766  0.1351  2.2111
  185SAPI   C3421242   5.541   1.831  10.113 -0.8297 -0.6609 -0.4101
  185SAPI   H4X21243   5.522   1.722  10.103  1.4568 -1.2806  1.1964
  185SAPI   H4Y21244   5.651   1.847  10.119 -1.0636  0.7129  0.7632
  185SAPI   C3521245   5.479   1.880   9.987  0.0119  0.3467  0.3589
  185SAPI   H5X21246   5.488   1.988   9.964 -1.0361 -0.0699 -2.5679
  185SAPI   H5Y21247   5.370   1.860   9.992  0.4945 -2.4052  1.3386
  185SAPI   C3621248   5.529   1.796   9.873  0.5193 -0.0952 -0.6215
  185SAPI   H6X21249   5.493   1.692   9.886 -3.0840  1.2175  1.4331
  185SAPI   H6Y21250   5.639   1.793   9.886  0.6315  0.5934 -1.3210
  185SAPI   C3721251   5.485   1.838   9.734  1.0311 -0.4185 -0.0843
  185SAPI   H7X21252   5.566   1.821   9.661  2.2918  0.5516  1.0479
  185SAPI   H7Y21253   5.474   1.949   9.736  2.1555 -0.3046  0.1033
  185SAPI   C3821254   5.352   1.787   9.674 -0.5350  0.0830 -0.4479
  185SAPI   H8X21255   5.268   1.822   9.738 -0.8440  0.8501 -1.2510
  185SAPI   H8Y21256   5.358   1.677   9.693  1.4855  0.1792 -0.3476
  185SAPI   C3921257   5.329   1.821   9.532 -0.0095 -0.3623 -0.5039
  185SAPI   H9X21258   5.418   1.779   9.480  0.9442  0.0904  0.7102
  185SAPI   H9Y21259   5.317   1.927   9.502 -2.6750 -0.8070 -1.2517
  185SAPI  C31021260   5.189   1.760   9.497 -0.5817  0.1145  0.3831
  185SAPI  H10X21261   5.112   1.809   9.560  0.5852  0.6450  1.4289
  185SAPI  H10Y21262   5.194   1.653   9.528  1.2420 -0.4910 -1.7491
  185SAPI  C31121263   5.164   1.781   9.346 -0.5736 -0.4143 -0.4655
  185SAPI  H11X21264   5.139   1.887   9.326  0.6546 -0.0865 -0.3368
  185SAPI  H11Y21265   5.070   1.723   9.333 -0.6937 -0.5204  0.7729
  185SAPI  C31221266   5.270   1.732   9.255 -1.1200  0.1303  0.5283
  185SAPI  H12X21267   5.294   1.629   9.288  0.3041  0.6945  1.3819
  185SAPI  H12Y21268   5.360   1.793   9.278 -0.4958 -0.6236  0.1200
  185SAPI  C31321269   5.242   1.757   9.111  0.2634  0.7285 -0.1062
  185SAPI  H13X21270   5.331   1.730   9.051 -0.8954 -1.4468 -0.9826
  185SAPI  H13Y21271   5.220   1.865   9.096  0.0884  0.5003 -1.5983
  185SAPI  C31421272   5.132   1.660   9.058 -0.0555  0.0432 -0.2443
  185SAPI  H14X21273   5.138   1.566   9.117  1.4161  0.8126  0.8944
  185SAPI  H14Y21274   5.161   1.633   8.954 -1.1091 -0.7259 -0.3473
  185SAPI  C31521275   4.992   1.721   9.068 -0.0319  0.3428 -0.4109
  185SAPI  H15X21276   4.981   1.830   9.047 -0.8514 -0.2080 -3.2611
  185SAPI  H15Y21277   4.939   1.707   9.164  0.8727 -0.5878 -0.0266
  185SAPI  C31621278   4.904   1.680   8.945 -0.3776 -0.5736 -0.5085
  185SAPI  H16X21279   4.962   1.680   8.850  0.3642 -2.5019 -0.0929
  185SAPI  H16Y21280   4.816   1.744   8.920  0.8074  1.3457 -0.0149
  185SAPI  C31721281   4.848   1.542   8.951 -0.2556  0.1063  0.5352
  185SAPI  H17X21282   4.782   1.529   9.039 -0.7234 -0.2735  0.1307
  185SAPI  H17Y21283   4.936   1.476   8.963  0.3159  0.5484 -0.9554
  185SAPI  C31821284   4.761   1.496   8.837  0.1124  0.3742 -0.4269
  185SAPI  H18X21285   4.674   1.565   8.834 -0.3244 -0.1936 -1.5172
  185SAPI  H18Y21286   4.721   1.393   8.836  1.7007 -0.2767 -1.8353
  185SAPI  H18Z21287   4.806   1.515   8.737 -2.1344  0.6721 -1.4370
  186SAPI   C1221288   6.438   5.367  10.806 -0.4231 -0.3863 -0.4070
  186SAPI    H221289   6.524   5.367  10.735 -2.8193 -1.8365 -3.5468
  186SAPI    O221290   6.327   5.381  10.717 -0.0039 -0.0656 -0.5433
  186SAPI   HO221291   6.314   5.301  10.666  0.3716 -0.7105  0.3543
  186SAPI   C1321292   6.443   5.228  10.857  0.2669  0.7115 -0.2383
  186SAPI    H321293   6.528   5.202  10.924 -1.6561 -0.8145  1.7834
  186SAPI    O321294   6.458   5.125  10.756 -0.1932 -0.7253  0.1087
  186SAPI   HO321295   6.378   5.073  10.763  0.1232 -1.2907 -0.3775
  186SAPI   C1421296   6.314   5.204  10.941 -0.1141 -0.2101 -0.5928
  186SAPI    H421297   6.223   5.208  10.876 -2.3425  1.1527  2.3949
  186SAPI    O421298   6.312   5.074  10.998 -0.0538  0.4402 -0.2671
  186SAPI   HO421299   6.265   5.020  10.935  0.0198  2.2020 -1.9074
  186SAPI   C1521300   6.311   5.307  11.058  0.4841  0.2868  0.0651
  186SAPI    H521301   6.402   5.288  11.118  0.2876 -1.4712 -0.1445
  186SAPI    O521302   6.202   5.291  11.150 -0.2207 -0.0271 -0.3397
  186SAPI   HO521303   6.238   5.274  11.237 -0.8815  2.9363  0.6169
  186SAPI   C1621304   6.324   5.449  11.011  0.2130 -0.2159  0.1407
  186SAPI    H621305   6.231   5.487  10.963  0.5738 -0.5158 -0.8294
  186SAPI    O621306   6.340   5.537  11.127 -0.2965 -0.7803  0.2261
  186SAPI   HO621307   6.397   5.608  11.096  0.3810 -0.9847  0.9832
  186SAPI   C1121308   6.449   5.469  10.920 -0.2623  0.2978 -0.0306
  186SAPI    H121309   6.533   5.449  10.990  0.5174  0.9682 -0.7539
  186SAPI     P21310   6.602   5.675  10.834  0.0756  0.1176 -0.0839
  186SAPI   O1321311   6.713   5.625  10.920 -0.9825  0.3671 -0.5187
  186SAPI   O1421312   6.571   5.823  10.817 -0.4861  0.0455  0.2567
  186SAPI   O1221313   6.464   5.605  10.882 -0.0752 -0.1336  0.1290
  186SAPI   O1121314   6.612   5.605  10.690 -0.8974 -0.3851  0.7259
  186SAPI    C121315   6.731   5.607  10.617  0.3718 -0.1900 -0.0938
  186SAPI    HA21316   6.822   5.584  10.676  0.3794 -1.9282 -0.7085
  186SAPI    HB21317   6.722   5.525  10.542 -0.5809 -1.2836  1.1715
  186SAPI    C221318   6.751   5.747  10.544  0.7930 -0.2364  0.4901
  186SAPI    HS21319   6.815   5.808  10.611  0.8193  0.1288  0.1373
  186SAPI   O2121320   6.623   5.809  10.512 -0.3105 -0.2673 -0.1035
  186SAPI   C2121321   6.619   5.940  10.512 -0.0570 -0.0487  0.2982
  186SAPI   O2221322   6.703   6.017  10.560  0.1381 -0.0774  0.0093
  186SAPI   C2221323   6.492   5.983  10.449 -0.8240 -0.0752  0.0653
  186SAPI   H2R21324   6.410   5.908  10.453  0.7462 -1.8340  2.7070
  186SAPI   H2S21325   6.458   6.069  10.512 -0.0746 -1.1618  2.0601
  186SAPI    C321326   6.838   5.723  10.411  0.2774 -0.2590  0.0667
  186SAPI    HX21327   6.821   5.620  10.373  1.8650 -0.1126 -1.1026
  186SAPI    HY21328   6.942   5.741  10.443  0.0024 -0.2439  0.9772
  186SAPI   O3121329   6.797   5.817  10.301 -0.4878 -0.1297  0.2345
  186SAPI   C3121330   6.890   5.822  10.207 -0.0680  0.6880  0.8963
  186SAPI   O3221331   6.975   5.733  10.190 -0.4115 -0.1389  0.2506
  186SAPI   C3221332   6.879   5.943  10.124  0.0093 -0.2892 -0.2252
  186SAPI   H2X21333   6.966   5.998  10.165  0.0943 -0.4393 -0.2042
  186SAPI   H2Y21334   6.785   5.999  10.145 -0.6303 -1.9718  1.7274
  186SAPI   C2321335   6.525   6.019  10.298 -0.6679  0.2691 -0.2113
  186SAPI   H3R21336   6.554   5.928  10.241  0.8774 -0.0199  0.9765
  186SAPI   H3S21337   6.612   6.089  10.299  1.1211 -1.7621  2.6318
  186SAPI   C2421338   6.412   6.095  10.234 -0.1950  0.1403 -0.5229
  186SAPI   H4R21339   6.446   6.120  10.130  0.3999 -2.3676 -1.0002
  186SAPI   H4S21340   6.383   6.186  10.291  3.5965  0.1133  1.8367
  186SAPI   C2521341   6.289   6.005  10.211 -0.0941  0.8697  0.0969
  186SAPI   H5R21342   6.198   6.023  10.271  0.0487  0.1397  0.5490
  186SAPI   C2621343   6.284   5.916  10.106  0.1645  0.1540 -0.2496
  186SAPI   H6R21344   6.194   5.853  10.097  0.3288  0.1208 -1.8858
  186SAPI   C2721345   6.390   5.881  10.006  1.0120  0.9152 -0.0893
  186SAPI   H7R21346   6.477   5.950  10.002  1.2522  0.5880 -0.6646
  186SAPI   H7S21347   6.344   5.892   9.905 -0.4139  2.0163  0.6420
  186SAPI   C2821348   6.447   5.745  10.031  0.4518 -0.4731 -0.6082
  186SAPI   H8R21349   6.496   5.747  10.130  0.3939 -1.6450 -0.5407
  186SAPI   C2921350   6.442   5.634   9.956 -0.4464 -0.2422 -0.3158
  186SAPI   H9R21351   6.492   5.546   9.997  1.0571 -0.1429 -1.8180
  186SAPI  C21021352   6.372   5.619   9.831  0.6163  0.4330 -0.7490
  186SAPI  H10R21353   6.414   5.682   9.749  0.1039  1.1272 -0.4927
  186SAPI  H10S21354   6.273   5.661   9.859  0.5537 -0.6939  0.8151
  186SAPI  C21121355   6.357   5.472   9.785 -1.4564 -0.6175 -0.2331
  186SAPI  H11R21356   6.344   5.411   9.876 -1.6826 -0.0870  0.0968
  186SAPI  C21221357   6.377   5.418   9.669 -0.4787 -0.4814  0.2578
  186SAPI  H12R21358   6.372   5.308   9.660 -2.1509 -0.3052 -1.7243
  186SAPI  C21321359   6.413   5.480   9.540  0.0893  0.5751  0.0991
  186SAPI  H13R21360   6.420   5.590   9.554 -0.1913  0.6201 -0.1114
  186SAPI  H13S21361   6.334   5.446   9.471  0.6307 -0.0625 -0.2225
  186SAPI  C21421362   6.537   5.436   9.473 -0.9129 -0.3934 -0.0239
  186SAPI  H14R21363   6.607   5.378   9.535 -1.5459 -1.9461 -0.7100
  186SAPI  C21521364   6.568   5.455   9.343 -0.5072 -0.6178  1.2151
  186SAPI  H15R21365   6.667   5.425   9.305  0.0008  0.4010  1.6957
  186SAPI  C21621366   6.487   5.530   9.241  0.5739 -0.5860  0.1768
  186SAPI  H16R21367   6.557   5.604   9.195 -0.1875 -0.4531 -0.7848
  186SAPI  H16S21368   6.397   5.583   9.280  0.1876  1.4589 -3.0876
  186SAPI  C21721369   6.431   5.442   9.128 -0.9676  0.2780  0.7293
  186SAPI  H17R21370   6.361   5.364   9.166 -1.7717 -1.4087 -3.6560
  186SAPI  H17S21371   6.518   5.386   9.088 -0.4405  0.4294  1.6101
  186SAPI  C21821372   6.376   5.524   9.010 -0.0066  0.1828 -0.5046
  186SAPI  H18R21373   6.437   5.614   8.990 -1.4801  0.9028 -2.0264
  186SAPI  H18S21374   6.276   5.561   9.040 -0.9569 -2.3786 -0.2243
  186SAPI  C21921375   6.365   5.445   8.872 -0.4260 -0.3411  0.1457
  186SAPI  H19R21376   6.315   5.346   8.879  0.4521 -0.7826  0.4385
  186SAPI  H19S21377   6.471   5.416   8.852 -1.4890 -3.3166 -1.9781
  186SAPI  C22021378   6.296   5.519   8.758  0.0486 -0.2960  0.0568
  186SAPI  H20R21379   6.368   5.584   8.705  0.1270 -0.0232  0.4946
  186SAPI  H20S21380   6.200   5.564   8.790 -0.0033 -0.5714  0.2935
  186SAPI  H20T21381   6.262   5.439   8.688 -2.2398 -0.7681  1.5665
  186SAPI   C3321382   6.904   5.924   9.972  0.0342 -0.1434 -0.5977
  186SAPI   H3X21383   7.000   5.869   9.960 -0.5955 -1.5576  0.4657
  186SAPI   H3Y21384   6.940   6.021   9.932  1.2009 -1.0745 -1.9127
  186SAPI   C3421385   6.785   5.875   9.887 -0.1289  0.2190  0.4528
  186SAPI   H4X21386   6.700   5.947   9.891 -0.5894 -0.0361 -2.2984
  186SAPI   H4Y21387   6.760   5.769   9.911  2.3018 -0.8747 -1.3901
  186SAPI   C3521388   6.807   5.870   9.734 -0.1670 -0.2591  0.3926
  186SAPI   H5X21389   6.906   5.825   9.710 -0.6438 -0.3787 -1.5460
  186SAPI   H5Y21390   6.823   5.975   9.701 -0.7967  0.3033  1.8052
  186SAPI   C3621391   6.690   5.806   9.654 -0.0012 -0.1223  0.6981
  186SAPI   H6X21392   6.598   5.846   9.702  0.3467  3.6249 -1.3844
  186SAPI   H6Y21393   6.695   5.696   9.662  0.3160 -0.1541  0.1426
  186SAPI   C3721394   6.699   5.829   9.501 -0.8895  0.1122 -0.1597
  186SAPI   H7X21395   6.629   5.757   9.454 -1.2360  0.0923  0.3818
  186SAPI   H7Y21396   6.799   5.810   9.457 -0.4585  2.3105 -0.2553
  186SAPI   C3821397   6.654   5.974   9.466 -0.2514  0.5309 -0.7806
  186SAPI   H8X21398   6.720   6.059   9.497  0.5208  0.0744 -1.1572
  186SAPI   H8Y21399   6.552   5.979   9.509 -1.4796 -0.7034 -3.4000
  186SAPI   C3921400   6.652   5.992   9.316  0.3662 -0.0939  0.1331
  186SAPI   H9X21401   6.751   5.974   9.268  0.9417  0.6849  0.9731
  186SAPI   H9Y21402   6.633   6.101   9.306 -0.9381 -0.4623 -2.0130
  186SAPI  C31021403   6.540   5.919   9.251 -0.2718  0.1464  0.1888
  186SAPI  H10X21404   6.448   5.977   9.272 -1.5359 -0.7264 -2.4784
  186SAPI  H10Y21405   6.515   5.819   9.292  1.2500 -1.3006 -2.1675
  186SAPI  C31121406   6.549   5.896   9.100  0.2384  0.3763 -0.3397
  186SAPI  H11X21407   6.450   5.894   9.050  0.3030 -0.5982 -0.4522
  186SAPI  H11Y21408   6.591   5.795   9.083  0.1657  0.4164 -0.7661
  186SAPI  C31221409   6.634   6.009   9.035  0.2195  0.2113 -0.1712
  186SAPI  H12X21410   6.741   6.011   9.064  0.5973  0.4335 -1.4786
  186SAPI  H12Y21411   6.589   6.109   9.055 -0.8588 -0.2758 -0.0669
  186SAPI  C31321412   6.632   5.984   8.887  0.2015  0.2847 -0.1489
  186SAPI  H13X21413   6.528   5.995   8.848  0.1588 -1.8953 -0.7820
  186SAPI  H13Y21414   6.658   5.878   8.864 -1.7519 -0.2997  0.1964
  186SAPI  C31421415   6.711   6.088   8.810 -0.7310 -0.0365 -0.2000
  186SAPI  H14X21416   6.810   6.092   8.862 -0.5244 -1.6638 -0.4218
  186SAPI  H14Y21417   6.666   6.187   8.834  1.0725  0.4634  1.3950
  186SAPI  C31521418   6.718   6.059   8.659  0.0501 -0.0506 -0.2551
  186SAPI  H15X21419   6.716   5.948   8.645 -1.1664  0.0408 -0.9594
  186SAPI  H15Y21420   6.811   6.108   8.623 -0.3108 -0.4729 -1.8342
  186SAPI  C31621421   6.607   6.125   8.583 -0.7587 -0.2701  0.4325
  186SAPI  H16X21422   6.590   6.229   8.617 -1.2082  0.2905 -1.3577
  186SAPI  H16Y21423   6.511   6.070   8.595 -0.5164 -1.3127 -1.8583
  186SAPI  C31721424   6.637   6.127   8.436  0.2596 -0.5727  0.3098
  186SAPI  H17X21425   6.732   6.181   8.413  1.0137 -1.5980  0.8894
  186SAPI  H17Y21426   6.552   6.177   8.386  1.7420  0.0278 -1.7769
  186SAPI  C31821427   6.669   5.990   8.369 -0.2100  0.0924 -0.9417
  186SAPI  H18X21428   6.617   5.910   8.425  1.7812 -1.0206 -0.5713
  186SAPI  H18Y21429   6.778   5.967   8.365 -0.3814 -1.3303  1.1361
  186SAPI  H18Z21430   6.629   6.000   8.266  1.1397  1.9030 -1.3431
  187SAPI   C1221431   1.383   1.920   6.413  0.2300 -0.5585 -0.5276
  187SAPI    H221432   1.481   1.945   6.367 -0.8536  3.4050 -1.0836
  187SAPI    O221433   1.380   1.981   6.543  0.6025 -0.1384  0.8173
  187SAPI   HO221434   1.463   1.972   6.591  1.1113  1.4295  0.2783
  187SAPI   C1321435   1.268   1.969   6.316 -0.3429 -0.5354  0.1779
  187SAPI    H321436   1.277   1.908   6.224  1.8026  0.5461 -0.3956
  187SAPI    O321437   1.282   2.109   6.278 -0.4634  0.2315  0.3888
  187SAPI   HO321438   1.256   2.177   6.341 -1.9814  2.1053 -2.0993
  187SAPI   C1421439   1.124   1.940   6.374 -0.1359 -0.4819  0.4631
  187SAPI    H421440   1.113   1.995   6.470  0.7606  1.2985 -0.3981
  187SAPI    O421441   1.018   1.992   6.298 -0.2493  0.4366  0.4878
  187SAPI   HO421442   0.994   1.924   6.233  0.3233 -1.1527  1.8691
  187SAPI   C1521443   1.109   1.789   6.400 -0.0564 -0.7034  0.1330
  187SAPI    H521444   1.122   1.739   6.302  1.7555 -1.3484  0.6482
  187SAPI    O521445   0.985   1.748   6.444 -0.4766 -0.1167 -0.2393
  187SAPI   HO521446   0.927   1.729   6.370 -0.3160  0.6781 -0.5787
  187SAPI   C1621447   1.227   1.737   6.479 -0.5735  0.6075 -0.6077
  187SAPI    H621448   1.229   1.779   6.583 -2.3632 -2.4025  0.7731
  187SAPI    O621449   1.215   1.598   6.492 -0.2460  0.3845  0.2956
  187SAPI   HO621450   1.298   1.564   6.528 -0.2545 -0.4751 -0.4517
  187SAPI   C1121451   1.367   1.766   6.413 -0.0420 -0.7727 -0.4336
  187SAPI    H121452   1.368   1.732   6.307  0.3978 -1.2919 -0.2662
  187SAPI     P21453   1.621   1.697   6.424 -0.3805  0.0084 -0.0201
  187SAPI   O1321454   1.697   1.809   6.470 -0.5158 -0.7909  0.2508
  187SAPI   O1421455   1.606   1.676   6.280  0.4838  0.1398  0.4873
  187SAPI   O1221456   1.469   1.707   6.490 -0.0050  0.1438 -0.1198
  187SAPI   O1121457   1.682   1.571   6.480  0.1297  0.0857  0.2037
  187SAPI    C121458   1.620   1.444   6.487 -1.1180  0.3064  0.2488
  187SAPI    HA21459   1.515   1.449   6.452 -1.1299 -2.2976 -0.3115
  187SAPI    HB21460   1.680   1.380   6.419 -0.8712 -0.4996  1.1954
  187SAPI    C221461   1.622   1.385   6.637 -0.2997  0.0848 -0.3607
  187SAPI    HS21462   1.574   1.285   6.648  1.7824 -0.7535  2.0770
  187SAPI   O2121463   1.568   1.481   6.724  0.5738 -0.0525 -0.3091
  187SAPI   C2121464   1.434   1.484   6.727  0.1220 -0.3226 -0.1176
  187SAPI   O2221465   1.360   1.428   6.650 -0.8988  0.5365 -0.7100
  187SAPI   C2221466   1.387   1.580   6.840 -0.1351  0.9478 -0.3964
  187SAPI   H2R21467   1.465   1.567   6.918 -0.5249 -1.8300 -0.3598
  187SAPI   H2S21468   1.408   1.678   6.792  1.2816  0.5591 -0.6070
  187SAPI    C321469   1.776   1.361   6.674 -0.6666 -0.1124  0.8341
  187SAPI    HX21470   1.841   1.447   6.650 -0.3525 -0.5596  0.0509
  187SAPI    HY21471   1.809   1.288   6.597 -0.6186  1.2034 -0.4351
  187SAPI   O3121472   1.792   1.318   6.812  0.3557 -0.3296 -0.0682
  187SAPI   C3121473   1.893   1.367   6.879 -0.4590 -0.1205  0.7654
  187SAPI   O3221474   1.955   1.468   6.844  0.0113 -0.2171 -0.6115
  187SAPI   C3221475   1.912   1.284   7.004  0.4963  1.1016  0.0813
  187SAPI   H2X21476   1.886   1.356   7.084  1.4540  0.9546  0.5426
  187SAPI   H2Y21477   2.019   1.255   7.007 -0.1960 -1.6634  0.7523
  187SAPI   C2321478   1.246   1.570   6.885 -0.0609 -0.3292 -0.4793
  187SAPI   H3R21479   1.221   1.468   6.923 -2.3493  0.2269 -0.3322
  187SAPI   H3S21480   1.183   1.586   6.795  0.7935 -0.6717 -1.1505
  187SAPI   C2421481   1.212   1.673   6.995 -0.1527 -0.1369  0.0959
  187SAPI   H4R21482   1.102   1.666   7.009 -0.2521  2.0222  0.7875
  187SAPI   H4S21483   1.234   1.773   6.952  0.9342  0.7829  2.5644
  187SAPI   C2521484   1.287   1.653   7.126  0.4081 -0.2953 -0.0653
  187SAPI   H5R21485   1.396   1.646   7.117  0.6510  3.3558 -2.0096
  187SAPI   C2621486   1.229   1.644   7.252  0.5129 -0.0660 -0.1513
  187SAPI   H6R21487   1.295   1.632   7.340 -0.3207  1.6059  0.7529
  187SAPI   C2721488   1.086   1.654   7.293 -0.7917  0.4759 -0.1934
  187SAPI   H7R21489   1.041   1.554   7.307 -3.0311  1.1456 -2.0983
  187SAPI   H7S21490   1.037   1.703   7.206 -0.7969  1.4872  0.3596
  187SAPI   C2821491   1.065   1.740   7.412  0.5636  0.2331  0.7727
  187SAPI   H8R21492   1.013   1.832   7.383 -1.2985 -1.0234  0.0070
  187SAPI   C2921493   1.102   1.711   7.544 -0.5737 -0.3295  0.4103
  187SAPI   H9R21494   1.062   1.781   7.619 -0.9831  0.5747 -0.6182
  187SAPI  C21021495   1.173   1.591   7.600 -0.1599 -0.3866 -0.4687
  187SAPI  H10R21496   1.266   1.619   7.654  0.3623  1.7278 -2.3034
  187SAPI  H10S21497   1.209   1.516   7.526 -2.3780 -2.0710  0.0311
  187SAPI  C21121498   1.081   1.524   7.704 -0.4019 -0.1706  0.2967
  187SAPI  H11R21499   1.006   1.459   7.658 -0.4658  0.1411 -0.0408
  187SAPI  C21221500   1.102   1.534   7.841 -0.0846  0.9257  0.1709
  187SAPI  H12R21501   1.019   1.483   7.892  2.1943 -1.7279  1.5144
  187SAPI  C21321502   1.198   1.601   7.933  0.1123  0.6668  0.2448
  187SAPI  H13R21503   1.300   1.595   7.890 -0.1146  3.0154 -0.7996
  187SAPI  H13S21504   1.213   1.534   8.021  1.2429 -1.2164 -1.3189
  187SAPI  C21421505   1.169   1.738   7.969 -0.8313  0.2565  0.4115
  187SAPI  H14R21506   1.245   1.806   7.927  1.5815 -3.1433 -1.2499
  187SAPI  C21521507   1.063   1.779   8.037  0.3694 -0.2146 -0.0634
  187SAPI  H15R21508   1.050   1.886   8.058 -0.8170 -0.6456  1.6320
  187SAPI  C21621509   0.940   1.699   8.088 -0.5614  0.4104  0.1617
  187SAPI  H16R21510   0.936   1.590   8.065 -0.7446  0.4703 -0.0898
  187SAPI  H16S21511   0.857   1.743   8.030 -0.0974 -1.1756 -1.8177
  187SAPI  C21721512   0.900   1.696   8.235  0.2025 -0.3749  0.3807
  187SAPI  H17R21513   0.805   1.638   8.244 -0.9670  1.3493 -0.3047
  187SAPI  H17S21514   0.877   1.801   8.264 -0.2020  1.2143 -4.7133
  187SAPI  C21821515   1.008   1.625   8.331 -0.5710 -0.6045 -0.3367
  187SAPI  H18R21516   1.103   1.680   8.310 -1.6580  1.2204 -0.6767
  187SAPI  H18S21517   1.027   1.519   8.305 -3.2888 -1.4402  0.7883
  187SAPI  C21921518   0.980   1.625   8.484  0.8107  0.2951  0.2616
  187SAPI  H19R21519   0.884   1.569   8.492  0.7825 -0.1188 -2.1881
  187SAPI  H19S21520   0.966   1.729   8.519  1.9149  0.7618 -0.6348
  187SAPI  C22021521   1.084   1.553   8.573  1.1353 -0.0996  0.1579
  187SAPI  H20R21522   1.184   1.603   8.576  0.6648  1.0946 -2.2759
  187SAPI  H20S21523   1.096   1.447   8.541  3.8731 -0.7272  2.7579
  187SAPI  H20T21524   1.045   1.544   8.677 -0.3512  0.4092 -0.3420
  187SAPI   C3321525   1.821   1.162   7.014 -0.1771  0.2325  0.6281
  187SAPI   H3X21526   1.853   1.107   6.923  2.5876 -0.9421  2.1572
  187SAPI   H3Y21527   1.715   1.193   7.008  0.0067  1.1097  1.5739
  187SAPI   C3421528   1.845   1.089   7.146  0.2228 -0.1853 -0.0984
  187SAPI   H4X21529   1.838   1.155   7.235  2.4920  0.7651 -0.5508
  187SAPI   H4Y21530   1.950   1.056   7.156  1.3522  3.1750  0.6772
  187SAPI   C3521531   1.730   0.985   7.167 -0.1703  0.5991 -0.5137
  187SAPI   H5X21532   1.692   0.956   7.066 -0.8602  2.0668 -0.7044
  187SAPI   H5Y21533   1.642   1.027   7.219  1.8789 -0.4586  4.3587
  187SAPI   C3621534   1.765   0.857   7.248  0.4860 -0.1815 -0.6124
  187SAPI   H6X21535   1.851   0.799   7.210  1.9735  0.5368  1.4855
  187SAPI   H6Y21536   1.682   0.784   7.253 -1.3023  1.7973  1.0947
  187SAPI   C3721537   1.795   0.892   7.394 -0.1247  0.6142  0.1340
  187SAPI   H7X21538   1.702   0.923   7.446 -2.2360 -2.6214 -1.3933
  187SAPI   H7Y21539   1.864   0.979   7.400  0.4852  0.1640 -0.1964
  187SAPI   C3821540   1.842   0.766   7.464 -0.3161 -0.4321  0.6354
  187SAPI   H8X21541   1.944   0.739   7.429  0.3833  1.8681  0.7407
  187SAPI   H8Y21542   1.768   0.686   7.441  0.3112 -0.4355 -1.6055
  187SAPI   C3921543   1.858   0.779   7.622  0.0531 -0.1179  0.6466
  187SAPI   H9X21544   1.761   0.814   7.665  0.2726 -0.0067  1.0547
  187SAPI   H9Y21545   1.932   0.859   7.644  1.1393  0.2761 -3.6094
  187SAPI  C31021546   1.897   0.654   7.695  0.1395 -0.0322 -0.0842
  187SAPI  H10X21547   2.005   0.629   7.688  0.0215 -0.7778  0.6151
  187SAPI  H10Y21548   1.846   0.561   7.660  1.9974 -1.9983  2.0757
  187SAPI  C31121549   1.858   0.660   7.845  0.2165  0.1737  0.2745
  187SAPI  H11X21550   1.880   0.566   7.899  0.8105 -1.0204 -1.9259
  187SAPI  H11Y21551   1.747   0.667   7.837  0.1726 -1.6147 -1.3338
  187SAPI  C31221552   1.920   0.780   7.927 -0.4541  0.6148  0.9441
  187SAPI  H12X21553   1.865   0.863   7.877 -1.2891 -1.2075 -1.3144
  187SAPI  H12Y21554   2.031   0.791   7.927 -0.4829  1.3970 -1.0284
  187SAPI  C31321555   1.878   0.769   8.071  0.4589  0.2962 -0.6651
  187SAPI  H13X21556   1.914   0.677   8.124  2.0487  1.9039  1.1990
  187SAPI  H13Y21557   1.768   0.766   8.054  0.2893 -0.1458  0.4212
  187SAPI  C31421558   1.918   0.889   8.167 -0.1235  0.2124  0.2581
  187SAPI  H14X21559   1.884   0.979   8.112  0.3202 -0.3004 -0.9004
  187SAPI  H14Y21560   2.028   0.889   8.180 -0.2107 -1.0963  1.1922
  187SAPI  C31521561   1.852   0.873   8.302  0.0369 -0.0801 -0.6146
  187SAPI  H15X21562   1.883   0.963   8.360  2.4250 -0.3059 -1.4085
  187SAPI  H15Y21563   1.882   0.776   8.347 -0.1883  0.9177  1.8092
  187SAPI  C31621564   1.705   0.890   8.305 -0.6100 -0.0051 -0.1231
  187SAPI  H16X21565   1.659   0.814   8.238  0.7715 -0.9077 -0.0893
  187SAPI  H16Y21566   1.678   0.990   8.265 -0.1416 -0.3341 -1.2880
  187SAPI  C31721567   1.650   0.874   8.448 -0.1940 -0.1258 -0.4591
  187SAPI  H17X21568   1.701   0.934   8.527  0.8069 -1.2733 -0.1910
  187SAPI  H17Y21569   1.670   0.765   8.458  0.8410  0.0478 -0.5187
  187SAPI  C31821570   1.503   0.899   8.452 -0.1176 -0.3338 -0.2137
  187SAPI  H18X21571   1.458   0.863   8.546  2.0501  2.3844  2.0463
  187SAPI  H18Y21572   1.455   0.846   8.367  0.7476 -1.3580 -0.0787
  187SAPI  H18Z21573   1.478   1.007   8.445 -2.2314 -0.5534  2.5346
  188SAPI   C1221574   2.635   5.522   6.275  0.1140  0.4638  0.4045
  188SAPI    H221575   2.708   5.458   6.221 -1.6098 -1.2426 -0.0131
  188SAPI    O221576   2.693   5.655   6.288 -0.1067  0.1523  0.7741
  188SAPI   HO221577   2.752   5.642   6.363 -1.1382 -0.1068  1.5484
  188SAPI   C1321578   2.501   5.525   6.200  1.2095 -0.1915 -0.6241
  188SAPI    H321579   2.470   5.419   6.189  1.0650  0.0746 -4.0150
  188SAPI    O321580   2.511   5.570   6.064  0.2910  0.1193  0.3515
  188SAPI   HO321581   2.444   5.520   6.017  0.1769  1.6160 -1.1724
  188SAPI   C1421582   2.400   5.597   6.287  0.7449  0.6304  0.8948
  188SAPI    H421583   2.424   5.705   6.293  0.2267  0.8685 -0.8196
  188SAPI    O421584   2.263   5.593   6.223  0.4653  0.4537  0.2779
  188SAPI   HO421585   2.271   5.614   6.130  0.0389  0.8848  0.3384
  188SAPI   C1521586   2.393   5.522   6.420  0.4583  0.0900  0.0681
  188SAPI    H521587   2.377   5.414   6.400  2.1864  0.3346 -3.3761
  188SAPI    O521588   2.286   5.575   6.498  0.3417 -0.5937  0.5155
  188SAPI   HO521589   2.298   5.549   6.590 -1.4543  1.7166  1.4981
  188SAPI   C1621590   2.529   5.530   6.497 -0.1916  1.0263 -0.3784
  188SAPI    H621591   2.565   5.633   6.517  1.7788  0.2355  0.4311
  188SAPI    O621592   2.509   5.462   6.618  0.4370  0.6968  0.2200
  188SAPI   HO621593   2.588   5.412   6.641  1.1595  2.1160  0.9588
  188SAPI   C1121594   2.625   5.455   6.412 -1.1273 -0.1086  0.7517
  188SAPI    H121595   2.587   5.351   6.406  0.7628 -0.8584  1.2494
  188SAPI     P21596   2.824   5.332   6.549 -0.0193  0.1332  0.4719
  188SAPI   O1321597   2.964   5.363   6.599  0.1018  0.1059  0.4552
  188SAPI   O1421598   2.803   5.208   6.474 -0.6928  0.6248 -0.2257
  188SAPI   O1221599   2.760   5.455   6.463  0.2760  0.4657 -0.2497
  188SAPI   O1121600   2.724   5.322   6.671 -0.3032 -0.0797  0.0388
  188SAPI    C121601   2.774   5.346   6.803  0.2048  0.0095  0.4615
  188SAPI    HA21602   2.861   5.283   6.829 -0.6580 -1.2184  0.4739
  188SAPI    HB21603   2.795   5.454   6.814  0.1796  0.2831 -1.6396
  188SAPI    C221604   2.671   5.311   6.908 -0.1670  0.7720 -0.1431
  188SAPI    HS21605   2.572   5.345   6.871  0.7366  1.2868 -2.2034
  188SAPI   O2121606   2.699   5.377   7.034  0.0593 -0.3129 -1.1121
  188SAPI   C2121607   2.606   5.375   7.124 -0.9877  0.3764  0.0607
  188SAPI   O2221608   2.492   5.345   7.119  0.3592 -0.9146 -0.3680
  188SAPI   C2221609   2.667   5.437   7.248 -0.0998 -0.0354 -0.3121
  188SAPI   H2R21610   2.750   5.510   7.235 -0.5135  0.5969  0.5057
  188SAPI   H2S21611   2.583   5.493   7.293  0.4892 -0.1582  0.9806
  188SAPI    C321612   2.651   5.152   6.927  0.8309 -0.6499  0.7157
  188SAPI    HX21613   2.614   5.119   6.827 -1.2039  0.5210  1.0558
  188SAPI    HY21614   2.572   5.134   7.002  1.1771 -0.5815  1.1032
  188SAPI   O3121615   2.764   5.081   6.968  0.0373  0.4526  0.1673
  188SAPI   C3121616   2.765   4.945   6.944 -0.0882  0.0263 -0.3301
  188SAPI   O3221617   2.666   4.881   6.920  0.5381  0.4772 -0.9356
  188SAPI   C3221618   2.912   4.891   6.950 -0.0425 -0.0844  0.3589
  188SAPI   H2X21619   2.980   4.979   6.942 -1.4307  1.0248  0.3822
  188SAPI   H2Y21620   2.922   4.821   6.864 -1.0545 -1.2953  1.1775
  188SAPI   C2321621   2.710   5.328   7.353 -0.4891 -0.6163  0.4643
  188SAPI   H3R21622   2.814   5.294   7.333 -1.5067 -3.3568 -0.7199
  188SAPI   H3S21623   2.633   5.248   7.361 -1.7571  0.4445 -0.6077
  188SAPI   C2421624   2.718   5.386   7.500 -0.1010 -0.2403  0.1169
  188SAPI   H4R21625   2.617   5.420   7.533  0.9267  2.4534  0.7546
  188SAPI   H4S21626   2.776   5.481   7.505 -4.6648  2.9477 -0.5846
  188SAPI   C2521627   2.774   5.295   7.607 -0.1225  0.3899  0.1425
  188SAPI   H5R21628   2.824   5.205   7.569  0.3180  0.7220 -0.0670
  188SAPI   C2621629   2.770   5.318   7.741 -0.5867  0.1993 -0.3694
  188SAPI   H6R21630   2.823   5.249   7.808  0.1483 -0.5389 -1.6581
  188SAPI   C2721631   2.706   5.441   7.809 -0.5170 -0.1848 -0.0536
  188SAPI   H7R21632   2.736   5.528   7.746  0.8407 -1.9508 -1.9948
  188SAPI   H7S21633   2.749   5.456   7.910  0.7727 -0.8921 -0.4660
  188SAPI   C2821634   2.558   5.437   7.817  0.1185 -0.4635  0.1249
  188SAPI   H8R21635   2.505   5.452   7.722  0.1878 -0.5076  0.0790
  188SAPI   C2921636   2.482   5.413   7.925 -0.0112  0.6817  0.3093
  188SAPI   H9R21637   2.373   5.411   7.910  0.2906  1.6195 -2.8166
  188SAPI  C21021638   2.532   5.376   8.066 -0.1625 -0.6057 -0.0616
  188SAPI  H10R21639   2.642   5.379   8.081  0.0693 -0.7034 -1.5495
  188SAPI  H10S21640   2.506   5.268   8.077 -1.4201 -0.3389 -0.2106
  188SAPI  C21121641   2.456   5.457   8.169 -0.6446  0.0855  0.0413
  188SAPI  H11R21642   2.346   5.455   8.171 -0.6675 -0.3864 -1.1891
  188SAPI  C21221643   2.510   5.534   8.268  0.9481  0.3146  0.3156
  188SAPI  H12R21644   2.449   5.572   8.351  1.1153  0.0753  0.5490
  188SAPI  C21321645   2.658   5.561   8.281 -0.2692  0.4736 -0.0873
  188SAPI  H13R21646   2.717   5.478   8.236 -1.1241  0.5997 -1.5285
  188SAPI  H13S21647   2.685   5.552   8.388 -2.0303 -0.1856  0.3272
  188SAPI  C21421648   2.713   5.681   8.213 -0.7006 -0.0459 -0.1289
  188SAPI  H14R21649   2.747   5.670   8.109  0.0130 -0.8331  0.1765
  188SAPI  C21521650   2.713   5.799   8.276  0.8536  0.3470  0.1707
  188SAPI  H15R21651   2.755   5.887   8.226 -0.6511  1.0970  0.1578
  188SAPI  C21621652   2.654   5.822   8.413  0.0032  0.6142  0.1924
  188SAPI  H16R21653   2.585   5.741   8.444 -2.7078  3.2678  1.6355
  188SAPI  H16S21654   2.592   5.913   8.399  1.4132  1.5962  0.0702
  188SAPI  C21721655   2.750   5.831   8.535 -0.3982  0.3842 -0.3791
  188SAPI  H17R21656   2.803   5.928   8.543 -2.2883  1.3206  2.2739
  188SAPI  H17S21657   2.830   5.756   8.520 -1.4888 -1.2155  1.3643
  188SAPI  C21821658   2.673   5.802   8.660 -0.6750 -0.3102  0.7011
  188SAPI  H18R21659   2.747   5.788   8.742  0.2079  0.4622  0.0517
  188SAPI  H18S21660   2.608   5.713   8.648 -0.7753 -0.0720 -0.6881
  188SAPI  C21921661   2.587   5.918   8.722 -0.3401  0.3695  0.4319
  188SAPI  H19R21662   2.510   5.954   8.650  0.6668  1.2373 -0.2255
  188SAPI  H19S21663   2.652   6.002   8.753  1.6819 -0.2179 -1.9431
  188SAPI  C22021664   2.505   5.878   8.845  0.3740 -0.1895 -1.0639
  188SAPI  H20R21665   2.564   5.830   8.926 -0.7687 -0.6839 -0.5003
  188SAPI  H20S21666   2.417   5.816   8.816 -0.3626  1.3114 -2.1555
  188SAPI  H20T21667   2.464   5.967   8.899  4.1496  0.2654  1.4004
  188SAPI   C3321668   2.934   4.804   7.081 -0.2073  0.0478  0.0357
  188SAPI   H3X21669   3.035   4.757   7.074 -1.0518 -1.9843  0.8524
  188SAPI   H3Y21670   2.870   4.714   7.084 -1.6933  0.7935 -3.8492
  188SAPI   C3421671   2.917   4.881   7.212 -0.1912  1.2767 -0.6855
  188SAPI   H4X21672   2.824   4.942   7.215 -0.3720  1.0026  2.2657
  188SAPI   H4Y21673   3.008   4.935   7.242 -0.0116  1.1191 -0.9413
  188SAPI   C3521674   2.919   4.779   7.332 -0.0354  0.0199  0.2530
  188SAPI   H5X21675   2.988   4.694   7.313  0.3343  0.1229  1.0905
  188SAPI   H5Y21676   2.814   4.743   7.329  0.2782 -0.8836 -1.2501
  188SAPI   C3621677   2.941   4.830   7.467 -0.0756 -0.4600 -0.6070
  188SAPI   H6X21678   2.864   4.898   7.508 -0.1207 -1.3389  0.8373
  188SAPI   H6Y21679   3.039   4.883   7.478  0.4655 -1.6996  0.8256
  188SAPI   C3721680   2.946   4.712   7.559  0.2939 -0.8482 -0.2104
  188SAPI   H7X21681   3.042   4.667   7.525  0.1653 -0.1864 -1.5091
  188SAPI   H7Y21682   2.863   4.640   7.541 -0.2612  0.4028 -3.3627
  188SAPI   C3821683   2.959   4.753   7.708  0.9949  0.1601 -0.1740
  188SAPI   H8X21684   3.045   4.823   7.715 -0.5642  2.1229  0.8060
  188SAPI   H8Y21685   2.961   4.662   7.771  0.8395 -0.2309 -0.7272
  188SAPI   C3921686   2.832   4.832   7.753  0.4491  0.3963  0.3469
  188SAPI   H9X21687   2.741   4.770   7.735  0.7936 -0.6683  2.0095
  188SAPI   H9Y21688   2.817   4.922   7.690  1.9451 -0.0385 -0.7075
  188SAPI  C31021689   2.828   4.872   7.904 -0.2864  0.0652  0.3192
  188SAPI  H10X21690   2.726   4.905   7.935 -0.9392 -1.8195  0.2697
  188SAPI  H10Y21691   2.898   4.958   7.915 -0.8003  0.6070 -0.5616
  188SAPI  C31121692   2.859   4.755   8.001  0.1148 -0.8231  0.5780
  188SAPI  H11X21693   2.962   4.727   7.970 -0.0103 -0.7234  0.0695
  188SAPI  H11Y21694   2.795   4.665   7.991 -1.1052  0.1436 -0.7310
  188SAPI  C31221695   2.870   4.785   8.154  0.0968  0.0592  0.1995
  188SAPI  H12X21696   2.930   4.874   8.183 -0.4018  0.0336  1.3782
  188SAPI  H12Y21697   2.928   4.698   8.192  2.0355  0.8850 -0.7217
  188SAPI  C31321698   2.729   4.783   8.225  0.5070  0.3922 -0.9057
  188SAPI  H13X21699   2.657   4.730   8.159 -1.0628  1.0265  0.2555
  188SAPI  H13Y21700   2.691   4.887   8.239 -0.0544  0.0438  0.2549
  188SAPI  C31421701   2.726   4.707   8.356 -0.2025 -0.0888  0.6664
  188SAPI  H14X21702   2.777   4.773   8.429  0.5300  0.7423 -0.5574
  188SAPI  H14Y21703   2.780   4.610   8.347  2.4256  1.2931  0.6069
  188SAPI  C31521704   2.581   4.678   8.408 -0.0700 -0.0858 -0.7155
  188SAPI  H15X21705   2.526   4.634   8.323 -1.1416  0.3110 -0.2432
  188SAPI  H15Y21706   2.535   4.772   8.444  1.2629 -0.1698  1.4448
  188SAPI  C31621707   2.568   4.565   8.514  0.4880  0.3013  0.7345
  188SAPI  H16X21708   2.599   4.606   8.612  0.5218 -1.4674  1.5060
  188SAPI  H16Y21709   2.628   4.473   8.496 -0.2152 -0.6911  3.0145
  188SAPI  C31721710   2.424   4.509   8.542 -0.3530 -0.0878  0.1283
  188SAPI  H17X21711   2.418   4.442   8.630  0.3977 -2.3626 -1.4472
  188SAPI  H17Y21712   2.408   4.444   8.454  0.4480  0.1708 -0.2182
  188SAPI  C31821713   2.303   4.604   8.543 -0.7013 -0.8313  0.6396
  188SAPI  H18X21714   2.299   4.674   8.629  1.3803  1.9598 -1.3561
  188SAPI  H18Y21715   2.214   4.538   8.553  0.9615 -3.3848 -0.3062
  188SAPI  H18Z21716   2.302   4.665   8.450 -0.3865  1.2003  1.9176
  189POPC     N21717   3.628   4.426  11.177 -0.1723 -0.1158  0.6979
  189POPC   C1221718   3.682   4.349  11.066  0.0451 -0.0237 -0.1973
  189POPC  H12A21719   3.639   4.379  10.972  0.7574  0.0421 -0.5068
  189POPC  H12B21720   3.669   4.241  11.065  2.0406 -0.3138 -0.8079
  189POPC   C1321721   3.636   4.574  11.134  0.0384 -0.2559 -0.0676
  189POPC  H13A21722   3.636   4.636  11.223  0.9610  0.7302 -0.7248
  189POPC  H13B21723   3.731   4.592  11.085 -1.0711  0.4925 -2.0314
  189POPC  H13C21724   3.562   4.597  11.059 -2.4104  1.0649  2.5594
  189POPC   C1421725   3.482   4.402  11.194  0.4209  0.6954  0.4695
  189POPC  H14A21726   3.418   4.430  11.112 -1.2553 -1.4830  0.9517
  189POPC  H14B21727   3.468   4.297  11.214  1.7805  0.3080 -0.5033
  189POPC  H14C21728   3.442   4.464  11.274  2.5731  1.1851  1.2214
  189POPC   C1521729   3.708   4.410  11.302 -0.3224  0.4128 -0.1189
  189POPC  H15A21730   3.672   4.471  11.383  4.1499  2.1168  0.8694
  189POPC  H15B21731   3.807   4.445  11.279 -0.7237  0.5210 -1.8350
  189POPC  H15C21732   3.706   4.305  11.330 -0.5260  0.4849  0.1389
  189POPC   C1121733   3.828   4.367  11.024  0.0601 -0.1578 -0.3167
  189POPC  H11A21734   3.839   4.293  10.943 -1.2699  0.1269 -0.7862
  189POPC  H11B21735   3.895   4.344  11.110 -0.5565  1.7878  0.7689
  189POPC     P21736   3.999   4.534  10.947 -0.4420 -0.0490 -0.1034
  189POPC   O1321737   4.065   4.407  10.919  0.4192 -0.5188  0.0287
  189POPC   O1421738   4.068   4.619  11.045  0.3869 -0.3714 -0.5115
  189POPC   O1221739   3.852   4.506  10.990 -0.1688 -0.7237 -0.9274
  189POPC   O1121740   3.982   4.609  10.811 -0.1221  0.0485  0.1566
  189POPC    C121741   3.893   4.577  10.711  0.1858  0.2995 -0.4327
  189POPC    HA21742   3.892   4.466  10.711  0.4061  0.2766  1.1829
  189POPC    HB21743   3.923   4.610  10.609  0.0474  1.0551 -0.2298
  189POPC    C221744   3.755   4.644  10.730  0.3068 -0.0149  0.1168
  189POPC    HS21745   3.709   4.629  10.830 -0.8025 -0.0259 -0.3779
  189POPC   O2121746   3.660   4.591  10.638 -0.0023  0.6362  0.0712
  189POPC   C2121747   3.637   4.467  10.640  0.2429 -0.5427 -0.2753
  189POPC   O2221748   3.661   4.396  10.741  0.6656 -0.0394 -0.3205
  189POPC   C2221749   3.538   4.432  10.516 -0.0689  0.6108  0.3005
  189POPC   H2R21750   3.440   4.473  10.548  0.4283  1.5625  0.6512
  189POPC   H2S21751   3.528   4.322  10.513  0.5213  0.5371  0.6893
  189POPC    C321752   3.759   4.798  10.706 -0.3852  0.0790 -0.2089
  189POPC    HX21753   3.835   4.850  10.769 -1.9489  2.8825 -0.4795
  189POPC    HY21754   3.656   4.832  10.733 -0.7081 -1.5927  0.8400
  189POPC   O3121755   3.786   4.838  10.567 -0.9257  0.1832 -0.0653
  189POPC   C3121756   3.678   4.865  10.493  0.1930 -0.4335  0.7213
  189POPC   O3221757   3.561   4.872  10.530 -0.4299 -0.8455  0.3013
  189POPC   C3221758   3.729   4.879  10.346  0.1756 -0.0585 -0.0377
  189POPC   H2X21759   3.764   4.780  10.310 -0.2314  0.4222 -1.8262
  189POPC   H2Y21760   3.809   4.954  10.332 -0.8490  0.7923 -1.6262
  189POPC   C2321761   3.595   4.485  10.383  0.2989 -0.0386  0.2252
  189POPC   H3R21762   3.703   4.459  10.382  0.2501 -0.2726  0.6305
  189POPC   H3S21763   3.577   4.594  10.392  0.2423  0.0321 -0.6688
  189POPC   C2421764   3.534   4.422  10.260  0.4032 -0.0864  0.4270
  189POPC   H4R21765   3.426   4.450  10.262 -0.6925 -3.7492  1.3997
  189POPC   H4S21766   3.545   4.314  10.282 -1.9561 -0.7699 -1.3396
  189POPC   C2521767   3.613   4.452  10.130  0.2010 -0.1380  0.2116
  189POPC   H5R21768   3.716   4.413  10.144  0.0081 -0.1542  1.7437
  189POPC   H5S21769   3.611   4.561  10.110 -3.2545 -0.4619 -2.1334
  189POPC   C2621770   3.541   4.373  10.022  0.8310  0.5667  0.0958
  189POPC   H6R21771   3.450   4.431   9.994  0.6627 -0.3709 -1.4566
  189POPC   H6S21772   3.509   4.272  10.054 -0.1530  0.2869 -1.6197
  189POPC   C2721773   3.626   4.354   9.890  0.5630 -0.0398  0.2241
  189POPC   H7R21774   3.596   4.261   9.838  2.8334 -0.5490 -0.2619
  189POPC   H7S21775   3.735   4.347   9.910  0.6545  1.6286  0.4533
  189POPC   C2821776   3.611   4.479   9.789  0.2041  0.3540  0.8332
  189POPC   H8R21777   3.709   4.491   9.738 -0.2131 -2.4070 -0.8191
  189POPC   H8S21778   3.582   4.566   9.852 -0.1784  0.4213  0.5718
  189POPC   C2921779   3.500   4.455   9.680 -0.5451  0.4156 -1.1750
  189POPC   H9121780   3.462   4.352   9.677  0.9747 -0.1621 -1.5748
  189POPC  C21021781   3.449   4.545   9.590  0.4713  0.8889 -0.7515
  189POPC  H10121782   3.375   4.514   9.514  0.6937  0.5637 -0.8392
  189POPC  C21121783   3.494   4.687   9.588  0.6968 -0.2698 -0.6397
  189POPC  H11R21784   3.486   4.732   9.689 -2.0146 -0.1193 -0.8257
  189POPC  H11S21785   3.418   4.742   9.528  2.1210  0.1509 -2.1320
  189POPC  C21221786   3.641   4.720   9.544 -0.0998  1.0261 -0.1713
  189POPC  H12R21787   3.708   4.671   9.617  1.1931 -0.4987 -2.2478
  189POPC  H12S21788   3.645   4.830   9.559 -3.0492  1.0984  0.7327
  189POPC  C21321789   3.666   4.669   9.399  0.2644  0.1092  0.1659
  189POPC  H13R21790   3.634   4.565   9.377  1.1959  0.2882 -2.2751
  189POPC  H13S21791   3.776   4.681   9.384  0.2625 -0.9650 -0.7653
  189POPC  C21421792   3.598   4.763   9.304  0.6565 -0.8224  0.7619
  189POPC  H14R21793   3.624   4.866   9.339 -4.0687  1.0855 -0.5501
  189POPC  H14S21794   3.487   4.767   9.304  0.6772  1.1393  0.4758
  189POPC  C21521795   3.648   4.754   9.160 -0.1013 -0.1380 -0.1401
  189POPC  H15R21796   3.756   4.782   9.155  0.4040 -1.7298  1.1100
  189POPC  H15S21797   3.602   4.840   9.106  1.3920  1.3902  0.8985
  189POPC  C21621798   3.626   4.617   9.096  0.3365  0.1032 -0.5039
  189POPC  H16R21799   3.524   4.582   9.122  0.5159 -0.7308 -0.8749
  189POPC  H16S21800   3.692   4.549   9.155 -0.0938 -2.4446 -2.7565
  189POPC  C21721801   3.643   4.610   8.947  0.2171  0.3809  0.9946
  189POPC  H17R21802   3.745   4.648   8.924 -0.3679  1.5877  0.3388
  189POPC  H17S21803   3.574   4.676   8.891  1.2538 -0.5365 -1.5332
  189POPC  C21821804   3.630   4.467   8.889 -0.5655 -0.5866  0.0084
  189POPC  H18R21805   3.618   4.475   8.779  2.8032  0.2384 -0.4125
  189POPC  H18S21806   3.552   4.411   8.944  0.7230  0.6487  3.3286
  189POPC  H18T21807   3.727   4.417   8.911 -0.4087  0.6349  2.4102
  189POPC   C3321808   3.623   4.931  10.246 -0.1969  1.0774 -0.3071
  189POPC   H3X21809   3.600   5.037  10.271  0.9435  0.6500  3.1594
  189POPC   H3Y21810   3.538   4.861  10.264  0.3727  0.2513 -0.7661
  189POPC   C3421811   3.648   4.933  10.094 -1.0196 -0.1184 -0.6057
  189POPC   H4X21812   3.653   4.824  10.070 -0.0547 -0.2282  0.0216
  189POPC   H4Y21813   3.748   4.981  10.081 -0.2946 -1.1809  0.7559
  189POPC   C3521814   3.544   5.010  10.018  0.7122 -0.6049 -0.6019
  189POPC   H5X21815   3.560   5.118  10.036 -0.5992 -0.8324  2.4619
  189POPC   H5Y21816   3.446   4.979  10.061  0.4339  1.2556  0.1830
  189POPC   C3621817   3.544   4.985   9.870 -0.0719  0.4800 -0.0084
  189POPC   H6X21818   3.531   4.877   9.851 -2.3102  0.9245 -1.3154
  189POPC   H6Y21819   3.642   5.022   9.832 -0.7594  1.5911 -0.7396
  189POPC   C3721820   3.432   5.053   9.791  0.6732  0.1432  0.2125
  189POPC   H7X21821   3.402   5.157   9.815 -1.7520 -0.0890 -1.5047
  189POPC   H7Y21822   3.349   4.984   9.818  1.0344  0.0279  1.0968
  189POPC   C3821823   3.457   5.053   9.646 -0.5049 -0.5049  0.3761
  189POPC   H8X21824   3.486   4.954   9.605 -0.2601 -0.5382  0.6274
  189POPC   H8Y21825   3.540   5.119   9.613 -1.3402  0.3839 -0.0311
  189POPC   C3921826   3.331   5.100   9.562  0.3517 -0.2921 -0.3563
  189POPC   H9X21827   3.337   5.210   9.547  2.0633 -0.1555  1.0885
  189POPC   H9Y21828   3.236   5.090   9.619  1.0944 -0.7100  0.8452
  189POPC  C31021829   3.309   5.017   9.435  0.3653  0.4153  0.1175
  189POPC  H10X21830   3.290   4.914   9.470 -0.3980  0.3913 -0.3646
  189POPC  H10Y21831   3.412   5.014   9.393  0.9539  1.9093  1.3328
  189POPC  C31121832   3.196   5.067   9.340  0.4982 -0.0998 -0.1240
  189POPC  H11X21833   3.136   5.117   9.418  0.8138 -2.1541  1.5363
  189POPC  H11Y21834   3.129   4.983   9.310 -0.0402  0.3202 -0.1004
  189POPC  C31221835   3.229   5.169   9.233  0.0519  0.2251  0.0453
  189POPC  H12X21836   3.258   5.252   9.300  0.3400 -0.0210  0.2243
  189POPC  H12Y21837   3.139   5.203   9.177  0.4654  2.4817  0.6601
  189POPC  C31321838   3.340   5.128   9.138  0.0072  0.2037 -0.1219
  189POPC  H13X21839   3.408   5.049   9.178  1.0641  0.5902 -1.0991
  189POPC  H13Y21840   3.402   5.218   9.120 -0.8723  1.1016  1.1482
  189POPC  C31421841   3.289   5.073   8.997 -0.0197  0.7671 -0.0537
  189POPC  H14X21842   3.383   5.046   8.943  0.9970  2.5999  0.7006
  189POPC  H14Y21843   3.238   5.155   8.942 -1.6939 -0.1625  0.0608
  189POPC  C31521844   3.195   4.947   9.004  0.1134 -0.5922 -0.2302
  189POPC  H15X21845   3.178   4.914   8.899  2.3143 -3.2417  0.1390
  189POPC  H15Y21846   3.102   4.989   9.047  0.7704  0.5212  0.1485
  189POPC  C31621847   3.246   4.826   9.088 -0.4706  0.6967  0.7829
  189POPC  H16X21848   3.333   4.791   9.028 -1.8204  1.9786 -2.1776
  189POPC  H16Y21849   3.165   4.751   9.095  0.2665 -0.0690  1.1570
  189POPC  H16Z21850   3.284   4.869   9.183  1.7971  2.2757 -0.7150
  190POPC     N21851   5.727   1.388  11.227 -0.0583  0.0494 -0.3501
  190POPC   C1221852   5.688   1.302  11.106  0.3464 -0.0232 -0.1788
  190POPC  H12A21853   5.684   1.358  11.014 -0.9878 -0.1442 -0.2180
  190POPC  H12B21854   5.588   1.270  11.132  0.1578 -0.0932 -0.9736
  190POPC   C1321855   5.625   1.498  11.244  0.3100  0.1436 -1.1588
  190POPC  H13A21856   5.627   1.537  11.344 -0.4712  1.3122 -1.5813
  190POPC  H13B21857   5.638   1.579  11.173  1.2513 -0.3216 -1.5401
  190POPC  H13C21858   5.523   1.463  11.235  0.4245 -1.3343  1.9559
  190POPC   C1421859   5.729   1.302  11.348  0.7538  1.1102 -0.6683
  190POPC  H14A21860   5.781   1.346  11.432 -2.0486 -1.9030  3.0144
  190POPC  H14B21861   5.633   1.280  11.392 -0.0667  1.7184 -2.0798
  190POPC  H14C21862   5.774   1.206  11.326  0.8731  1.2153 -0.8898
  190POPC   C1521863   5.862   1.460  11.215  0.4133 -0.4179  0.6477
  190POPC  H15A21864   5.856   1.535  11.138  3.1552 -1.0473 -0.3260
  190POPC  H15B21865   5.933   1.384  11.184 -1.4266 -1.1598 -2.1669
  190POPC  H15C21866   5.901   1.502  11.306  2.4293 -0.7781  0.0147
  190POPC   C1121867   5.784   1.187  11.072 -0.1788 -0.1638 -0.7258
  190POPC  H11A21868   5.889   1.224  11.064  0.2443 -1.3007 -0.6695
  190POPC  H11B21869   5.747   1.160  10.971 -3.2387  1.4749 -0.1648
  190POPC     P21870   5.654   0.973  11.145  0.2521 -0.1376 -0.1015
  190POPC   O1321871   5.529   1.050  11.157 -0.5469 -0.7853  0.6194
  190POPC   O1421872   5.670   0.865  11.241 -0.2589  0.6144 -0.2354
  190POPC   O1221873   5.782   1.074  11.158  0.1606 -0.0747  0.0839
  190POPC   O1121874   5.660   0.913  10.996 -0.3943 -0.3161 -0.2830
  190POPC    C121875   5.775   0.842  10.948  0.5403  0.0947 -0.5175
  190POPC    HA21876   5.747   0.738  10.920 -0.2884  0.1724 -0.0249
  190POPC    HB21877   5.869   0.842  11.008  0.4019  1.3960 -0.2725
  190POPC    C221878   5.812   0.910  10.812  0.2295  0.1219  0.7079
  190POPC    HS21879   5.838   1.016  10.835  1.3230  0.1068 -0.3396
  190POPC   O2121880   5.702   0.883  10.718  0.4998  0.2948 -0.5757
  190POPC   C2121881   5.674   0.993  10.644 -0.1956 -0.0567 -0.0766
  190POPC   O2221882   5.708   1.104  10.673  0.3328 -0.1797  0.0794
  190POPC   C2221883   5.603   0.957  10.512 -0.5094 -0.6050 -0.3386
  190POPC   H2R21884   5.501   0.999  10.522  0.4606  1.8098  0.1165
  190POPC   H2S21885   5.601   0.846  10.499 -1.7451 -0.6904  0.4770
  190POPC    C321886   5.934   0.851  10.743 -0.1999 -0.4917  0.3226
  190POPC    HX21887   5.904   0.746  10.722  0.2342 -0.6963  0.7016
  190POPC    HY21888   6.022   0.828  10.808  0.3885 -0.5623 -0.4834
  190POPC   O3121889   5.970   0.923  10.621  0.2443 -0.2692  0.8654
  190POPC   C3121890   6.085   0.987  10.619 -0.0595  0.5042  0.0800
  190POPC   O3221891   6.165   0.984  10.705  0.0340 -0.0952 -0.4477
  190POPC   C3221892   6.094   1.062  10.480 -0.8271  0.3787  0.0906
  190POPC   H2X21893   6.187   1.123  10.479  0.0502 -0.8252  2.1615
  190POPC   H2Y21894   6.009   1.133  10.469 -0.3812  0.6638 -1.8402
  190POPC   C2321895   5.666   1.027  10.390  0.2236 -0.2028 -0.2238
  190POPC   H3R21896   5.765   0.976  10.393  0.0964 -0.4752 -0.6089
  190POPC   H3S21897   5.684   1.135  10.408 -1.5414 -0.1466  1.5899
  190POPC   C2421898   5.582   1.019  10.263 -0.4789  0.3221  0.2305
  190POPC   H4R21899   5.486   1.074  10.277 -0.7014  0.2279 -0.8379
  190POPC   H4S21900   5.543   0.915  10.253 -0.6995  0.4559 -0.3519
  190POPC   C2521901   5.666   1.053  10.139  0.3426  0.6684  0.1480
  190POPC   H5R21902   5.761   0.996  10.130  0.8048  1.0365  2.2242
  190POPC   H5S21903   5.678   1.163  10.127 -1.1485  0.8135 -0.3093
  190POPC   C2621904   5.590   1.026  10.005 -0.5467  0.6182  0.4823
  190POPC   H6R21905   5.485   1.061   9.997 -0.4742  0.9700  1.0246
  190POPC   H6S21906   5.578   0.917   9.991 -1.9490  0.5406  2.0862
  190POPC   C2721907   5.662   1.082   9.881 -0.1437  0.1278 -0.5262
  190POPC   H7R21908   5.769   1.055   9.891 -0.1912 -0.7579 -1.9822
  190POPC   H7S21909   5.653   1.192   9.868 -0.4742  0.6294  3.0822
  190POPC   C2821910   5.600   1.010   9.754 -0.6540 -0.4345 -0.1170
  190POPC   H8R21911   5.489   1.010   9.764 -0.5068  0.7417  1.9357
  190POPC   H8S21912   5.622   0.901   9.749  0.2719 -0.2189 -1.0632
  190POPC   C2921913   5.647   1.080   9.625 -0.2299  0.1675  0.1258
  190POPC   H9121914   5.693   1.179   9.636 -0.9009  0.9602 -3.1017
  190POPC  C21021915   5.618   1.039   9.502 -0.0518  0.3418 -0.1287
  190POPC  H10121916   5.649   1.106   9.419  0.8799 -1.5429 -1.3748
  190POPC  C21121917   5.539   0.919   9.464 -0.0272  0.0968  0.9112
  190POPC  H11R21918   5.434   0.946   9.440  0.2568  1.2721  0.9303
  190POPC  H11S21919   5.521   0.850   9.548 -0.3050 -0.3841  0.4602
  190POPC  C21221920   5.599   0.852   9.343  0.0121  0.0799 -0.3643
  190POPC  H12R21921   5.550   0.753   9.343 -0.2156  0.1918  0.1082
  190POPC  H12S21922   5.707   0.840   9.367  0.0151  0.0059 -0.4141
  190POPC  C21321923   5.569   0.915   9.201 -0.0263  0.5002 -0.7965
  190POPC  H13R21924   5.640   0.999   9.189 -1.1284  1.4254 -1.0249
  190POPC  H13S21925   5.466   0.955   9.187 -0.6792 -0.7790  0.1124
  190POPC  C21421926   5.604   0.811   9.090 -0.0388 -0.3033 -0.3240
  190POPC  H14R21927   5.533   0.727   9.094  1.0562 -1.3198 -1.3632
  190POPC  H14S21928   5.709   0.776   9.096  0.2761  0.7544  0.9079
  190POPC  C21521929   5.579   0.874   8.951  0.1108 -0.8028 -0.1745
  190POPC  H15R21930   5.633   0.971   8.948  1.6248 -1.5899  0.6087
  190POPC  H15S21931   5.471   0.897   8.946  0.3027  0.4255  0.8768
  190POPC  C21621932   5.614   0.785   8.835  0.2393  0.4105  0.4426
  190POPC  H16R21933   5.539   0.703   8.833  0.6383  0.0071 -2.6707
  190POPC  H16S21934   5.715   0.741   8.848 -0.7420 -2.1831 -0.1976
  190POPC  C21721935   5.600   0.857   8.695  0.2317 -0.1858 -0.4934
  190POPC  H17R21936   5.597   0.965   8.722  0.0690  0.0016 -1.2587
  190POPC  H17S21937   5.495   0.836   8.666  0.2241 -0.8934  0.0054
  190POPC  C21821938   5.698   0.823   8.581 -0.7009 -0.2126 -0.0230
  190POPC  H18R21939   5.685   0.715   8.562 -0.7524 -0.3947  0.9880
  190POPC  H18S21940   5.805   0.838   8.609 -0.6520  0.4307 -0.5238
  190POPC  H18T21941   5.689   0.895   8.497  0.2572 -0.5341 -0.4104
  190POPC   C3321942   6.109   0.949  10.377 -0.3669 -0.4412  0.1244
  190POPC   H3X21943   6.006   0.910  10.363 -0.8405  0.2113  1.5465
  190POPC   H3Y21944   6.171   0.860  10.400  1.2076  0.8835  1.2137
  190POPC   C3421945   6.162   1.008  10.242  0.0528  0.0588  0.4830
  190POPC   H4X21946   6.149   0.928  10.166  0.5627 -0.8156  1.2779
  190POPC   H4Y21947   6.271   1.028  10.254  1.1465 -4.8809  1.2073
  190POPC   C3521948   6.089   1.140  10.203 -0.2667  0.7473  0.2883
  190POPC   H5X21949   6.129   1.232  10.250 -1.3450  0.4111  1.9448
  190POPC   H5Y21950   5.982   1.129  10.231 -0.0874 -1.0232  0.3756
  190POPC   C3621951   6.072   1.160  10.051 -0.6448 -0.0981 -0.1161
  190POPC   H6X21952   6.021   1.254  10.022 -1.4466 -0.2585  0.7275
  190POPC   H6Y21953   6.023   1.063  10.027  2.3127 -2.1266  1.4905
  190POPC   C3721954   6.198   1.159   9.966  0.5317 -0.0411 -0.0955
  190POPC   H7X21955   6.260   1.071   9.990  0.0699 -0.6543 -1.0851
  190POPC   H7Y21956   6.263   1.242  10.001  1.1458 -0.7920  0.5517
  190POPC   C3821957   6.176   1.158   9.812  0.7692  0.2577 -0.7650
  190POPC   H8X21958   6.161   1.265   9.788 -1.6719  0.2056  0.1729
  190POPC   H8Y21959   6.084   1.104   9.781  1.8431 -0.5782 -2.6176
  190POPC   C3921960   6.289   1.096   9.731  0.4378 -0.5689  0.0707
  190POPC   H9X21961   6.299   0.991   9.765  0.3255 -0.2129  1.2474
  190POPC   H9Y21962   6.380   1.153   9.759  0.0233 -0.3723  1.0542
  190POPC  C31021963   6.280   1.098   9.577 -0.3093  0.3142  0.7499
  190POPC  H10X21964   6.370   1.055   9.529 -1.5955  0.0346 -1.5832
  190POPC  H10Y21965   6.276   1.205   9.549  0.1066 -0.1570 -1.2575
  190POPC  C31121966   6.160   1.023   9.515  0.3379  0.8400  0.4394
  190POPC  H11X21967   6.061   1.035   9.564 -0.3055 -1.4221 -0.1857
  190POPC  H11Y21968   6.191   0.917   9.528  2.6181  1.6135  1.9712
  190POPC  C31221969   6.147   1.063   9.371 -0.2747  0.8490 -0.0134
  190POPC  H12X21970   6.250   1.076   9.330  0.2839 -0.2127  0.9897
  190POPC  H12Y21971   6.099   1.163   9.370 -1.2727  0.3691 -1.0770
  190POPC  C31321972   6.063   0.971   9.288  0.4158  0.2342  0.3864
  190POPC  H13X21973   5.954   0.958   9.306  0.4220 -2.2382 -0.8916
  190POPC  H13Y21974   6.101   0.867   9.298 -1.2391 -0.7079 -2.0467
  190POPC  C31421975   6.079   1.007   9.139  0.3451  0.0114 -0.2501
  190POPC  H14X21976   6.183   0.976   9.115  0.5109  0.0692  0.3741
  190POPC  H14Y21977   6.069   1.116   9.125 -0.9273 -0.0676 -0.0922
  190POPC  C31521978   5.978   0.925   9.062 -0.1810  0.1999 -0.6573
  190POPC  H15X21979   5.885   0.957   9.113  0.8522  0.9421  0.8549
  190POPC  H15Y21980   5.994   0.818   9.086 -0.7090  0.4576  0.9458
  190POPC  C31621981   5.990   0.946   8.911 -0.5861  0.2429 -0.3492
  190POPC  H16X21982   5.946   1.041   8.872  0.0350  0.5898 -0.2193
  190POPC  H16Y21983   5.924   0.872   8.861 -0.5431  0.8061 -1.2798
  190POPC  H16Z21984   6.093   0.924   8.875  1.2808  2.3665  3.1438
  191POPC     N21985   5.387   2.993   6.055  0.3144  0.6139 -0.5449
  191POPC   C1221986   5.341   2.994   6.200 -0.2013 -0.2473  0.0062
  191POPC  H12A21987   5.284   2.905   6.225 -0.7665  0.1781  0.2452
  191POPC  H12B21988   5.267   3.072   6.211 -0.8415 -0.4315 -2.4026
  191POPC   C1321989   5.275   2.983   5.958  0.0124 -0.4112  0.4097
  191POPC  H13A21990   5.199   3.059   5.970 -0.9229 -1.0106 -1.3549
  191POPC  H13B21991   5.314   3.010   5.861  0.4554 -0.2471  0.6272
  191POPC  H13C21992   5.221   2.890   5.956 -2.0832  0.7339  0.5786
  191POPC   C1421993   5.462   3.115   6.016 -0.4648 -0.5056 -0.7455
  191POPC  H14A21994   5.507   3.119   5.917 -0.5756  1.5365 -0.7697
  191POPC  H14B21995   5.395   3.200   6.013 -1.8078 -1.4380  1.3223
  191POPC  H14C21996   5.541   3.132   6.088  0.3722 -2.1319 -1.2378
  191POPC   C1521997   5.473   2.872   6.037 -0.1173 -0.4302  0.0445
  191POPC  H15A21998   5.516   2.881   5.938 -1.3235  0.4233 -0.4247
  191POPC  H15B21999   5.415   2.782   6.028 -2.4001  0.8676  1.0453
  191POPC  H15C22000   5.551   2.864   6.111  1.0085  1.5566 -0.8326
  191POPC   C1122001   5.442   3.004   6.315 -0.8886  0.0250  0.6488
  191POPC  H11A22002   5.506   2.914   6.304 -0.8834  0.3362 -3.0919
  191POPC  H11B22003   5.396   2.977   6.412 -2.2483  1.1506  0.3412
  191POPC     P22004   5.456   3.253   6.376  0.3845  0.0956  0.3695
  191POPC   O1322005   5.335   3.210   6.455 -0.0078 -0.6749  0.6785
  191POPC   O1422006   5.429   3.350   6.265  0.1912 -0.0538 -0.1874
  191POPC   O1222007   5.522   3.126   6.314 -0.4433 -0.3041 -0.1748
  191POPC   O1122008   5.568   3.328   6.473  0.7384 -0.2880  0.7602
  191POPC    C122009   5.633   3.240   6.563  0.0318  0.0050  0.1151
  191POPC    HA22010   5.737   3.230   6.526  0.3172  1.6974  0.3802
  191POPC    HB22011   5.583   3.142   6.577 -0.1671 -0.3948 -2.8809
  191POPC    C222012   5.656   3.309   6.704 -0.4897  0.5082  0.0119
  191POPC    HS22013   5.559   3.355   6.733 -1.1246 -1.0174  0.3810
  191POPC   O2122014   5.753   3.416   6.681 -0.1350  0.6954 -1.0353
  191POPC   C2122015   5.738   3.517   6.770  0.1037 -0.0409  0.7698
  191POPC   O2222016   5.642   3.531   6.844 -0.2490  0.3554  0.5438
  191POPC   C2222017   5.854   3.614   6.754 -0.4520 -0.1492 -0.2703
  191POPC   H2R22018   5.834   3.679   6.666 -1.7145  0.1782  0.2316
  191POPC   H2S22019   5.951   3.559   6.755  0.8807  2.0826  0.8464
  191POPC    C322020   5.696   3.206   6.815 -0.2193 -0.4152 -0.4375
  191POPC    HX22021   5.799   3.166   6.798 -1.4561 -4.2124  0.0545
  191POPC    HY22022   5.627   3.119   6.812 -2.1652  1.0737 -1.9405
  191POPC   O3122023   5.700   3.275   6.943  0.1605 -0.5612  0.0796
  191POPC   C3122024   5.587   3.285   7.015 -0.4621  0.0590  0.4444
  191POPC   O3222025   5.476   3.251   6.979  0.1445 -0.6649  0.1091
  191POPC   C3222026   5.626   3.359   7.143  0.3106 -0.5526 -0.0560
  191POPC   H2X22027   5.684   3.451   7.121 -0.8089 -0.0473 -0.9785
  191POPC   H2Y22028   5.705   3.302   7.197  3.7411  2.5862 -1.3919
  191POPC   C2322029   5.861   3.715   6.870 -0.4442 -0.1459  0.5392
  191POPC   H3R22030   5.766   3.770   6.887 -1.2868 -1.3419 -0.1530
  191POPC   H3S22031   5.937   3.788   6.835 -1.7588  1.4190  0.8377
  191POPC   C2422032   5.897   3.650   7.002 -0.2133 -0.5564 -0.9899
  191POPC   H4R22033   5.990   3.590   6.988  0.6070  0.1489  1.1023
  191POPC   H4S22034   5.817   3.579   7.030  2.4215 -3.1939  0.5368
  191POPC   C2522035   5.918   3.760   7.115  0.5072  0.1469 -0.0427
  191POPC   H5R22036   5.819   3.808   7.130  0.0184 -0.6745 -0.5587
  191POPC   H5S22037   5.984   3.842   7.079  0.6258  1.5830  3.0693
  191POPC   C2622038   5.981   3.716   7.243  0.2356 -0.3283  0.2473
  191POPC   H6R22039   6.027   3.791   7.310  0.8995  0.7818 -1.3760
  191POPC   H6S22040   6.071   3.655   7.218  0.0743 -0.7514  0.6754
  191POPC   C2722041   5.884   3.634   7.328 -0.4294 -0.0296 -0.5580
  191POPC   H7R22042   5.865   3.535   7.281 -0.5359  0.3892 -1.4340
  191POPC   H7S22043   5.790   3.693   7.340 -1.1614 -0.8764 -1.9349
  191POPC   C2822044   5.944   3.598   7.466  1.1653 -0.8620 -0.0814
  191POPC   H8R22045   6.031   3.663   7.487  0.8949 -0.6140  0.2653
  191POPC   H8S22046   5.979   3.492   7.472  1.2027 -0.9915 -1.8621
  191POPC   C2922047   5.837   3.625   7.575 -0.4289  0.1502  0.1710
  191POPC   H9122048   5.796   3.727   7.574  0.4686  0.5338 -1.7421
  191POPC  C21022049   5.778   3.536   7.661  0.1439  0.2601 -0.1596
  191POPC  H10122050   5.715   3.577   7.740 -3.2916 -1.5241 -1.7823
  191POPC  C21122051   5.803   3.386   7.669 -0.0352 -0.8064 -0.3057
  191POPC  H11R22052   5.834   3.348   7.570 -0.5131  1.3509 -1.3422
  191POPC  H11S22053   5.707   3.338   7.695 -0.8276 -0.0396 -1.7047
  191POPC  C21222054   5.912   3.348   7.775  0.4207 -0.1283  0.5723
  191POPC  H12R22055   5.899   3.402   7.871  1.2075  1.3025 -0.1048
  191POPC  H12S22056   6.010   3.374   7.730  0.4874 -0.3968  0.5607
  191POPC  C21322057   5.910   3.189   7.803 -0.7506 -0.3186  0.0789
  191POPC  H13R22058   5.925   3.133   7.708 -1.5456  2.2070 -1.6513
  191POPC  H13S22059   5.807   3.159   7.832 -0.8666  1.9122  2.2649
  191POPC  C21422060   6.013   3.148   7.904  0.5629  0.3202 -0.1385
  191POPC  H14R22061   6.000   3.210   7.995 -4.2446 -2.1877  1.2479
  191POPC  H14S22062   6.116   3.165   7.869  0.2931  0.1741 -1.0239
  191POPC  C21522063   6.009   2.995   7.929  0.5077  0.0900  0.1129
  191POPC  H15R22064   6.019   2.948   7.829  1.3724  2.5498 -1.0517
  191POPC  H15S22065   5.907   2.964   7.959 -0.2025  1.4793 -0.7413
  191POPC  C21622066   6.106   2.936   8.031  0.6146 -0.7334 -0.3060
  191POPC  H16R22067   6.064   2.931   8.134 -1.0515 -0.6768 -0.9404
  191POPC  H16S22068   6.194   3.002   8.045  0.4816 -0.4082 -0.9689
  191POPC  C21722069   6.164   2.804   7.995 -0.2394 -0.0045  0.5228
  191POPC  H17R22070   6.091   2.732   7.951 -0.8205  1.8729 -1.8369
  191POPC  H17S22071   6.211   2.757   8.083  0.9500 -0.2958 -0.2377
  191POPC  C21822072   6.284   2.806   7.894  0.0553 -0.0370  0.4904
  191POPC  H18R22073   6.251   2.831   7.791  0.5820 -1.1325  0.0412
  191POPC  H18S22074   6.329   2.704   7.888 -0.1261 -0.0562 -0.8191
  191POPC  H18T22075   6.365   2.874   7.925  0.6061 -0.6291  0.3839
  191POPC   C3322076   5.509   3.400   7.238  0.2856  0.3102  0.7785
  191POPC   H3X22077   5.416   3.421   7.181  0.0432 -0.8155  0.7259
  191POPC   H3Y22078   5.529   3.490   7.300  0.5864  0.3980  0.5549
  191POPC   C3422079   5.471   3.286   7.332 -0.0880 -0.2146  0.4967
  191POPC   H4X22080   5.549   3.277   7.411  1.0601  3.4833 -0.0016
  191POPC   H4Y22081   5.464   3.193   7.272  2.0993 -0.8056  1.0679
  191POPC   C3522082   5.342   3.308   7.421 -0.0345  0.6649 -0.2635
  191POPC   H5X22083   5.253   3.292   7.356 -0.6684  0.3742  0.6492
  191POPC   H5Y22084   5.342   3.406   7.474 -0.1885 -0.3568  1.7363
  191POPC   C3622085   5.323   3.211   7.542 -0.0623  0.3624 -0.2094
  191POPC   H6X22086   5.410   3.215   7.611 -0.4842  1.6870  0.2833
  191POPC   H6Y22087   5.319   3.108   7.501  1.8445  0.4470 -0.7466
  191POPC   C3722088   5.188   3.243   7.612  0.2352  0.1214  0.0048
  191POPC   H7X22089   5.171   3.154   7.676  1.6375  1.0848  1.8202
  191POPC   H7Y22090   5.116   3.256   7.528 -1.1149  1.9593  1.3567
  191POPC   C3822091   5.190   3.365   7.705 -0.5454 -0.2611  0.0686
  191POPC   H8X22092   5.084   3.393   7.721 -0.9225 -1.3377 -0.4383
  191POPC   H8Y22093   5.244   3.446   7.651 -0.7510 -1.5586 -2.2253
  191POPC   C3922094   5.255   3.342   7.835  0.0945 -0.8946 -0.9072
  191POPC   H9X22095   5.359   3.318   7.802  1.1657  3.7843 -1.6648
  191POPC   H9Y22096   5.197   3.272   7.898 -3.1910  1.7570 -0.7488
  191POPC  C31022097   5.265   3.470   7.922  0.1258  0.0679 -0.3592
  191POPC  H10X22098   5.173   3.517   7.965  0.4053  0.2892  0.0004
  191POPC  H10Y22099   5.317   3.550   7.866 -0.3533  0.1908 -0.6343
  191POPC  C31122100   5.353   3.432   8.051 -0.4751  0.3372  0.0769
  191POPC  H11X22101   5.302   3.353   8.110 -0.4884 -0.9616 -1.5977
  191POPC  H11Y22102   5.355   3.528   8.106  0.2815 -0.5513  1.6772
  191POPC  C31222103   5.501   3.402   8.029 -0.3911  0.1216  0.7177
  191POPC  H12X22104   5.546   3.469   7.953 -1.1977 -1.0885 -0.8938
  191POPC  H12Y22105   5.505   3.295   7.998  1.7860  0.1914  0.5897
  191POPC  C31322106   5.595   3.418   8.147  0.9854 -0.4222 -0.0099
  191POPC  H13X22107   5.534   3.361   8.221 -1.1526  1.5104 -0.1474
  191POPC  H13Y22108   5.603   3.523   8.182 -0.7177 -0.3424  0.2693
  191POPC  C31422109   5.733   3.338   8.134  0.3202 -0.0050 -0.2360
  191POPC  H14X22110   5.801   3.412   8.086  0.9012  0.1532  0.8153
  191POPC  H14Y22111   5.726   3.248   8.069 -1.7175 -1.8047  2.3062
  191POPC  C31522112   5.784   3.280   8.274  0.2407 -0.6475 -0.0179
  191POPC  H15X22113   5.698   3.211   8.291  0.2053 -1.2107 -2.2385
  191POPC  H15Y22114   5.785   3.361   8.350  0.3651 -1.3938  0.7927
  191POPC  C31622115   5.919   3.209   8.287  0.4664 -0.2468 -0.9443
  191POPC  H16X22116   6.001   3.284   8.296 -1.1990  1.8155 -2.0645
  191POPC  H16Y22117   5.938   3.152   8.194  1.8821 -0.4183 -0.5723
  191POPC  H16Z22118   5.924   3.140   8.374 -0.8147  1.2925  0.4078
  192POPC     N22119   4.131   0.031   6.018 -0.1781  0.0572 -0.3540
  192POPC   C1222120   4.247   0.117   6.048  0.1428  0.1479 -0.0727
  192POPC  H12A22121   4.318   0.113   5.967 -0.6521  0.3650 -0.7899
  192POPC  H12B22122   4.306   0.086   6.133 -0.4957  0.4423  0.4866
  192POPC   C1322123   4.030   0.051   6.123 -0.4157  0.5409  0.2908
  192POPC  H13A22124   3.934   0.011   6.094 -0.3694  1.0822 -0.6220
  192POPC  H13B22125   4.058  -0.003   6.212 -0.1874 -1.2909 -0.8475
  192POPC  H13C22126   4.014   0.156   6.145 -2.1481  0.7610 -1.6625
  192POPC   C1422127   4.077   0.068   5.879  0.2743  0.1441  0.0799
  192POPC  H14A22128   3.980   0.029   5.852 -0.0080  1.2933 -0.6327
  192POPC  H14B22129   4.060   0.173   5.898  1.3422  0.4184 -0.3602
  192POPC  H14C22130   4.151   0.042   5.804 -0.3583  0.2157 -0.5806
  192POPC   C1522131   4.176  -0.113   6.009 -0.4447  0.5221 -0.2537
  192POPC  H15A22132   4.251  -0.141   5.937 -0.6653 -0.6901 -0.0329
  192POPC  H15B22133   4.092  -0.174   5.983  0.9509 -1.1016 -1.1300
  192POPC  H15C22134   4.226  -0.143   6.100  0.3314  0.1397 -0.7901
  192POPC   C1122135   4.228   0.265   6.079  0.2916  0.5871 -0.1741
  192POPC  H11A22136   4.158   0.311   6.007  0.8693  3.0316  0.7442
  192POPC  H11B22137   4.326   0.318   6.073  0.4422  0.2777 -0.4780
  192POPC     P22138   4.119   0.392   6.274  0.1059 -0.3463 -0.2167
  192POPC   O1322139   3.998   0.396   6.188  0.3270  0.0949 -0.0177
  192POPC   O1422140   4.203   0.512   6.280 -0.8669 -0.4227  0.3233
  192POPC   O1222141   4.195   0.271   6.216 -0.2787  0.0675  0.2758
  192POPC   O1122142   4.078   0.356   6.418  0.0069 -0.3131  0.1330
  192POPC    C122143   4.097   0.227   6.472  0.8866 -0.2770 -0.8794
  192POPC    HA22144   4.200   0.187   6.456  0.0142 -3.8901  1.3237
  192POPC    HB22145   4.044   0.151   6.412 -0.1728 -0.1397 -0.1427
  192POPC    C222146   4.075   0.218   6.627  0.3876  0.1823 -0.2249
  192POPC    HS22147   3.974   0.253   6.655  0.5562  1.6249 -1.3179
  192POPC   O2122148   4.185   0.292   6.689 -0.7998 -0.1264  0.3531
  192POPC   C2122149   4.143   0.386   6.764 -0.1406  0.2691  0.6821
  192POPC   O2222150   4.030   0.434   6.759  0.2162  0.1442 -0.8189
  192POPC   C2222151   4.242   0.429   6.869  0.2582 -0.2254 -0.1770
  192POPC   H2R22152   4.329   0.466   6.811  0.0125  0.4452 -0.1274
  192POPC   H2S22153   4.274   0.346   6.936 -1.4210  0.8338  2.0561
  192POPC    C322154   4.085   0.068   6.664  0.5156 -0.1299 -0.0500
  192POPC    HX22155   4.188   0.034   6.644  1.3222  1.4191  1.2105
  192POPC    HY22156   4.014   0.002   6.610 -0.0083 -0.5156  1.0672
  192POPC   O3122157   4.071   0.053   6.801  0.4345 -0.2771 -0.1344
  192POPC   C3122158   4.074  -0.067   6.849  0.2371  0.5134  0.1091
  192POPC   O3222159   4.074  -0.169   6.777  0.0819  0.0482 -0.0219
  192POPC   C3222160   4.067  -0.076   6.998  0.2430 -0.2480  0.1396
  192POPC   H2X22161   4.135  -0.159   7.026  0.0493 -1.4809 -2.7050
  192POPC   H2Y22162   3.960  -0.091   7.024 -0.4995 -0.5381 -2.7240
  192POPC   C2322163   4.190   0.554   6.956 -1.2420 -0.0667  0.4629
  192POPC   H3R22164   4.148   0.635   6.892  0.3133  0.1869 -0.2785
  192POPC   H3S22165   4.275   0.593   7.015 -2.5542  1.1647  1.6195
  192POPC   C2422166   4.082   0.502   7.060 -0.8002 -0.3716  0.4253
  192POPC   H4R22167   4.116   0.430   7.138  0.6223 -0.0892  0.0907
  192POPC   H4S22168   3.991   0.468   7.006 -1.2809 -0.3538  1.2248
  192POPC   C2522169   4.017   0.624   7.138 -0.5155  0.3318 -0.9058
  192POPC   H5R22170   4.000   0.697   7.055 -0.7283 -1.5033 -2.5593
  192POPC   H5S22171   4.091   0.668   7.207 -0.5959 -0.5008 -0.2750
  192POPC   C2622172   3.891   0.586   7.213  0.6697 -0.1411 -0.6610
  192POPC   H6R22173   3.827   0.514   7.158  1.6909 -1.8407  0.2837
  192POPC   H6S22174   3.828   0.677   7.223 -0.5941 -0.9471 -0.9794
  192POPC   C2722175   3.912   0.520   7.352  0.3025  0.5344  0.9039
  192POPC   H7R22176   3.966   0.592   7.417 -1.8054  2.1221  1.0168
  192POPC   H7S22177   3.966   0.424   7.339 -0.5036  0.4793 -3.5275
  192POPC   C2822178   3.781   0.480   7.425 -0.2955  0.2046 -0.0199
  192POPC   H8R22179   3.811   0.454   7.528 -0.8193 -0.3436  0.0004
  192POPC   H8S22180   3.756   0.386   7.372  0.7543  0.1224 -0.3832
  192POPC   C2922181   3.671   0.582   7.434 -0.5834 -0.4206  0.0078
  192POPC   H9122182   3.613   0.582   7.340 -0.7020 -0.6373  0.0796
  192POPC  C21022183   3.632   0.656   7.538 -0.0797 -0.2137  0.0921
  192POPC  H10122184   3.554   0.733   7.529 -0.1587 -0.2523  0.4095
  192POPC  C21122185   3.700   0.659   7.673  0.3657  0.0017  0.3070
  192POPC  H11R22186   3.717   0.762   7.711  0.7392  0.8031 -1.8902
  192POPC  H11S22187   3.805   0.624   7.677  0.2947 -0.2632 -0.0938
  192POPC  C21222188   3.628   0.578   7.783 -0.0547  0.1201 -0.0217
  192POPC  H12R22189   3.612   0.472   7.755  0.2699  0.1701 -0.4002
  192POPC  H12S22190   3.529   0.620   7.810  0.1089  1.4939 -1.4691
  192POPC  C21322191   3.710   0.583   7.917 -0.2895  0.0522 -0.3003
  192POPC  H13R22192   3.810   0.538   7.898 -0.1688  0.2329 -0.0904
  192POPC  H13S22193   3.668   0.508   7.986 -0.6121  1.7097  1.3834
  192POPC  C21422194   3.724   0.714   7.984 -0.4497 -0.3318 -0.6775
  192POPC  H14R22195   3.622   0.758   7.994 -0.1119  0.1629  0.6440
  192POPC  H14S22196   3.786   0.796   7.941  1.1660  0.2683  2.5441
  192POPC  C21522197   3.774   0.708   8.134  0.3865  0.4615  0.6764
  192POPC  H15R22198   3.829   0.801   8.161  2.4118 -0.2341 -0.8436
  192POPC  H15S22199   3.849   0.626   8.137 -0.3125 -0.1875  0.6342
  192POPC  C21622200   3.658   0.678   8.226  0.4713  0.3786 -0.2336
  192POPC  H16R22201   3.590   0.607   8.174  0.5302 -0.6494  1.0683
  192POPC  H16S22202   3.603   0.773   8.244  0.2410  0.3693 -0.8566
  192POPC  C21722203   3.710   0.618   8.359  0.2204 -0.4245 -0.2023
  192POPC  H17R22204   3.776   0.531   8.337 -0.5781 -0.5398 -2.4467
  192POPC  H17S22205   3.628   0.579   8.423 -2.2275 -0.5119 -3.1810
  192POPC  C21822206   3.795   0.723   8.437  0.1478 -0.7956  0.5902
  192POPC  H18R22207   3.807   0.682   8.540  0.5968  0.7814  1.2000
  192POPC  H18S22208   3.734   0.815   8.449 -0.8653 -1.3840  0.0718
  192POPC  H18T22209   3.887   0.737   8.377 -0.3788 -2.7625 -0.7733
  192POPC   C3322210   4.131   0.044   7.070  0.4496  0.5530 -0.3137
  192POPC   H3X22211   4.061   0.128   7.054  0.5445  0.4436 -1.4117
  192POPC   H3Y22212   4.231   0.076   7.032 -0.2504 -1.0298 -3.8614
  192POPC   C3422213   4.133   0.015   7.220  0.3432  0.0733  0.6314
  192POPC   H4X22214   4.206  -0.063   7.249  1.0962  0.2127 -0.7930
  192POPC   H4Y22215   4.034  -0.004   7.268  1.3785 -0.0614  2.8498
  192POPC   C3522216   4.179   0.137   7.302 -0.6188 -0.2869  0.2246
  192POPC   H5X22217   4.118   0.225   7.272 -0.1079 -0.0073 -0.0039
  192POPC   H5Y22218   4.283   0.159   7.268 -1.7917  2.0432 -2.2146
  192POPC   C3622219   4.174   0.119   7.455  0.3475  0.7221 -0.0712
  192POPC   H6X22220   4.230   0.204   7.499 -0.0634  1.3160 -0.6809
  192POPC   H6Y22221   4.230   0.030   7.491  3.0143  1.9790 -0.8355
  192POPC   C3722222   4.033   0.131   7.519 -0.0768  0.6694 -0.0680
  192POPC   H7X22223   3.982   0.032   7.520 -1.3771  1.3090 -0.0033
  192POPC   H7Y22224   3.980   0.201   7.451 -0.3103  0.4845 -0.0775
  192POPC   C3822225   4.021   0.176   7.666  0.0428 -1.1194  0.4169
  192POPC   H8X22226   4.079   0.102   7.724  0.5082 -1.9754 -1.0857
  192POPC   H8Y22227   3.915   0.178   7.699  0.6930 -1.5006  2.7032
  192POPC   C3922228   4.066   0.321   7.685 -0.9833 -0.2229  0.0358
  192POPC   H9X22229   4.025   0.386   7.604 -1.8467  2.5199  2.5200
  192POPC   H9Y22230   4.174   0.334   7.663 -0.3273 -2.5693  1.5024
  192POPC  C31022231   4.021   0.386   7.817 -0.6106  0.7552  0.1232
  192POPC  H10X22232   3.912   0.368   7.815 -0.7959  1.5224 -3.0904
  192POPC  H10Y22233   4.033   0.497   7.814  1.3952  0.6548  2.0333
  192POPC  C31122234   4.086   0.325   7.942  0.9015 -0.7385 -0.0105
  192POPC  H11X22235   4.192   0.353   7.921  0.7593 -0.1487  0.0249
  192POPC  H11Y22236   4.078   0.215   7.936  0.0942 -0.9882  3.5587
  192POPC  C31222237   4.026   0.380   8.074  0.1261 -0.0840  0.0051
  192POPC  H12X22238   3.918   0.355   8.075 -0.1946  1.2538  0.1188
  192POPC  H12Y22239   4.037   0.490   8.071 -2.9008  0.5667  3.9485
  192POPC  C31322240   4.091   0.312   8.190 -0.1497  1.0517  0.4359
  192POPC  H13X22241   4.199   0.324   8.170 -0.6344  5.1491 -0.4566
  192POPC  H13Y22242   4.051   0.208   8.180 -2.6367  1.9459  0.4196
  192POPC  C31422243   4.061   0.383   8.319 -0.2032 -0.1086 -0.2128
  192POPC  H14X22244   3.950   0.388   8.316 -0.1699  1.5892 -0.0010
  192POPC  H14Y22245   4.096   0.487   8.301  0.3503 -0.4953 -1.4672
  192POPC  C31522246   4.128   0.317   8.445  0.1869 -0.0841  0.0531
  192POPC  H15X22247   4.229   0.308   8.399 -0.1783  0.3143 -0.8574
  192POPC  H15Y22248   4.090   0.215   8.467  1.2779 -0.6890 -0.7002
  192POPC  C31622249   4.138   0.412   8.567 -0.5358  0.6745  0.1771
  192POPC  H16X22250   4.036   0.449   8.590 -1.4048 -0.9339 -0.8746
  192POPC  H16Y22251   4.207   0.497   8.548  0.3160  0.2411  1.1891
  192POPC  H16Z22252   4.181   0.347   8.647 -0.8490  0.8600  0.4975
  193SOD    SOD22253   6.696   1.405   5.926  0.0368 -0.1596  0.1972
  194SOD    SOD22254   4.657   5.069  13.997 -0.2118 -0.2388  0.4795
  195SOD    SOD22255   2.660   2.776   4.971 -0.1861 -0.0010 -0.2479
  196SOD    SOD22256   2.598   0.271  16.028  0.2298  0.0004  0.1511
  197SOD    SOD22257   4.339   1.068  16.454 -0.0251  0.0726 -0.4119
  198SOD    SOD22258   3.202   0.090   0.000 -0.2075  0.5952 -0.2120
  199SOD    SOD22259   0.438   5.596  13.581  0.1720  0.0551  0.3329
  200SOD    SOD22260   5.454   4.224   5.990 -0.5706  0.1864 -0.1114
  201SOD    SOD22261   5.192   3.145   6.619  0.1095  0.1409 -0.4389
  202SOD    SOD22262   1.477   6.530  11.895  0.8587 -0.4913  0.0653
  203SOD    SOD22263   3.004   5.173   0.025 -0.1025 -0.3478 -0.1201
  204SOD    SOD22264   1.063   2.941   2.416 -0.1160  0.5979  0.1187
  205SOD    SOD22265   2.491   3.289   2.284 -0.1566  0.0792 -0.1606
  206SOD    SOD22266   4.595   2.967  13.075 -0.6420 -0.0058 -0.5016
  207SOD    SOD22267   2.059   6.104  15.441  0.2719 -0.6072  0.3901
  208SOD    SOD22268   6.380   0.209  10.878  0.2245 -0.2635 -0.2555
  209SOD    SOD22269   5.109   1.741   2.758  0.1160  0.0285  0.0677
  210SOD    SOD22270   5.852   5.173  10.836 -0.1451 -0.1885  0.6512
  211SOD    SOD22271   0.415   3.521   5.923 -1.1075  0.0749 -0.3075
  212SOD    SOD22272   1.353   6.369  11.154 -0.2435 -0.3213 -0.7953
  213SOD    SOD22273   6.555   0.282   0.499 -0.0305 -0.2713  0.1578
  214SOD    SOD22274   4.707   3.719  14.325 -0.3543  0.5610 -0.3531
  215SOD    SOD22275   1.230   0.514  12.371 -0.1513  0.0401  0.6247
  216SOD    SOD22276   2.747   3.054   4.352  0.5854 -0.5012  0.1847
  217SOD    SOD22277   2.708   0.282  15.182  0.2768  0.1091 -0.3509
  218SOD    SOD22278   4.613   1.338  10.697 -0.4204  0.2411  0.2267
  219SOD    SOD22279   3.242   2.306  14.032  0.2242 -0.0084 -0.2980
  220SOD    SOD22280   2.178   5.443   5.494  0.2327 -0.2861 -0.2112
  221SOD    SOD22281   2.654   3.383   4.729 -0.2770  0.3177  0.4259
  222SOD    SOD22282   1.518   4.988  11.549 -0.4624  0.0079  0.0123
  223SOD    SOD22283   6.533   6.520  12.729  0.3240  0.2273 -0.0017
  224SOD    SOD22284   3.667   2.797   5.816  0.1904 -0.5989  0.1751
  225SOD    SOD22285   4.767   4.778  12.733  0.2798 -0.0945 -0.1628
  226SOD    SOD22286   0.033   5.130  13.584  0.4180 -0.7447 -0.4605
  227SOD    SOD22287   5.101   6.250   5.974  0.0619  0.0228  0.1476
  228SOD    SOD22288   3.032   6.265   1.717  0.2382 -0.2645  0.1118
  229SOD    SOD22289   2.592   1.585  14.637 -0.7806 -0.0275 -0.0613
  230SOD    SOD22290   4.516   6.059  13.257  0.1224  0.3093 -0.3968
  231SOD    SOD22291   6.454   1.779   1.732  0.0131  0.4068  0.1179
  232SOD    SOD22292   5.238   2.033  13.974 -0.1220  0.2131  0.3516
  233SOD    SOD22293   4.342   2.432   3.951 -0.3550 -0.1757  0.0170
  234SOD    SOD22294   4.371   3.620  10.845  0.4629 -0.0254 -0.8551
  235SOD    SOD22295   6.037   2.097   6.011 -0.3171 -0.7958 -0.2071
  236SOD    SOD22296   1.516   1.119  14.661  0.4572 -0.0566  0.3512
  237SOD    SOD22297   5.922   5.339   1.137  0.4779  0.2005 -0.4033
  238SOD    SOD22298   0.273   2.184  15.614 -0.1556 -0.4903 -0.0044
  239SOD    SOD22299   4.543   4.951   4.707  0.0794 -0.1721 -0.0235
  240SOD    SOD22300   3.634   2.361  15.115 -0.5167 -0.2088 -0.3029
  241SOD    SOD22301   2.518   0.964   1.670 -0.1662  0.8604 -0.5967
  242SOD    SOD22302   4.016   1.929   6.060 -0.1916 -0.1236 -0.6660
  243SOD    SOD22303   3.679   3.757  11.508 -0.1221 -0.0135 -0.3247
  244SOD    SOD22304   1.598   2.159  17.085  0.3505  0.1180 -0.5003
  245SOD    SOD22305   1.599   2.868   5.446 -0.0603  0.9425 -0.0234
  246SOD    SOD22306   1.978   6.732  16.743  0.4072 -0.3134  0.1205
  247SOD    SOD22307   3.451   1.977   6.071  0.0220 -0.2590 -0.4562
  248SOD    SOD22308   3.985   6.452  11.467  0.0396 -0.0049  0.2158
  249SOD    SOD22309   4.335   2.706   2.268 -0.3296  0.1190 -0.3008
  250SOD    SOD22310   6.494   6.604  16.584 -0.0431  0.2617 -0.5446
  251SOD    SOD22311   1.266   1.200   6.343 -0.1332  0.0347  0.2780
  252SOD    SOD22312   1.803   6.288   1.625 -0.5055 -0.2468 -0.3038
  253SOD    SOD22313   0.704   4.773   5.985  0.6203  0.5271  0.5197
  254SOD    SOD22314   3.390   2.811   0.922  0.0572  0.2422  0.0482
  255SOD    SOD22315   2.096   4.576  17.109  0.0331 -0.3507  0.4087
  256SOD    SOD22316   4.155   2.999   6.138 -0.5498 -0.0721  0.0701
  257SOD    SOD22317   3.116   6.055  14.822 -0.4060 -0.0419 -0.1445
  258SOD    SOD22318   1.693   3.393  16.249 -0.1282  0.0379 -0.2773
  259SOD    SOD22319   4.480   0.568   2.027 -0.0629  0.3236  0.0047
  260SOD    SOD22320   0.489   1.358  11.034  0.2575 -0.2881 -0.3709
  261SOD    SOD22321   5.710   3.046   4.161 -0.0865 -0.4120  0.5781
  262SOD    SOD22322   6.321   2.853  10.839 -0.1487  0.2155 -0.1229
  263SOD    SOD22323   6.364   3.426  13.804  0.1348  0.4837 -0.5668
  264SOD    SOD22324   2.641   6.656   4.977  0.0120  0.0451 -0.5327
  265SOD    SOD22325   5.842   5.565  14.158  0.1373  0.3330 -0.4314
  266SOD    SOD22326   1.837   3.077  10.832  0.0229 -0.3320 -0.0545
  267SOD    SOD22327   1.440   6.003   2.862  0.1309 -0.4980  0.0585
  268SOD    SOD22328   3.791   3.115  17.210  0.2384 -0.1830  0.2274
  269SOD    SOD22329   4.396   3.433  15.932  0.1081  0.3118 -0.1010
  270CLA    CLA22330   3.030   1.181  15.872 -0.0107 -0.1149  0.2355
  271CLA    CLA22331   4.664   1.664   0.070  0.0441 -0.3781 -0.5167
  272CLA    CLA22332   6.671   0.241  12.878 -0.3338  0.0257  0.4521
  273CLA    CLA22333   4.018   4.625  14.660  0.1406  0.0089 -0.3561
  274CLA    CLA22334   6.557   1.656   4.747 -0.0572 -0.0251  0.3550
  275CLA    CLA22335   1.589   5.537  17.068 -0.2400 -0.1432 -0.2173
  276CLA    CLA22336   2.694   5.440   3.868  0.2327 -0.1715 -0.0096
  277CLA    CLA22337   0.511   5.061  13.552  0.1112  0.1290 -0.1240
  278CLA    CLA22338   1.166   0.895   4.184  0.0991 -0.1343  0.0634
  279CLA    CLA22339   4.838   2.135   1.723  0.2708 -0.1474  0.0245
  280CLA    CLA22340   1.578   2.029   1.491  0.1276  0.1788  0.0141
  281CLA    CLA22341   4.768   3.601  13.364 -0.3259  0.0896 -0.1816
  282CLA    CLA22342   2.284   4.213  15.865 -0.0746  0.2109  0.1261
  283CLA    CLA22343   6.526   6.088  16.451  0.0318 -0.6133 -0.1552
  284CLA    CLA22344   0.411   0.815  13.097 -0.1236  0.2674 -0.2101
  285CLA    CLA22345   5.316   0.427  12.990 -0.0456 -0.2936  0.0219
  286CLA    CLA22346   0.171   3.614   0.166  0.1503  0.4415  0.1409
  287CLA    CLA22347   0.079   3.480  14.730  0.2956  0.6128  0.2076
  288CLA    CLA22348   1.729   6.681   1.305  0.0116  0.1230  0.2306
  289CLA    CLA22349   3.015   0.426   2.460 -0.2215  0.0399  0.0954
  290CLA    CLA22350   1.298   5.375   3.974  0.0039 -0.0668  0.7085
  291CLA    CLA22351   3.790   2.105   0.211  0.1603  0.2767 -0.2875
  292CLA    CLA22352   2.553   1.926   5.704 -0.0529  0.1549  0.3234
  293CLA    CLA22353   4.752   3.620   1.222 -0.6020 -0.3185  0.3630
  294CLA    CLA22354   1.212   3.798  11.497  0.3139 -0.0237 -0.3525
  295CLA    CLA22355   2.543   3.068   2.424 -0.0308  0.0939 -0.3968
  296CLA    CLA22356   3.541   3.930   2.268  0.2393 -0.3195  0.1874
  297CLA    CLA22357   3.854   4.342  13.428  0.1218  0.5149 -0.0330
  298CLA    CLA22358   2.468   4.832   4.698  0.0419  0.1050 -0.2258
  299CLA    CLA22359   2.175   0.092   2.915 -0.2888  0.2192 -0.4683
  300CLA    CLA22360   4.440   2.612  17.242 -0.1509  0.1878  0.2129
  301CLA    CLA22361   1.279   0.491  13.183 -0.0823  0.3122 -0.3193
  302CLA    CLA22362   4.779   1.040   2.942  0.3168 -0.0036 -0.2349
  303CLA    CLA22363   0.651   6.432   0.735  0.0627  0.1332 -0.2632
  304CLA    CLA22364   5.306   2.392  15.156  0.1531 -0.2703 -0.2205
  305CLA    CLA22365   6.329   4.660  12.007  0.2946 -0.4210  0.0729
  306CLA    CLA22366   2.389   2.985   4.660 -0.3630  0.0827 -0.0882
  307CLA    CLA22367   5.879   2.904   3.656  0.1653  0.1012  0.0577
  308CLA    CLA22368   0.920   3.339   2.617 -0.2872 -0.3770  0.0918
  309CLA    CLA22369   0.812   0.349  15.170 -0.1008  0.0951  0.6742
  310CLA    CLA22370   1.294   5.413  13.891 -0.2566  0.0414 -0.7006
  311CLA    CLA22371   3.051   2.275  13.485  0.3038  0.1633  0.1328
  312CLA    CLA22372   5.143   6.708   0.311 -0.5519  0.1198 -0.4445
  313CLA    CLA22373   3.619   5.719  16.695  0.1973  0.5222 -0.2415
  314CLA    CLA22374   3.611   6.269  17.058  0.3776  0.2737  0.0865
  315CLA    CLA22375   5.142   2.584  14.648  0.6934  0.0595 -0.0680
  316CLA    CLA22376   1.875   5.863   4.882  0.0592 -0.3340  0.2685
  317CLA    CLA22377   5.002   3.205   5.524  0.0863 -0.1182  0.0329
  318CLA    CLA22378   0.666   3.061  14.540  0.7021  0.3425  0.0191
  319CLA    CLA22379   4.699   3.344  14.088  0.0192 -0.0684 -0.2407
  320CLA    CLA22380   3.927   5.331   4.262  0.1054 -0.1436 -0.3303
  321CLA    CLA22381   0.175   1.310   4.089  0.1281  0.1088 -0.3368
  322CLA    CLA22382   0.585   0.330  14.278  0.0682 -0.2327  0.4522
  323TIP3   OH222383   1.684   3.540   2.220  0.7139 -0.4731  0.1989
  323TIP3    H122384   1.620   3.571   2.284  0.6697  0.0132 -0.0792
  323TIP3    H222385   1.659   3.583   2.138  1.0031 -0.7920 -0.0583
  324TIP3   OH222386   3.610   0.062  13.475  0.3556 -0.1833  0.3075
  324TIP3    H122387   3.545   0.091  13.539  0.2533 -0.4228  0.3154
  324TIP3    H222388   3.639   0.142  13.432  0.2867 -0.0414  0.5244
  325TIP3   OH222389   2.302   2.915  12.267 -0.1833  0.7687 -0.1329
  325TIP3    H122390   2.321   2.892  12.358  1.4621  1.0348 -0.3800
  325TIP3    H222391   2.292   2.830  12.223 -1.8492  0.6368  0.4237
  326TIP3   OH222392   1.303   3.707  14.626  0.4450  0.1994  0.0893
  326TIP3    H122393   1.247   3.648  14.576  1.8528 -0.7167 -0.4773
  326TIP3    H222394   1.270   3.702  14.716 -0.0394 -0.7302 -0.1335
  327TIP3   OH222395   2.532   3.999  11.996  0.1648 -0.0537 -0.0041
  327TIP3    H122396   2.562   4.024  11.908  0.6019  0.4098  0.2750
  327TIP3    H222397   2.544   3.904  12.000  0.0153 -0.0977 -0.4903
  328TIP3   OH222398   2.079   2.696   2.108  0.6197 -0.3117  0.2406
  328TIP3    H122399   2.070   2.602   2.119 -0.4389 -0.4767 -1.5784
  328TIP3    H222400   2.021   2.734   2.175  1.0479 -0.9285  0.9743
  329TIP3   OH222401   0.129   1.202   4.810 -0.1209  0.7097 -0.6033
  329TIP3    H122402   0.152   1.147   4.735  0.2817 -1.0715  0.7673
  329TIP3    H222403   0.035   1.190   4.821  0.1346 -0.5893  0.3320
  330TIP3   OH222404   1.949   4.255   4.183  0.1179  0.2606  0.1220
  330TIP3    H122405   1.950   4.216   4.096 -0.2918  0.9949 -0.2197
  330TIP3    H222406   1.863   4.296   4.190  0.6882  1.4553  0.3119
  331TIP3   OH222407   3.413   3.279  13.644  0.2596 -0.7132  0.2406
  331TIP3    H122408   3.475   3.258  13.574  0.1909 -0.3836  0.0788
  331TIP3    H222409   3.400   3.196  13.690  1.0054 -0.7426  0.4237
  332TIP3   OH222410   0.240   6.433   4.939  0.4162  0.1763 -0.1236
  332TIP3    H122411   0.293   6.385   5.002 -1.3061  1.2591  2.2983
  332TIP3    H222412   0.258   6.525   4.957 -0.2772  0.5161 -1.0698
  333TIP3   OH222413   3.438   0.413   5.604 -0.6896  0.6225 -0.0171
  333TIP3    H122414   3.443   0.318   5.590 -1.7646  0.4895  0.4736
  333TIP3    H222415   3.444   0.450   5.515  0.1340  0.1297 -0.1812
  334TIP3   OH222416   2.022   3.831   6.349  0.2344 -0.3542 -0.3358
  334TIP3    H122417   2.049   3.906   6.402  2.2192 -0.8201 -0.6011
  334TIP3    H222418   1.987   3.768   6.413  0.2486  0.0878  0.1143
  335TIP3   OH222419   3.012   0.671   6.072 -0.2183 -0.3277  0.1920
  335TIP3    H122420   2.989   0.598   6.015  0.2992 -0.7821  0.5457
  335TIP3    H222421   3.104   0.655   6.095 -0.3487 -0.0250  0.9467
  336TIP3   OH222422   4.640   4.811  10.544  0.0897 -0.2411  0.2522
  336TIP3    H122423   4.592   4.849  10.618 -0.6026  0.5821 -0.5984
  336TIP3    H222424   4.589   4.835  10.467  1.2188 -0.4106 -0.5788
  337TIP3   OH222425   4.036   4.449   5.285 -0.2787 -0.3640  0.0301
  337TIP3    H122426   4.095   4.521   5.262  2.3313 -2.0906  0.9009
  337TIP3    H222427   3.951   4.477   5.250  1.1650  1.8854 -2.0985
  338TIP3   OH222428   1.761   1.436  16.183 -0.0841  0.4000  0.1688
  338TIP3    H122429   1.792   1.415  16.271 -2.6189  1.0129  1.2901
  338TIP3    H222430   1.706   1.514  16.195 -0.7640  0.2912 -1.9134
  339TIP3   OH222431   5.244   6.648   0.957 -0.2665  0.1021  0.0925
  339TIP3    H122432   5.208   6.561   0.940 -0.3687  0.0677  0.4916
  339TIP3    H222433   5.241   6.658   1.052 -0.6375  0.7058  0.0237
  340TIP3   OH222434   1.919   5.825   0.503 -0.0043 -0.9533  0.0662
  340TIP3    H122435   1.950   5.831   0.413 -1.8157  0.1051 -0.5403
  340TIP3    H222436   1.881   5.737   0.510 -0.5838 -0.7507 -0.4656
  341TIP3   OH222437   2.282   3.944  11.473  0.2128 -0.3059 -0.5141
  341TIP3    H122438   2.319   3.863  11.437  0.2416  0.1137 -1.4471
  341TIP3    H222439   2.269   4.001  11.397 -2.7753 -0.5710 -0.3116
  342TIP3   OH222440   0.049   5.426  11.161 -0.1038  0.5142 -0.0333
  342TIP3    H122441   0.032   5.410  11.069  0.9254 -0.6328 -0.0484
  342TIP3    H222442   0.138   5.394  11.175 -0.7379 -0.6723  1.6501
  343TIP3   OH222443   6.159   3.074  16.833 -0.6239 -0.1629 -0.1426
  343TIP3    H122444   6.225   3.068  16.763  0.6063 -0.1443  0.9817
  343TIP3    H222445   6.141   2.983  16.857  1.2524 -0.1300  1.5753
  344TIP3   OH222446   3.068   6.291   5.404  0.2028  0.0973  0.3841
  344TIP3    H122447   3.079   6.197   5.389 -0.2131  0.2362 -0.9507
  344TIP3    H222448   3.093   6.304   5.496  0.1752 -1.3217  0.6167
  345TIP3   OH222449   1.591   1.236  14.489  0.0083  0.1243 -0.0292
  345TIP3    H122450   1.584   1.200  14.401  0.3608  0.5586 -0.2417
  345TIP3    H222451   1.578   1.330  14.477  0.0456  0.1845  0.3875
  346TIP3   OH222452   0.380   0.895   1.972 -0.1674 -0.0310  1.1844
  346TIP3    H122453   0.374   0.802   1.952 -0.6392 -0.4252  3.0046
  346TIP3    H222454   0.470   0.919   1.950 -0.1512 -0.8114  0.3494
  347TIP3   OH222455   5.360   2.814  11.070 -0.0961  0.5111 -0.0972
  347TIP3    H122456   5.454   2.800  11.078 -0.2836 -0.8571 -0.1694
  347TIP3    H222457   5.349   2.853  10.983  0.3983  0.7784 -0.0451
  348TIP3   OH222458   6.121   3.501  14.369 -0.2724  1.0045 -0.1349
  348TIP3    H122459   6.067   3.507  14.290  0.1024 -0.4345 -0.5147
  348TIP3    H222460   6.211   3.499  14.337 -0.0190  2.0862  0.4362
  349TIP3   OH222461   5.842   4.228  15.781  0.3132  0.3820 -0.4238
  349TIP3    H122462   5.869   4.190  15.697  0.3760 -0.1594 -0.1632
  349TIP3    H222463   5.778   4.295  15.758 -0.9472 -0.9027 -0.8208
  350TIP3   OH222464   2.978   6.506   1.725 -0.2608 -0.0064 -0.6978
  350TIP3    H122465   3.042   6.577   1.736 -0.8960  0.5266 -0.3980
  350TIP3    H222466   2.893   6.548   1.735 -0.6418 -0.9026  0.0021
  351TIP3   OH222467   5.854   1.473   4.273 -0.4415 -0.4421 -0.0551
  351TIP3    H122468   5.800   1.549   4.294  0.2237  0.0812 -0.2115
  351TIP3    H222469   5.929   1.509   4.225  0.7945 -0.9645  1.4154
  352TIP3   OH222470   2.291   1.441   2.979 -0.0095  0.0874  0.2732
  352TIP3    H122471   2.339   1.425   3.061 -1.3645 -0.8345  0.9355
  352TIP3    H222472   2.268   1.353   2.948 -0.9437  0.4888 -0.2011
  353TIP3   OH222473   6.342   2.970   3.970 -0.4750 -0.2861 -0.5178
  353TIP3    H122474   6.390   3.053   3.965  0.1582 -0.6699 -1.0282
  353TIP3    H222475   6.365   2.935   4.057  1.0812 -0.9790 -1.1613
  354TIP3   OH222476   6.259   0.982  16.049  0.7705  0.1647 -0.8377
  354TIP3    H122477   6.172   0.944  16.037  0.2668  1.4497 -1.4637
  354TIP3    H222478   6.318   0.920  16.007 -0.0911  0.3574 -2.4155
  355TIP3   OH222479   2.020   6.019   3.746 -0.4521 -0.0212 -0.5018
  355TIP3    H122480   2.089   6.059   3.799 -1.3089 -0.5879  1.1470
  355TIP3    H222481   2.050   5.929   3.732 -1.8043 -1.0568  2.3227
  356TIP3   OH222482   4.547   6.445  16.875 -0.3133  0.2309 -0.0158
  356TIP3    H122483   4.616   6.452  16.941  1.0472 -1.3964 -1.1588
  356TIP3    H222484   4.582   6.490  16.798  0.8372 -2.9716 -1.5367
  357TIP3   OH222485   3.937   6.530   3.682  0.3249 -0.6024  0.0353
  357TIP3    H122486   3.985   6.457   3.721 -0.6253 -1.9119 -1.1296
  357TIP3    H222487   3.945   6.516   3.588 -4.1319 -2.2605 -0.3130
  358TIP3   OH222488   6.550   4.062   3.209 -0.5629 -0.8451  0.0370
  358TIP3    H122489   6.544   4.052   3.114  0.2062  2.4857 -0.4901
  358TIP3    H222490   6.635   4.024   3.231 -1.0832 -2.3658 -0.4229
  359TIP3   OH222491   5.091   1.445  16.315 -0.7426 -1.0900  0.4466
  359TIP3    H122492   5.098   1.373  16.377 -1.5005 -2.1130 -0.6352
  359TIP3    H222493   5.095   1.404  16.228 -2.0543  0.0677 -0.1985
  360TIP3   OH222494   0.053   2.270   4.590 -0.0654 -0.0332  0.1822
  360TIP3    H122495   0.135   2.293   4.547 -0.4273  0.4602 -0.2515
  360TIP3    H222496   0.052   2.174   4.592  0.1676 -0.0483 -0.4914
  361TIP3   OH222497   5.088   2.530  13.008 -0.4847 -0.0603 -0.0980
  361TIP3    H122498   5.118   2.537  12.917 -0.3853 -0.4460 -0.0982
  361TIP3    H222499   5.129   2.450  13.040 -1.4829 -0.5805 -0.0810
  362TIP3   OH222500   3.979   4.747   6.122 -0.1631 -0.3829  0.8351
  362TIP3    H122501   3.894   4.779   6.091  0.7385 -0.2528 -1.7368
  362TIP3    H222502   4.043   4.791   6.067  1.2703 -5.1137 -1.9304
  363TIP3   OH222503   2.684   3.727  13.267  0.2200  0.1309 -0.6119
  363TIP3    H122504   2.705   3.804  13.213  3.0933 -1.0476 -1.3950
  363TIP3    H222505   2.695   3.757  13.357  1.3495  0.6610 -0.9074
  364TIP3   OH222506   4.443   0.520  14.736  1.0141 -0.4019  0.0047
  364TIP3    H122507   4.438   0.593  14.797 -0.6737  0.5883 -1.2123
  364TIP3    H222508   4.515   0.543  14.677  0.5781  0.2561 -0.2924
  365TIP3   OH222509   1.451   3.061  14.808 -0.9103 -0.5419 -0.1680
  365TIP3    H122510   1.371   3.018  14.779 -1.2012 -1.1200  1.3692
  365TIP3    H222511   1.442   3.065  14.904  0.1469  0.8851 -0.0967
  366TIP3   OH222512   4.096   6.489   2.975 -0.2435 -0.4767  0.2063
  366TIP3    H122513   4.074   6.436   3.052 -1.8563  0.6469  0.5828
  366TIP3    H222514   4.166   6.546   3.004 -1.4003  0.5171  1.1574
  367TIP3   OH222515   5.963   3.661  15.343  0.2005 -0.2153  0.1910
  367TIP3    H122516   5.943   3.646  15.435 -0.4207  1.4077  0.3512
  367TIP3    H222517   5.952   3.756  15.331 -0.9503 -0.5511 -1.8252
  368TIP3   OH222518   4.268   0.700   0.219 -0.0512 -0.2640  0.3628
  368TIP3    H122519   4.359   0.704   0.190 -0.4057  0.8151 -0.6724
  368TIP3    H222520   4.273   0.667   0.308  1.3538 -0.2721  0.3036
  369TIP3   OH222521   0.680   5.707   1.975 -0.3360 -0.1345  0.4004
  369TIP3    H122522   0.685   5.665   1.889  0.8471 -2.3435  1.4775
  369TIP3    H222523   0.762   5.683   2.018 -0.9510  0.8539  2.2014
  370TIP3   OH222524   6.660   0.839   6.073  0.2764  0.9198 -0.1224
  370TIP3    H122525   6.642   0.855   6.165 -3.0776  0.4220 -0.5523
  370TIP3    H222526   6.754   0.852   6.064  0.9585 -0.3301  3.5868
  371TIP3   OH222527   2.678   3.423   2.299  0.5077  0.0679  0.7802
  371TIP3    H122528   2.718   3.506   2.324 -0.1047  0.6031  0.0410
  371TIP3    H222529   2.747   3.359   2.309  1.0693  0.7103  1.1091
  372TIP3   OH222530   2.036   0.204   5.838  0.0758 -0.0792 -0.6699
  372TIP3    H122531   2.032   0.245   5.924 -0.7241 -1.1755 -0.1537
  372TIP3    H222532   1.971   0.134   5.843  0.1188 -0.2415 -2.1256
  373TIP3   OH222533   4.115   6.379   5.528  0.6606  0.1808  1.0126
  373TIP3    H122534   4.189   6.441   5.529  0.2318  0.7025  1.8575
  373TIP3    H222535   4.100   6.359   5.620 -0.1420 -0.0573  0.8369
  374TIP3   OH222536   0.047   5.430   5.374 -0.1328 -0.5068 -0.1361
  374TIP3    H122537   0.070   5.515   5.336 -2.1435 -0.9218 -2.5831
  374TIP3    H222538   0.122   5.374   5.355  0.7470  0.4263  0.5064
  375TIP3   OH222539   3.869   0.610   2.669 -0.0403 -0.1267 -0.2290
  375TIP3    H122540   3.930   0.618   2.743 -1.1964 -0.1506  0.7595
  375TIP3    H222541   3.831   0.523   2.679 -1.1872  0.3796 -0.0590
  376TIP3   OH222542   6.659   0.852  11.601 -0.3660  0.7034 -0.0163
  376TIP3    H122543   6.586   0.830  11.543 -1.2942  3.0673  0.1051
  376TIP3    H222544   6.620   0.911  11.667  1.5167  1.5717  0.3972
  377TIP3   OH222545   3.719   4.420   4.211  0.0759 -0.7178 -0.2041
  377TIP3    H122546   3.710   4.515   4.197  1.0013 -0.7838 -1.4403
  377TIP3    H222547   3.810   4.409   4.236 -0.2118 -1.2222  0.6470
  378TIP3   OH222548   2.078   1.884  13.415  0.3144  0.5340 -0.5088
  378TIP3    H122549   2.017   1.928  13.357 -0.6417 -0.6846 -0.4854
  378TIP3    H222550   2.039   1.893  13.502 -1.4218 -2.5786 -0.7971
  379TIP3   OH222551   6.641   5.137   3.944  0.1300 -0.4475 -0.1780
  379TIP3    H122552   6.693   5.176   4.015 -0.3389 -1.5022  0.7870
  379TIP3    H222553   6.590   5.210   3.909  1.4076  0.3735 -0.3910
  380TIP3   OH222554   2.681   1.716   2.987  0.2436  1.4854  0.3593
  380TIP3    H122555   2.633   1.651   2.936  1.7589 -0.7615  1.5984
  380TIP3    H222556   2.615   1.754   3.045 -0.3520 -0.6624  1.1953
  381TIP3   OH222557   0.366   0.027   1.655 -0.0190 -0.0357 -0.0061
  381TIP3    H122558   0.348   0.038   1.749 -0.3307  1.4730 -0.2217
  381TIP3    H222559   0.443   0.082   1.639  0.1719 -0.4713 -0.5906
  382TIP3   OH222560   1.234   1.749   2.964 -0.1493  0.0173  0.4523
  382TIP3    H122561   1.171   1.817   2.937 -0.7758 -0.4690  0.6516
  382TIP3    H222562   1.266   1.779   3.049  1.7977  1.5308 -0.7407
  383TIP3   OH222563   3.785   4.670   5.616  0.2235 -0.1553  0.5102
  383TIP3    H122564   3.735   4.660   5.697 -1.4507 -1.3500 -0.5984
  383TIP3    H222565   3.798   4.765   5.607  0.0577  0.0247  1.9238
  384TIP3   OH222566   6.140   5.556  13.806 -0.2783 -0.6862  0.5453
  384TIP3    H122567   6.114   5.647  13.795 -0.8499 -0.9063  0.0942
  384TIP3    H222568   6.236   5.559  13.808 -0.2769 -0.1429 -0.0462
  385TIP3   OH222569   6.192   0.710  15.260 -0.7602 -0.1397 -0.0055
  385TIP3    H122570   6.207   0.621  15.290 -0.3116 -0.0052  0.1915
  385TIP3    H222571   6.099   0.725  15.273 -0.9351 -0.7443 -0.5072
  386TIP3   OH222572   3.880   4.136  14.473 -0.5887  0.1600 -0.0943
  386TIP3    H122573   3.812   4.069  14.465 -1.5626  1.0744  0.4639
  386TIP3    H222574   3.833   4.218  14.483  0.5865  0.7094  1.2377
  387TIP3   OH222575   4.286   5.551  14.723  0.3916  0.1164  0.0036
  387TIP3    H122576   4.235   5.598  14.789 -0.3991 -0.9514  0.1750
  387TIP3    H222577   4.308   5.468  14.764  0.6240 -0.2115 -0.7620
  388TIP3   OH222578   0.091   2.751  12.663  0.2102 -0.5600  0.4763
  388TIP3    H122579   0.077   2.685  12.730 -1.4436 -0.6696  0.0645
  388TIP3    H222580   0.061   2.711  12.582  0.1347  0.3358  0.0442
  389TIP3   OH222581   4.005   2.530   0.509 -0.2678  0.2958  0.4375
  389TIP3    H122582   4.062   2.590   0.461 -1.3773  0.0531 -1.2935
  389TIP3    H222583   3.985   2.461   0.445 -3.4503  1.0044  0.5247
  390TIP3   OH222584   3.440   1.785   4.989  0.4768  0.0803 -0.1800
  390TIP3    H122585   3.393   1.766   5.070  0.6253 -0.2327 -0.1660
  390TIP3    H222586   3.500   1.711   4.978  3.1799  1.8658  1.3891
  391TIP3   OH222587   5.697   3.645   1.358 -0.1167  0.2439 -0.5887
  391TIP3    H122588   5.678   3.552   1.346 -0.5022  0.2455 -0.0485
  391TIP3    H222589   5.635   3.673   1.425  1.6317  0.3080  1.0971
  392TIP3   OH222590   3.736   5.662  13.560 -0.2440 -0.2447  0.1719
  392TIP3    H122591   3.795   5.607  13.612 -0.8392 -0.1876  0.9190
  392TIP3    H222592   3.795   5.722  13.514  0.3578 -0.9595 -0.0125
  393TIP3   OH222593   5.617   3.446   5.266  0.0632  0.5411  0.9194
  393TIP3    H122594   5.535   3.412   5.232 -0.2958  1.5954  0.6966
  393TIP3    H222595   5.682   3.423   5.200 -0.6638  2.7886 -0.6819
  394TIP3   OH222596   3.540   5.370  17.235  0.4073 -0.1276 -0.3696
  394TIP3    H122597   3.487   5.322  17.171  0.1229 -0.4248  0.0767
  394TIP3    H222598   3.585   5.301  17.284 -0.8141 -0.0172  0.9810
  395TIP3   OH222599   1.818   3.766   4.960 -0.1486 -0.0610 -0.3607
  395TIP3    H122600   1.864   3.804   4.884 -1.0453 -0.0636 -0.9159
  395TIP3    H222601   1.731   3.744   4.927 -0.4130 -0.4578  0.5691
  396TIP3   OH222602   5.255   5.155   2.155  0.5387  0.1683 -0.2193
  396TIP3    H122603   5.226   5.232   2.205 -1.3055 -0.6945  0.1014
  396TIP3    H222604   5.295   5.098   2.221 -1.3984 -0.7249  0.2485
  397TIP3   OH222605   5.468   2.151   1.458 -1.0253  0.1499 -0.2369
  397TIP3    H122606   5.380   2.118   1.439 -0.3191 -0.4386 -2.7513
  397TIP3    H222607   5.523   2.073   1.462 -0.4248  0.5895  0.2912
  398TIP3   OH222608   5.244   4.096   3.385 -0.8132 -0.0445 -0.2827
  398TIP3    H122609   5.190   4.124   3.459 -0.7711 -0.6444 -0.0197
  398TIP3    H222610   5.311   4.164   3.377 -1.0056  0.1877  0.0225
  399TIP3   OH222611   6.301   2.822  13.567  0.2076  0.2026  0.2523
  399TIP3    H122612   6.244   2.750  13.596  0.6302  0.4701  1.8605
  399TIP3    H222613   6.345   2.788  13.489 -0.3026 -0.9414  0.4418
  400TIP3   OH222614   5.611   1.342  12.335 -0.2724 -0.7315 -0.1700
  400TIP3    H122615   5.521   1.333  12.305 -0.5355  0.2999  0.2610
  400TIP3    H222616   5.603   1.357  12.429  0.4039 -1.4644  0.0137
  401TIP3   OH222617   0.628   1.656  16.300  0.0756 -0.0477  0.5030
  401TIP3    H122618   0.627   1.742  16.342 -0.3117  1.0242 -1.5571
  401TIP3    H222619   0.553   1.657  16.241  0.5532 -1.4855 -0.1905
  402TIP3   OH222620   0.679   2.447  13.819 -0.3623  0.2312  0.1837
  402TIP3    H122621   0.620   2.503  13.868 -1.8679  1.0269 -2.3371
  402TIP3    H222622   0.767   2.475  13.844 -1.0373  0.6355  2.2505
  403TIP3   OH222623   5.651   5.394  11.194  0.6405  0.0973 -0.0434
  403TIP3    H122624   5.670   5.303  11.218 -1.9909 -0.7131 -0.7110
  403TIP3    H222625   5.627   5.436  11.276 -3.2782 -1.3101 -0.2640
  404TIP3   OH222626   1.076   4.535   5.714  0.2725 -0.0665  0.3260
  404TIP3    H122627   1.018   4.463   5.739  1.3568 -0.1257  3.1281
  404TIP3    H222628   1.107   4.513   5.627 -0.8946 -2.0188  0.3531
  405TIP3   OH222629   6.345   6.654  12.702 -0.1697 -0.0437 -0.6187
  405TIP3    H122630   6.346   6.733  12.757  0.6012 -0.3314 -0.2171
  405TIP3    H222631   6.259   6.615  12.719 -1.0438  1.2952 -1.6894
  406TIP3   OH222632   3.012   5.903  14.303 -0.2853 -0.4389  0.2146
  406TIP3    H122633   2.938   5.848  14.280 -1.2825  1.5757 -1.8537
  406TIP3    H222634   3.088   5.858  14.267 -1.0990 -0.4244 -1.6348
  407TIP3   OH222635   5.911   4.568  10.324  0.0142 -0.1704 -0.2711
  407TIP3    H122636   5.850   4.502  10.290  0.0576 -0.4540  0.1936
  407TIP3    H222637   5.982   4.571  10.260 -0.1585 -0.3286 -0.4702
  408TIP3   OH222638   1.304   3.202   4.413 -0.5286  0.5471  0.4495
  408TIP3    H122639   1.289   3.284   4.365 -2.0783  1.2956  2.1343
  408TIP3    H222640   1.227   3.149   4.394 -1.0664  0.7770  1.9154
  409TIP3   OH222641   4.216   2.732  14.857 -0.1565 -0.1283 -0.3388
  409TIP3    H122642   4.201   2.650  14.810 -1.0520 -0.7821  1.0205
  409TIP3    H222643   4.299   2.765  14.822  0.7986 -2.1825 -0.1271
  410TIP3   OH222644   6.726   3.739   1.280  0.3786  0.0959 -0.1688
  410TIP3    H122645   6.778   3.793   1.221  2.2382 -0.1624  1.1480
  410TIP3    H222646   6.681   3.677   1.223  1.2802  0.5301 -1.3893
  411TIP3   OH222647   5.117   4.938  15.036 -0.2652  0.1849 -0.0178
  411TIP3    H122648   5.212   4.938  15.051 -0.3779 -0.3881  0.7826
  411TIP3    H222649   5.083   4.873  15.098 -1.1114 -0.1238 -0.7818
  412TIP3   OH222650   3.470   2.872  11.261 -0.3781  0.0044 -0.2813
  412TIP3    H122651   3.528   2.945  11.240  0.1722 -0.3647 -0.0638
  412TIP3    H222652   3.483   2.810  11.189 -0.7138  0.0399 -0.3756
  413TIP3   OH222653   0.024   3.459  12.132 -0.3744 -0.0882  0.6243
  413TIP3    H122654  -0.040   3.464  12.060  1.8928  0.7490 -1.4695
  413TIP3    H222655   0.073   3.541  12.125  3.3185 -2.1680 -0.3146
  414TIP3   OH222656   5.130   3.360  11.736  0.3705 -0.8905 -0.2755
  414TIP3    H122657   5.091   3.273  11.743 -1.0404 -0.2281  0.7559
  414TIP3    H222658   5.076   3.405  11.670  0.6462 -0.5915 -0.2981
  415TIP3   OH222659   5.269   6.478  16.927  0.0529  0.4638  0.4059
  415TIP3    H122660   5.207   6.485  16.854  0.2693 -1.3326 -0.0067
  415TIP3    H222661   5.335   6.416  16.897  1.9267  2.0903  0.9714
  416TIP3   OH222662   3.796   3.683  14.843 -0.0733  0.7255  0.3082
  416TIP3    H122663   3.837   3.644  14.765  0.5871 -0.1723  1.0912
  416TIP3    H222664   3.865   3.735  14.883 -0.4210  1.2053  0.2993
  417TIP3   OH222665   2.302   1.509   1.487 -0.4075 -0.3935  0.3356
  417TIP3    H122666   2.240   1.559   1.434  1.3227  0.9125 -0.5335
  417TIP3    H222667   2.344   1.449   1.425  1.5572  1.0742  0.1915
  418TIP3   OH222668   3.300   0.604  14.483  0.1068 -0.2953  0.2655
  418TIP3    H122669   3.360   0.574  14.550 -0.6649 -1.5283  0.4427
  418TIP3    H222670   3.225   0.638  14.531  0.7575  1.5609  0.0559
  419TIP3   OH222671   6.019   1.695  12.540  0.7325  0.2505 -0.1870
  419TIP3    H122672   6.065   1.744  12.608 -0.3262  0.6017  0.3161
  419TIP3    H222673   6.028   1.603  12.566  1.6326  0.2643 -0.4222
  420TIP3   OH222674   6.169   1.391   1.097 -0.0571 -0.0563 -0.1116
  420TIP3    H122675   6.189   1.348   1.180 -0.3716 -0.3383 -0.1747
  420TIP3    H222676   6.203   1.331   1.030  1.2091  0.7023 -0.1785
  421TIP3   OH222677   1.387   2.204  16.546  0.5128 -0.1182  0.0997
  421TIP3    H122678   1.315   2.185  16.486  0.3734  0.4998  0.0656
  421TIP3    H222679   1.377   2.139  16.616 -0.3053  0.1940  0.2889
  422TIP3   OH222680   2.346   1.821   5.072 -0.4391  0.2130 -0.0307
  422TIP3    H122681   2.298   1.743   5.102 -1.7464 -0.1204 -2.6182
  422TIP3    H222682   2.295   1.895   5.105 -0.7176 -0.0842  0.2156
  423TIP3   OH222683   2.974   1.315  15.290 -0.0528  0.0529  0.2769
  423TIP3    H122684   3.057   1.360  15.306 -0.0367 -0.0935  0.6098
  423TIP3    H222685   2.909   1.365  15.339 -0.1682  0.1955 -0.0221
  424TIP3   OH222686   2.336   0.653  15.102  0.6240  0.4504 -0.0791
  424TIP3    H122687   2.385   0.691  15.176  0.8246  0.1935 -0.0764
  424TIP3    H222688   2.247   0.687  15.112  0.0908 -1.2434  1.5279
  425TIP3   OH222689   1.705   0.112   4.434 -0.0291  0.1063 -0.1389
  425TIP3    H122690   1.784   0.059   4.436 -0.0035  0.0097 -1.9414
  425TIP3    H222691   1.737   0.202   4.432 -0.0208  0.1271  0.5472
  426TIP3   OH222692   3.158   1.656   1.029  0.0465 -0.8761 -0.0763
  426TIP3    H122693   3.203   1.731   0.989 -0.2349  0.2086  1.5218
  426TIP3    H222694   3.229   1.598   1.056  0.5215  0.3193  1.4495
  427TIP3   OH222695   6.400   0.878  13.227  0.5040  0.4248 -0.6826
  427TIP3    H122696   6.422   0.963  13.188  3.1657 -0.2113 -0.7018
  427TIP3    H222697   6.445   0.814  13.173  0.0692 -0.8665  0.4399
  428TIP3   OH222698   3.485   4.953  12.586  0.4528 -0.0789 -0.3893
  428TIP3    H122699   3.510   4.866  12.619 -0.3141 -0.2049 -0.1326
  428TIP3    H222700   3.398   4.968  12.621 -0.5967 -0.3805 -2.6986
  429TIP3   OH222701   1.468   4.982  11.348 -0.6761 -0.3867  0.5714
  429TIP3    H122702   1.522   4.932  11.287 -0.9750  0.1495 -0.1481
  429TIP3    H222703   1.378   4.960  11.324 -0.7989  0.0793  0.5974
  430TIP3   OH222704   4.164   0.041   2.884 -0.3235  0.5599  0.0332
  430TIP3    H122705   4.214  -0.040   2.873 -1.0583  0.0584  0.3678
  430TIP3    H222706   4.123   0.055   2.799  0.3838  0.9850 -0.2504
  431TIP3   OH222707   0.495   0.221   4.299 -0.1709  0.2527 -0.3535
  431TIP3    H122708   0.550   0.284   4.346 -1.2685  1.3014 -0.4286
  431TIP3    H222709   0.556   0.154   4.269  1.2084  1.7787 -1.1145
  432TIP3   OH222710   3.091   2.513   1.616 -0.1537  0.6183  0.0701
  432TIP3    H122711   3.078   2.480   1.705  0.1934  2.2053  0.7452
  432TIP3    H222712   3.024   2.469   1.564 -1.2035  0.6302  1.3652
  433TIP3   OH222713   3.343   5.278  13.634  0.0360  0.2825 -0.0773
  433TIP3    H122714   3.412   5.326  13.587  0.8084 -1.4156 -0.7717
  433TIP3    H222715   3.343   5.191  13.594  0.0833 -0.9592  2.4439
  434TIP3   OH222716   5.101   6.603  11.692  0.3859 -0.4927  0.5470
  434TIP3    H122717   5.072   6.601  11.601 -0.7607 -0.9079  0.9081
  434TIP3    H222718   5.180   6.548  11.693 -0.0128 -1.0979 -0.0592
  435TIP3   OH222719   5.484   3.530  12.128  0.3312 -0.1394  0.3740
  435TIP3    H122720   5.395   3.497  12.121  0.5747 -0.5651 -1.3730
  435TIP3    H222721   5.478   3.622  12.103  0.4825 -0.3931 -0.6539
  436TIP3   OH222722   0.443   5.387  14.373 -0.1325 -0.4923  0.3718
  436TIP3    H122723   0.537   5.395  14.393  0.0263 -2.1074  0.4292
  436TIP3    H222724   0.403   5.463  14.415  1.1164  0.0918  0.5587
  437TIP3   OH222725   4.261   3.125   0.320 -0.0640  0.1531  0.1397
  437TIP3    H122726   4.214   3.058   0.270  1.1483 -0.5450 -0.0878
  437TIP3    H222727   4.237   3.108   0.411  1.2874 -1.5003  0.2347
  438TIP3   OH222728   0.745   5.570  12.820  0.0164  0.0848 -0.9720
  438TIP3    H122729   0.791   5.634  12.766  1.8856 -1.3597 -1.1853
  438TIP3    H222730   0.801   5.558  12.897 -1.4633  0.3970  0.1999
  439TIP3   OH222731   3.510   1.515  15.848 -0.3546  0.8784  0.2412
  439TIP3    H122732   3.440   1.539  15.909 -1.5325 -0.9929 -0.3138
  439TIP3    H222733   3.511   1.586  15.784 -1.5176  1.1132  0.4575
  440TIP3   OH222734   3.242   4.828   3.964  0.2306 -0.2316  0.1130
  440TIP3    H122735   3.217   4.851   4.053  0.4310 -1.4956  0.5201
  440TIP3    H222736   3.338   4.837   3.963  0.0659  2.0487 -0.6822
  441TIP3   OH222737   2.913   6.356  17.189  0.0474  0.2808 -0.4021
  441TIP3    H122738   2.868   6.276  17.214  1.2016 -0.2999 -0.1028
  441TIP3    H222739   3.001   6.347  17.225 -0.0834  2.1479  0.5397
  442TIP3   OH222740   6.249   5.551   5.619 -0.3289 -0.1362 -0.2197
  442TIP3    H122741   6.272   5.561   5.712 -0.7878 -1.7048  0.0925
  442TIP3    H222742   6.294   5.624   5.576  1.8005 -0.6667  0.9247
  443TIP3   OH222743   6.681   2.271   6.029  0.7784  0.4093  0.2990
  443TIP3    H122744   6.750   2.326   6.065 -0.0866  0.2048  2.4422
  443TIP3    H222745   6.608   2.331   6.013  0.1687  0.1001  1.7261
  444TIP3   OH222746   2.492   4.620   0.568  0.4953 -0.8672  1.0083
  444TIP3    H122747   2.503   4.553   0.500 -1.5360  0.1632 -0.4601
  444TIP3    H222748   2.404   4.606   0.602 -0.6104  1.8525 -0.3850
  445TIP3   OH222749   3.493   1.474  14.849  0.1425 -0.1755 -0.9198
  445TIP3    H122750   3.405   1.472  14.887  0.7530  1.4527  0.7206
  445TIP3    H222751   3.480   1.453  14.757 -1.9309 -0.1616 -0.6767
  446TIP3   OH222752   2.210   5.765  12.435  0.8102 -0.0978 -0.0905
  446TIP3    H122753   2.122   5.801  12.427  0.8023 -0.2653 -0.8182
  446TIP3    H222754   2.215   5.733  12.525 -0.5873 -1.9539 -0.6363
  447TIP3   OH222755   4.097   2.093  16.749  0.0114  0.0758  0.0639
  447TIP3    H122756   4.162   2.135  16.806  1.1139 -0.7015 -0.5988
  447TIP3    H222757   4.131   2.005  16.734 -0.1290  0.3188 -1.9807
  448TIP3   OH222758   0.556   5.942   0.151  0.0473 -0.1728  0.5711
  448TIP3    H122759   0.547   5.851   0.121  0.4051 -0.3644  1.0320
  448TIP3    H222760   0.571   5.935   0.245  0.5744  0.3366  0.5329
  449TIP3   OH222761   6.288   6.409  11.737 -0.5709 -0.2801 -0.4058
  449TIP3    H122762   6.380   6.412  11.761 -0.5779  0.3207 -0.4339
  449TIP3    H222763   6.241   6.413  11.821 -0.6263  3.3579 -0.4334
  450TIP3   OH222764   5.617   1.998   1.828 -0.2120  0.3872  0.2055
  450TIP3    H122765   5.708   1.984   1.800 -0.3163  0.4398 -0.1720
  450TIP3    H222766   5.624   2.040   1.914  0.1161  0.0046  0.3694
  451TIP3   OH222767   4.203   6.309  13.063  0.8726 -0.3708 -0.1592
  451TIP3    H122768   4.153   6.382  13.101  1.3399 -0.5725  0.8667
  451TIP3    H222769   4.278   6.351  13.020  2.4415 -0.3174  2.4142
  452TIP3   OH222770   3.697   1.928   3.754 -0.5316  0.3022  0.0259
  452TIP3    H122771   3.757   1.908   3.682  2.9352 -3.9781  3.5548
  452TIP3    H222772   3.637   1.854   3.756 -0.5682  0.3434  1.4747
  453TIP3   OH222773   1.405   2.886  11.495 -0.3489  0.1363 -0.3795
  453TIP3    H122774   1.312   2.888  11.516 -0.4171  0.7558 -0.7254
  453TIP3    H222775   1.414   2.813  11.433 -0.9658  1.3064 -1.9374
  454TIP3   OH222776   3.815   5.330  12.197  0.4432  0.2960  0.1059
  454TIP3    H122777   3.805   5.237  12.215  0.1958  0.6974  2.3800
  454TIP3    H222778   3.873   5.361  12.267  1.7541  1.6083 -1.4685
  455TIP3   OH222779   0.673   4.525  14.049  0.7499 -0.1130  0.5125
  455TIP3    H122780   0.584   4.530  14.014  1.5587 -2.2792 -2.2773
  455TIP3    H222781   0.706   4.614  14.046  0.1222  0.1276 -2.8536
  456TIP3   OH222782   1.668   2.590   1.377  0.0483 -0.6575  0.1143
  456TIP3    H122783   1.741   2.640   1.414 -0.2985 -0.0315 -0.0301
  456TIP3    H222784   1.615   2.566   1.453 -0.1830 -0.1536  0.1153
  457TIP3   OH222785   1.614   2.916   5.943  0.4153 -0.0371 -0.0648
  457TIP3    H122786   1.707   2.912   5.965  0.0780 -0.3697  1.3514
  457TIP3    H222787   1.569   2.928   6.026 -0.6609  3.1357 -0.9669
  458TIP3   OH222788   5.366   6.036   3.589 -0.5912 -0.5930  0.2845
  458TIP3    H122789   5.294   5.974   3.589 -0.1128 -1.1799 -0.7705
  458TIP3    H222790   5.324   6.122   3.579 -1.1004 -1.0461 -1.9497
  459TIP3   OH222791   1.561   0.567   6.287  0.4895 -0.2421 -0.1667
  459TIP3    H122792   1.507   0.498   6.325 -0.4461 -1.1153 -2.8617
  459TIP3    H222793   1.631   0.520   6.241  1.4228  0.7461  0.1910
  460TIP3   OH222794   5.397   5.500  14.471  0.8480  0.0466 -0.1783
  460TIP3    H122795   5.380   5.574  14.529 -0.0257 -0.5305  0.3239
  460TIP3    H222796   5.327   5.437  14.490  0.9837 -0.4822 -1.3154
  461TIP3   OH222797   0.165   4.365   3.679 -0.2047  0.3257 -0.0280
  461TIP3    H122798   0.230   4.317   3.628  0.9081  3.0960 -1.4025
  461TIP3    H222799   0.100   4.394   3.615  1.2506  3.9316 -0.1339
  462TIP3   OH222800   4.091   5.482  16.175 -0.0132 -0.3222  0.6543
  462TIP3    H122801   4.098   5.394  16.136 -0.5980 -1.1220  2.2757
  462TIP3    H222802   4.002   5.485  16.211 -0.3994  1.3743 -0.3091
  463TIP3   OH222803   4.360   1.624   5.746 -0.9036  0.0293  0.6850
  463TIP3    H122804   4.346   1.545   5.694 -1.5693  0.2553  0.5122
  463TIP3    H222805   4.285   1.680   5.725 -0.1572  0.9437  0.3693
  464TIP3   OH222806   2.031   5.339   0.177  0.0792 -0.5122  0.6717
  464TIP3    H122807   1.987   5.325   0.093 -0.4813  1.4348  0.5919
  464TIP3    H222808   2.100   5.402   0.158 -0.0025 -0.1090  1.6465
  465TIP3   OH222809   1.177   2.979   3.846 -0.6112 -0.0865  0.3415
  465TIP3    H122810   1.142   2.894   3.820  1.2991 -2.0335  3.5470
  465TIP3    H222811   1.142   3.040   3.781 -0.9074 -3.4627 -2.9787
  466TIP3   OH222812   5.222   2.416   4.953  0.0368  0.5780 -0.1785
  466TIP3    H122813   5.195   2.327   4.932  1.7448 -0.0215 -0.0333
  466TIP3    H222814   5.318   2.414   4.945  0.1240  2.3218  0.1149
  467TIP3   OH222815   2.940   2.994   2.168  0.4807  0.3686  0.2101
  467TIP3    H122816   2.887   3.059   2.121 -0.0955 -0.0479  0.2889
  467TIP3    H222817   2.985   2.946   2.099 -1.9097 -1.6111 -0.0964
  468TIP3   OH222818   4.827   6.570   4.729  0.1852 -0.0916  1.0750
  468TIP3    H122819   4.911   6.615   4.721  1.8439 -3.0841  0.0643
  468TIP3    H222820   4.813   6.563   4.823  1.7840 -0.6672  1.3095
  469TIP3   OH222821   3.020   4.380  11.020 -0.5058  0.2156  0.0797
  469TIP3    H122822   2.946   4.369  11.080  0.2366  0.6148  1.0832
  469TIP3    H222823   2.990   4.446  10.958 -2.5488 -2.4856 -2.0945
  470TIP3   OH222824   2.208   6.068   4.485 -0.3274  0.6801  0.1535
  470TIP3    H122825   2.234   6.006   4.417 -1.2796  0.5126 -0.0759
  470TIP3    H222826   2.116   6.049   4.501 -0.6948  2.1473 -0.0443
  471TIP3   OH222827   5.660   0.666   1.902  0.0329  0.0415 -0.6926
  471TIP3    H122828   5.616   0.751   1.916 -0.8887 -0.6835  1.0906
  471TIP3    H222829   5.698   0.645   1.987  0.2799 -1.3316 -1.1326
  472TIP3   OH222830   2.122   1.968  14.185 -0.1297  0.4065 -0.3324
  472TIP3    H122831   2.147   1.885  14.144 -2.2036 -1.2354  1.4771
  472TIP3    H222832   2.165   1.966  14.271 -0.6755  0.9034 -0.0393
  473TIP3   OH222833   1.300   1.632  16.895 -0.3189  0.0595  0.2434
  473TIP3    H122834   1.358   1.673  16.831 -0.3620  0.3984  0.4174
  473TIP3    H222835   1.358   1.590  16.957 -0.2809 -0.4864 -0.1554
  474TIP3   OH222836   4.441   2.865  13.462  0.0291  0.2004 -0.6181
  474TIP3    H122837   4.361   2.870  13.409 -0.2970 -1.4487 -0.3595
  474TIP3    H222838   4.412   2.885  13.551  0.1852  0.9898 -0.7416
  475TIP3   OH222839   0.217   2.404   2.012 -0.1994 -0.4288 -0.1132
  475TIP3    H122840   0.124   2.410   2.034 -0.0720 -0.2131  0.3751
  475TIP3    H222841   0.221   2.338   1.943 -0.5066 -1.7014  1.0575
  476TIP3   OH222842   3.251   0.087  11.546  0.1741  0.3821  0.0308
  476TIP3    H122843   3.344   0.111  11.550  0.3611 -0.3906  0.4470
  476TIP3    H222844   3.208   0.144  11.609  0.4253  0.4665  0.1255
  477TIP3   OH222845   6.657   4.919  12.609 -0.1023  0.2617 -0.1062
  477TIP3    H122846   6.705   4.886  12.685  0.9985  0.2588 -0.7967
  477TIP3    H222847   6.713   4.986  12.571 -1.3151  1.3628 -0.0514
  478TIP3   OH222848   5.457   3.748  16.276  0.5260  0.0373 -0.2119
  478TIP3    H122849   5.395   3.689  16.233  1.2270 -1.3122  0.5424
  478TIP3    H222850   5.403   3.818  16.312 -0.5311 -0.9120  0.1195
  479TIP3   OH222851   4.754   6.389  16.412 -0.1188  0.3790  0.3358
  479TIP3    H122852   4.773   6.303  16.450  0.0413 -0.2718 -1.1442
  479TIP3    H222853   4.689   6.372  16.344 -0.2406  1.4627  0.1563
  480TIP3   OH222854   6.314   3.729   3.852  0.4752  0.1031 -0.6024
  480TIP3    H122855   6.351   3.723   3.764  1.3282 -1.4359 -0.1735
  480TIP3    H222856   6.351   3.810   3.888 -0.0169  0.8331 -1.6877
  481TIP3   OH222857   6.366   3.366   4.908 -0.0369 -0.1446 -0.5450
  481TIP3    H122858   6.457   3.371   4.936 -0.0309  1.7101 -0.7275
  481TIP3    H222859   6.317   3.407   4.980 -0.6097 -0.2605 -0.8661
  482TIP3   OH222860   3.710   3.905  16.550 -0.3096 -0.8940  0.4224
  482TIP3    H122861   3.753   3.820  16.558 -0.7152 -1.0386  1.1663
  482TIP3    H222862   3.619   3.888  16.576  0.0356  0.1473  2.4893
  483TIP3   OH222863   5.461   0.062  11.374 -0.6496  0.2988 -0.6323
  483TIP3    H122864   5.410  -0.018  11.374 -0.3013 -0.0524  2.4423
  483TIP3    H222865   5.534   0.044  11.315 -2.0241 -0.5507 -2.1569
  484TIP3   OH222866   2.574   5.132   5.870 -0.4368  0.4501 -0.0363
  484TIP3    H122867   2.484   5.138   5.903 -0.6585  0.0127 -0.5499
  484TIP3    H222868   2.623   5.195   5.922 -0.9228  0.2623  0.6630
  485TIP3   OH222869   2.225   6.449  11.349 -0.0992 -1.0257 -0.3959
  485TIP3    H122870   2.155   6.467  11.412 -0.1354  0.9332 -0.9457
  485TIP3    H222871   2.296   6.508  11.374  0.8389 -1.9813 -0.7143
  486TIP3   OH222872   5.963   1.717   4.805 -0.0366  0.0735 -0.3794
  486TIP3    H122873   5.878   1.734   4.845  0.3633  0.0328  0.5074
  486TIP3    H222874   5.961   1.624   4.783 -0.7458  0.3698 -1.6625
  487TIP3   OH222875   6.325   4.884  16.430  0.1193 -0.0347  0.5924
  487TIP3    H122876   6.334   4.970  16.390  0.1833  0.8266  2.3691
  487TIP3    H222877   6.358   4.823  16.364  0.1458  1.2939 -0.6677
  488TIP3   OH222878   6.081   6.258  15.946  0.3784 -0.0580  0.0649
  488TIP3    H122879   6.100   6.212  16.028 -1.4491 -0.0366  0.5453
  488TIP3    H222880   6.003   6.215  15.911 -0.3229  1.4855 -0.3870
  489TIP3   OH222881   2.375   0.824  16.389 -0.0692 -0.3627 -0.4834
  489TIP3    H122882   2.379   0.920  16.389 -1.5977 -0.2641 -0.8792
  489TIP3    H222883   2.466   0.796  16.390  0.4270  1.1021 -1.4331
  490TIP3   OH222884   1.748   5.794  15.430 -0.4339  0.0685  0.1324
  490TIP3    H122885   1.733   5.706  15.395 -0.8994 -0.0110  0.5243
  490TIP3    H222886   1.828   5.786  15.482  0.3092  0.2057 -0.9528
  491TIP3   OH222887   3.596   3.591  16.346 -0.6905 -0.1637 -0.3417
  491TIP3    H122888   3.501   3.580  16.337 -0.7846  0.5262 -0.2709
  491TIP3    H222889   3.627   3.611  16.258 -0.5250 -0.9639 -0.4682
  492TIP3   OH222890   6.682   5.727   3.767  0.1212 -0.3151 -0.1243
  492TIP3    H122891   6.675   5.808   3.819 -0.1992 -0.3420 -0.1227
  492TIP3    H222892   6.651   5.752   3.680  1.0473 -0.1679 -0.4139
  493TIP3   OH222893   4.486   5.743   5.022 -0.3171  0.1737  0.1456
  493TIP3    H122894   4.564   5.777   4.979  0.2538 -0.1279  0.9251
  493TIP3    H222895   4.416   5.755   4.957  0.1848  1.2756 -0.2188
  494TIP3   OH222896   2.674   4.541  15.787 -0.0458 -0.1594  0.0080
  494TIP3    H122897   2.648   4.486  15.861  0.5211 -0.1625  0.2099
  494TIP3    H222898   2.611   4.520  15.718  0.3247 -1.2823 -0.0151
  495TIP3   OH222899   2.678   0.099  14.583 -0.5927 -0.4816 -0.2557
  495TIP3    H122900   2.720   0.096  14.497  0.1381  2.6143 -0.1409
  495TIP3    H222901   2.591   0.133  14.566 -1.3491 -2.1847  0.0337
  496TIP3   OH222902   1.634   0.334   4.742 -0.4606  0.1846  0.8480
  496TIP3    H122903   1.617   0.243   4.718 -1.1803  0.3834  0.5732
  496TIP3    H222904   1.561   0.358   4.799 -1.0660  1.0109 -0.2254
  497TIP3   OH222905   6.631   4.850  13.046  0.3021 -0.7689 -0.1810
  497TIP3    H122906   6.659   4.808  12.964 -0.8603 -1.1697 -0.4006
  497TIP3    H222907   6.570   4.787  13.085 -0.3518  0.0843  0.2077
  498TIP3   OH222908   6.609   4.542  14.545 -0.7387 -0.0088  0.1250
  498TIP3    H122909   6.597   4.529  14.451  1.2762 -0.9265 -0.0682
  498TIP3    H222910   6.579   4.459  14.584  0.5626 -0.5435  0.0436
  499TIP3   OH222911   1.885   2.286   0.626  0.3427  0.1130 -0.2080
  499TIP3    H122912   1.939   2.216   0.589  2.4226  1.2989  0.3870
  499TIP3    H222913   1.816   2.241   0.674  0.7027 -1.4937 -1.1536
  500TIP3   OH222914   6.519   1.657   5.229  0.4577 -0.4343  0.0648
  500TIP3    H122915   6.553   1.631   5.314  2.5635  2.2360  0.1752
  500TIP3    H222916   6.596   1.673   5.175 -0.7990 -0.6445 -1.9161
  501TIP3   OH222917   0.471   2.058  15.997 -0.6716 -0.0659 -0.5483
  501TIP3    H122918   0.453   1.992  16.063  1.1941 -1.0463 -0.9543
  501TIP3    H222919   0.499   2.135  16.046  3.5439 -1.6547 -0.0771
  502TIP3   OH222920   0.993   3.512   1.780 -0.1152  0.0960  0.4522
  502TIP3    H122921   0.948   3.568   1.716  1.7041  0.2227 -0.7696
  502TIP3    H222922   0.971   3.423   1.753 -0.1877  0.1666  0.2753
  503TIP3   OH222923   4.059   2.691  16.127  0.3810 -0.0257  0.2348
  503TIP3    H122924   3.980   2.672  16.076 -0.1870  0.6532  0.8494
  503TIP3    H222925   4.027   2.705  16.216  1.4164 -1.6703  0.8985
  504TIP3   OH222926   2.460   2.352  10.512  0.0106  0.1306 -0.2763
  504TIP3    H122927   2.474   2.279  10.572 -0.3567  0.8642  0.7450
  504TIP3    H222928   2.370   2.341  10.480  0.3636 -0.5191 -1.0773
  505TIP3   OH222929   6.285   2.270  16.961 -0.0383 -0.1296  0.0211
  505TIP3    H122930   6.341   2.259  16.884  0.4774  0.6034  0.2772
  505TIP3    H222931   6.275   2.181  16.996  1.2514 -0.2455  0.1470
  506TIP3   OH222932   3.534   3.956   2.808 -0.5269  0.2557  0.0483
  506TIP3    H122933   3.590   3.945   2.886 -1.0127  2.3204  0.7481
  506TIP3    H222934   3.449   3.981   2.843 -1.7023 -1.8613 -1.0618
  507TIP3   OH222935   3.845   0.426  13.480  0.5520 -0.0094  0.0183
  507TIP3    H122936   3.908   0.496  13.462  1.4433 -0.2238  2.0084
  507TIP3    H222937   3.899   0.352  13.508 -0.5452 -0.4298  1.1047
  508TIP3   OH222938   6.250   0.173   0.055  0.0118 -0.1751  0.1951
  508TIP3    H122939   6.237   0.221  -0.027 -0.8691  1.3946  1.2166
  508TIP3    H222940   6.292   0.235   0.114 -1.2088 -0.6058  1.5774
  509TIP3   OH222941   3.366   6.751   3.096  0.3530 -0.0056  0.4541
  509TIP3    H122942   3.369   6.668   3.144 -0.9320 -0.6526 -0.4767
  509TIP3    H222943   3.276   6.782   3.108  0.1870  0.1345 -0.9483
  510TIP3   OH222944   3.324   1.213  11.652 -0.2891  1.0590 -0.4904
  510TIP3    H122945   3.272   1.176  11.724 -1.3974 -1.8836 -2.6043
  510TIP3    H222946   3.267   1.280  11.614  0.0462  2.1762  0.8763
  511TIP3   OH222947   5.949   1.227   5.882  0.7198 -0.1350  0.7945
  511TIP3    H122948   5.881   1.194   5.941 -0.4268  2.2437  0.8980
  511TIP3    H222949   5.955   1.161   5.813 -1.1988 -0.7514  1.1551
  512TIP3   OH222950   3.602   1.193  11.634  0.0114 -0.0215  0.2413
  512TIP3    H122951   3.584   1.246  11.557  1.0589  1.0951  0.7337
  512TIP3    H222952   3.518   1.186  11.679 -0.7031 -1.0307 -1.1727
  513TIP3   OH222953   4.851   2.656   4.070  0.2678 -0.4475  0.3103
  513TIP3    H122954   4.839   2.750   4.076 -0.1296 -0.4740 -0.0735
  513TIP3    H222955   4.785   2.619   4.128  0.8681 -0.4719  0.9922
  514TIP3   OH222956   1.053   5.628   5.713 -0.0632  0.1835 -0.1352
  514TIP3    H122957   1.117   5.557   5.721  1.5010  1.4844 -0.7006
  514TIP3    H222958   1.036   5.633   5.619  1.9586  2.2888 -0.4780
  515TIP3   OH222959   3.266   6.611   1.409 -0.4200 -0.0137  0.0935
  515TIP3    H122960   3.230   6.523   1.422 -1.0950 -0.0620 -1.8718
  515TIP3    H222961   3.359   6.596   1.395 -0.5174 -0.4000 -0.1570
  516TIP3   OH222962   0.425   5.588   0.988  0.0856 -0.2120 -0.3067
  516TIP3    H122963   0.493   5.525   0.961  0.9835 -0.3899  2.0617
  516TIP3    H222964   0.355   5.533   1.024 -0.8787  0.0208 -1.7730
  517TIP3   OH222965   0.512   5.812   3.174  0.0021 -0.9173  0.0677
  517TIP3    H122966   0.494   5.807   3.080 -1.2421 -0.7400  0.2792
  517TIP3    H222967   0.464   5.737   3.211 -0.2921 -0.4424  0.6596
  518TIP3   OH222968   5.550   1.357  12.012  0.0635 -1.0117 -0.6407
  518TIP3    H122969   5.510   1.335  11.928 -3.6147  3.4818 -0.4839
  518TIP3    H222970   5.513   1.293  12.074 -1.5817 -1.0601 -1.6298
  519TIP3   OH222971   0.107   5.766   6.254  0.0134  0.2112 -0.4047
  519TIP3    H122972   0.100   5.854   6.215 -1.4341  0.1274 -0.3790
  519TIP3    H222973   0.032   5.719   6.220  1.1970 -1.2930 -1.0219
  520TIP3   OH222974   1.388   5.414  11.003  0.1418 -0.5987  0.2238
  520TIP3    H122975   1.442   5.392  11.079 -0.1000 -1.1291  0.2436
  520TIP3    H222976   1.449   5.458  10.942  0.9340 -2.3643 -0.3263
  521TIP3   OH222977   5.108   3.778   4.307 -0.2942  0.8027  0.1749
  521TIP3    H122978   5.116   3.707   4.243  2.4108  1.5042 -0.4108
  521TIP3    H222979   5.062   3.847   4.259 -1.2904  0.1314  0.1361
  522TIP3   OH222980   3.292   4.921  13.213  0.0662  0.3051  0.4805
  522TIP3    H122981   3.245   4.887  13.290 -0.3554 -0.9512 -0.2998
  522TIP3    H222982   3.382   4.889  13.225 -0.2168 -0.7188 -0.0042
  523TIP3   OH222983   2.980   4.492  15.756  0.0531  0.1909 -0.3203
  523TIP3    H122984   2.990   4.483  15.850  0.9231 -5.2041 -0.6448
  523TIP3    H222985   2.886   4.488  15.741 -0.0016 -1.6601  0.2942
  524TIP3   OH222986   2.384   5.332   4.950 -0.6198  0.1599 -0.0605
  524TIP3    H122987   2.420   5.322   4.862  0.0643 -0.3464  0.2657
  524TIP3    H222988   2.305   5.385   4.938 -0.2090  0.6064 -0.9047
  525TIP3   OH222989   0.715   2.026   5.552 -0.0470 -0.0772 -0.1896
  525TIP3    H122990   0.649   2.004   5.618  0.5872 -0.3555  0.3530
  525TIP3    H222991   0.760   1.944   5.534  1.0657  0.3621  0.4620
  526TIP3   OH222992   5.672   1.930   4.728 -0.1657  0.4306  0.2305
  526TIP3    H122993   5.720   1.878   4.792 -1.5488 -0.9179  0.2306
  526TIP3    H222994   5.682   1.883   4.645 -1.2163  0.2703  0.1738
  527TIP3   OH222995   5.948   1.106  17.203  0.2022  0.9925 -0.0683
  527TIP3    H122996   6.002   1.094  17.124 -1.3313 -1.8059 -0.8578
  527TIP3    H222997   6.011   1.123  17.272  2.4080 -2.8321 -0.7955
  528TIP3   OH222998   4.919   1.164   1.316 -0.2770 -0.1430  0.5550
  528TIP3    H122999   4.854   1.135   1.380  2.2934 -1.7194  2.6442
  528TIP3    H223000   4.896   1.256   1.298 -2.7352 -0.4971  1.5177
  529TIP3   OH223001   0.241   3.797   6.083  0.2287 -0.2387  0.3718
  529TIP3    H123002   0.306   3.847   6.132  0.4310  0.0158 -0.1551
  529TIP3    H223003   0.185   3.759   6.151  0.4735  0.1532  0.8011
  530TIP3   OH223004   4.521   5.604   3.371 -0.1884  0.3015 -0.2058
  530TIP3    H123005   4.582   5.602   3.445  1.8592 -1.4859 -1.7973
  530TIP3    H223006   4.549   5.531   3.316 -2.5668  0.6706 -2.0352
  531TIP3   OH223007   1.051   5.509  10.918 -0.0392  0.3836 -0.1058
  531TIP3    H123008   1.132   5.491  10.872 -0.0408  0.2194 -0.0432
  531TIP3    H223009   1.023   5.425  10.953  0.7891  0.7472  1.5397
  532TIP3   OH223010   1.250   6.354  14.767  0.6802 -0.7988 -0.0806
  532TIP3    H123011   1.307   6.426  14.742 -1.0382  1.0126  0.9499
  532TIP3    H223012   1.207   6.328  14.685  2.0407 -1.3749 -0.6356
  533TIP3   OH223013   1.178   4.358  16.990  0.0744  0.4203  0.5032
  533TIP3    H123014   1.180   4.395  17.078 -0.3908  0.8007  0.3579
  533TIP3    H223015   1.098   4.393  16.951  0.7079  0.9738 -0.3641
  534TIP3   OH223016   3.465   6.015   4.574  0.5044  0.9622  0.2465
  534TIP3    H123017   3.387   5.976   4.613  1.0676 -0.0112  0.4461
  534TIP3    H223018   3.488   6.087   4.632  1.6668 -0.8055  2.1298
  535TIP3   OH223019   6.096   4.134   0.275  0.0008  0.1595 -0.7594
  535TIP3    H123020   6.148   4.066   0.232 -0.0874 -1.2817  1.2485
  535TIP3    H223021   6.014   4.135   0.227  0.2374 -0.7287 -1.2052
  536TIP3   OH223022   2.250   6.393   0.031  0.5146  0.1238 -0.6568
  536TIP3    H123023   2.301   6.315   0.007  0.9162  0.2664 -0.2713
  536TIP3    H223024   2.271   6.408   0.123  0.5187  0.7525 -0.7560
  537TIP3   OH223025   4.242   3.634   4.544 -0.0246 -0.4060 -0.6616
  537TIP3    H123026   4.217   3.646   4.636 -0.4874  0.1001 -0.8467
  537TIP3    H223027   4.304   3.705   4.527  0.2258 -0.6300 -0.6797
  538TIP3   OH223028   2.070   2.234  13.271  0.5483  0.7755  0.0269
  538TIP3    H123029   2.135   2.296  13.305  1.4585 -0.1603  0.0428
  538TIP3    H223030   2.121   2.171  13.220 -0.1684 -0.6579  1.0100
  539TIP3   OH223031   3.861   0.126   4.096 -0.1460 -0.5326 -0.0440
  539TIP3    H123032   3.914   0.109   4.174 -0.9835  0.4420  0.7546
  539TIP3    H223033   3.921   0.108   4.023  1.3180  0.5733  0.8159
  540TIP3   OH223034   5.225   0.385  11.251  0.3748  0.2487  0.5854
  540TIP3    H123035   5.196   0.294  11.252  0.3756  0.2447  0.3793
  540TIP3    H223036   5.174   0.428  11.320  0.8609 -0.0546  1.1401
  541TIP3   OH223037   6.363   4.110   1.636  0.1242 -0.6159  0.5177
  541TIP3    H123038   6.277   4.149   1.651  0.0262 -0.6341  0.0439
  541TIP3    H223039   6.362   4.085   1.543 -0.0517 -2.3430  0.9538
  542TIP3   OH223040   4.511   6.038  11.134  0.1804  0.1194 -0.2250
  542TIP3    H123041   4.435   5.993  11.170 -0.0134  0.0892 -0.6714
  542TIP3    H223042   4.550   6.083  11.209 -1.6335  2.1048 -0.4069
  543TIP3   OH223043   4.331   3.395   3.351  0.1674  0.1470  0.1126
  543TIP3    H123044   4.339   3.490   3.364  0.4103  0.3005 -1.1185
  543TIP3    H223045   4.387   3.376   3.276 -2.7749 -0.3738 -2.1192
  544TIP3   OH223046   6.486   2.174  15.430 -0.0217  0.4958 -0.8725
  544TIP3    H123047   6.522   2.118  15.361  1.2249 -1.4575  1.2250
  544TIP3    H223048   6.563   2.211  15.474 -0.7799  1.4932 -0.3428
  545TIP3   OH223049   3.915   0.498  11.591 -0.0753 -0.3656 -0.1378
  545TIP3    H123050   4.001   0.479  11.554 -1.2340 -1.5725 -2.4696
  545TIP3    H223051   3.873   0.555  11.527 -0.7090  0.9984  1.4232
  546TIP3   OH223052   0.274   4.607  11.479  0.0314  0.2498  0.2060
  546TIP3    H123053   0.207   4.626  11.544  0.7256  1.0914  0.7000
  546TIP3    H223054   0.238   4.535  11.427 -1.1479  0.5420  0.5930
  547TIP3   OH223055   1.926   0.340  16.884  0.3804  0.1532 -0.6301
  547TIP3    H123056   1.863   0.274  16.914  1.7690 -1.2499 -0.6704
  547TIP3    H223057   1.962   0.304  16.803  3.0187 -0.3372  0.6499
  548TIP3   OH223058   1.793   1.314  13.250 -0.0635  0.1783  0.0048
  548TIP3    H123059   1.860   1.247  13.234 -1.0339 -0.4291 -1.8852
  548TIP3    H223060   1.807   1.341  13.341  1.1854 -1.6565  0.4192
  549TIP3   OH223061   4.242   6.397  16.865 -0.0754 -0.6796 -0.2064
  549TIP3    H123062   4.335   6.417  16.851  0.3332 -1.6409  0.9956
  549TIP3    H223063   4.215   6.351  16.785  1.0917 -2.3373  0.2953
  550TIP3   OH223064   3.548   1.411  11.120  0.8554  0.7194 -0.1678
  550TIP3    H123065   3.483   1.454  11.065  0.6277  1.5951  0.7633
  550TIP3    H223066   3.498   1.376  11.194  1.4501  1.6258  0.6927
  551TIP3   OH223067   4.427   0.440   4.580  1.2830 -0.0107 -0.5696
  551TIP3    H123068   4.470   0.482   4.506  1.2816  1.5350  0.2676
  551TIP3    H223069   4.498   0.394   4.626  2.5274  3.5805  1.5488
  552TIP3   OH223070   0.745   6.037   3.064  0.1689  0.4342 -0.6985
  552TIP3    H123071   0.825   5.995   3.096  0.2312  0.2956 -1.0274
  552TIP3    H223072   0.709   6.082   3.140  0.1905 -0.0784 -0.3791
  553TIP3   OH223073   0.833   2.825  11.191 -0.1404 -0.2596 -1.0452
  553TIP3    H123074   0.812   2.882  11.265  0.8547 -1.1057 -0.0892
  553TIP3    H223075   0.773   2.751  11.200 -0.5991  0.0268 -1.5983
  554TIP3   OH223076   2.795   0.704  15.996  0.1066 -0.3792 -0.5381
  554TIP3    H123077   2.715   0.756  15.983 -0.9573 -1.9021 -0.3898
  554TIP3    H223078   2.865   0.758  15.960 -0.7123  1.7847  0.9253
  555TIP3   OH223079   3.482   5.191  11.724 -0.4306  0.3511  0.4595
  555TIP3    H123080   3.457   5.245  11.799  1.0824  2.5579 -0.5216
  555TIP3    H223081   3.494   5.103  11.761 -0.1439  1.2649  2.7142
  556TIP3   OH223082   2.974   4.964  15.895  0.0536 -0.1375  0.1284
  556TIP3    H123083   2.932   5.049  15.909 -0.4568 -0.5206  1.0479
  556TIP3    H223084   2.921   4.902  15.946 -0.1704 -1.1840 -1.3147
  557TIP3   OH223085   2.713   1.867  13.126  0.2349  0.0935  0.0334
  557TIP3    H123086   2.643   1.810  13.159  0.6590  0.1599  1.0964
  557TIP3    H223087   2.680   1.956  13.141  0.4665  0.1242  0.3816
  558TIP3   OH223088   2.313   6.264  12.624  0.4684 -0.3737 -0.4838
  558TIP3    H123089   2.406   6.254  12.607  0.9458 -0.4352  1.8217
  558TIP3    H223090   2.288   6.342  12.575  1.9037  0.0870 -0.5295
  559TIP3   OH223091   3.144   4.454  16.644  0.1400 -0.2077 -0.8832
  559TIP3    H123092   3.092   4.380  16.612  1.1452 -0.8866 -0.9830
  559TIP3    H223093   3.210   4.414  16.701  0.6685  0.6158 -0.9075
  560TIP3   OH223094   2.214   1.867   1.213  0.2913  0.5794 -1.0098
  560TIP3    H123095   2.240   1.795   1.270 -1.1683  0.0429 -0.9726
  560TIP3    H223096   2.119   1.870   1.220  0.3082  2.4674 -1.0824
  561TIP3   OH223097   6.519   5.858   3.587 -0.0602  0.0599  0.1647
  561TIP3    H123098   6.449   5.820   3.534 -1.2651  0.0905  1.6656
  561TIP3    H223099   6.484   5.943   3.614  1.1342  0.6836 -0.1846
  562TIP3   OH223100   3.230   3.483   1.964  0.1581  0.1805 -0.3354
  562TIP3    H123101   3.211   3.469   2.057  1.7918  0.8206  0.1234
  562TIP3    H223102   3.181   3.562   1.942 -2.0521 -1.2042 -0.6492
  563TIP3   OH223103   2.163   4.360  11.477 -0.5464  0.1815  0.4475
  563TIP3    H123104   2.082   4.311  11.490 -0.1805  0.0655  2.5449
  563TIP3    H223105   2.221   4.330  11.547  1.9147 -0.8792 -1.8498
  564TIP3   OH223106   0.041   4.713   5.359 -0.2946 -0.1023 -0.4757
  564TIP3    H123107   0.030   4.629   5.316 -2.1400  0.6578 -1.6253
  564TIP3    H223108  -0.002   4.702   5.444  0.0740 -0.5119 -0.3399
  565TIP3   OH223109   6.335   1.628  12.723  0.0619 -0.1108 -0.7755
  565TIP3    H123110   6.324   1.601  12.632 -0.6087 -1.6292 -0.2774
  565TIP3    H223111   6.274   1.701  12.733  0.6608  0.5421 -1.7151
  566TIP3   OH223112   0.124   6.268  11.790 -0.2138 -0.0607 -0.2443
  566TIP3    H123113   0.060   6.249  11.858 -0.2927  1.3971  0.1027
  566TIP3    H223114   0.196   6.207  11.808 -0.7288 -0.4906  0.4262
  567TIP3   OH223115   1.855   5.906   4.402  0.5219 -0.7505  0.4114
  567TIP3    H123116   1.765   5.927   4.376 -0.8610 -1.7947  3.8109
  567TIP3    H223117   1.877   5.971   4.468  1.9460 -1.0469  0.2651
  568TIP3   OH223118   3.496   6.510  11.366  0.3675 -0.5789  0.2310
  568TIP3    H123119   3.455   6.552  11.290 -0.9520 -0.8333  0.7761
  568TIP3    H223120   3.459   6.556  11.442  1.6024 -0.3851  0.7420
  569TIP3   OH223121   4.551   4.650  12.739 -0.0902 -0.4332 -0.2201
  569TIP3    H123122   4.466   4.658  12.695 -0.0081 -1.0323 -0.4858
  569TIP3    H223123   4.530   4.616  12.825 -0.1338 -0.4045 -0.2188
  570TIP3   OH223124   3.601   1.544   4.883  0.3679  0.1042  0.1581
  570TIP3    H123125   3.669   1.598   4.843 -0.3459  1.0464  0.1713
  570TIP3    H223126   3.523   1.560   4.829  0.1588 -0.9708  0.1275
  571TIP3   OH223127   2.258   4.657   2.315  0.1685  0.1497  0.7748
  571TIP3    H123128   2.243   4.689   2.226 -0.0506  0.6282  0.9827
  571TIP3    H223129   2.353   4.643   2.319  0.3555  1.3367  0.8578
  572TIP3   OH223130   3.651   6.150  13.879 -0.0309 -0.1902 -0.0791
  572TIP3    H123131   3.598   6.140  13.958  2.5288  1.5271  2.0429
  572TIP3    H223132   3.628   6.237  13.845  0.8353  0.2406  0.4114
  573TIP3   OH223133   3.399   6.173   5.168 -0.2092  0.0822 -0.0075
  573TIP3    H123134   3.469   6.177   5.234  0.8562  0.5186 -1.1113
  573TIP3    H223135   3.352   6.092   5.188  1.6151 -1.0798 -0.1797
  574TIP3   OH223136   2.524   6.698  14.869  0.2051  0.7945 -0.3723
  574TIP3    H123137   2.539   6.762  14.799 -0.4095  0.7890 -0.5173
  574TIP3    H223138   2.456   6.737  14.923 -0.0147  0.3696 -0.3348
  575TIP3   OH223139   4.081   3.145   0.875 -0.4304 -0.2734  0.5452
  575TIP3    H123140   3.997   3.128   0.833 -0.0924 -1.5286  0.3152
  575TIP3    H223141   4.064   3.215   0.938 -1.0479  1.3881 -1.3664
  576TIP3   OH223142   0.939   1.652   3.161 -0.9724  0.2732 -0.0939
  576TIP3    H123143   0.939   1.591   3.235 -0.7492  0.7806  0.3314
  576TIP3    H223144   0.958   1.597   3.085  1.1776  0.0521  0.5170
  577TIP3   OH223145   1.411   4.430   0.286  0.0942  0.2742  0.1647
  577TIP3    H123146   1.385   4.434   0.378 -0.9371 -0.5414 -0.0643
  577TIP3    H223147   1.328   4.434   0.238  0.6130  0.6105 -0.7292
  578TIP3   OH223148   6.259   3.591  15.078 -0.2058 -0.1398  0.4454
  578TIP3    H123149   6.260   3.503  15.040 -2.0129  0.5307 -1.3393
  578TIP3    H223150   6.344   3.629  15.054 -0.8510 -0.1413 -2.0808
  579TIP3   OH223151   2.737   0.449   2.316  0.3200 -0.7596 -0.2196
  579TIP3    H123152   2.738   0.372   2.259 -1.3141 -0.7010 -0.3780
  579TIP3    H223153   2.820   0.446   2.363  0.5031 -2.3359 -0.5999
  580TIP3   OH223154   5.042   0.923   3.084 -0.5454 -0.4775 -0.3272
  580TIP3    H123155   5.090   0.901   3.004  2.6573  1.5857  0.8103
  580TIP3    H223156   4.964   0.970   3.053  0.0385 -0.6970 -2.2494
  581TIP3   OH223157   6.696   6.218   2.891 -0.1548  0.5777  0.0987
  581TIP3    H123158   6.783   6.193   2.858  0.6649  1.2477  1.6248
  581TIP3    H223159   6.643   6.139   2.881  0.3492  0.4343 -1.7209
  582TIP3   OH223160   2.882   6.694  11.441  0.1268 -0.1722  0.2088
  582TIP3    H123161   2.849   6.753  11.509  3.0268  0.4647  1.1751
  582TIP3    H223162   2.924   6.752  11.378 -0.9923 -0.9102 -1.2747
  583TIP3   OH223163   5.229   5.936  14.462  0.0136  0.1274 -0.0595
  583TIP3    H123164   5.290   6.006  14.486 -1.8810  2.2695 -1.0617
  583TIP3    H223165   5.241   5.925  14.368 -0.4677 -0.0702 -0.1026
  584TIP3   OH223166   3.785   0.316   6.434 -0.5571 -0.4704 -0.7697
  584TIP3    H123167   3.875   0.304   6.405 -0.1656 -0.8558  0.5371
  584TIP3    H223168   3.742   0.233   6.413  0.0041 -1.1529  0.7070
  585TIP3   OH223169   2.259   4.119  12.005  0.4342  0.1742  0.2066
  585TIP3    H123170   2.242   4.104  11.912 -0.6531  0.4896  0.3492
  585TIP3    H223171   2.329   4.057  12.027 -1.0493 -1.7296 -0.2139
  586TIP3   OH223172   0.662   5.029  16.830  0.8440  0.2250  0.5208
  586TIP3    H123173   0.623   5.106  16.871  0.7200  0.4273  0.0382
  586TIP3    H223174   0.749   5.022  16.871  1.2698  1.2430 -0.1516
  587TIP3   OH223175   1.995   1.091  13.177  0.3976 -0.3423 -0.3638
  587TIP3    H123176   2.046   1.039  13.240  0.7745  0.9461  0.4192
  587TIP3    H223177   1.919   1.036  13.158  0.5874 -1.0287  0.7352
  588TIP3   OH223178   6.162   3.273   1.651  0.3065  0.1637 -0.0960
  588TIP3    H123179   6.255   3.257   1.669  0.3001 -1.0512 -0.9620
  588TIP3    H223180   6.152   3.252   1.558 -1.2745 -2.1680  0.4943
  589TIP3   OH223181   2.512   1.277   0.144 -0.3454 -0.3931  0.9090
  589TIP3    H123182   2.467   1.288   0.061 -0.3655  1.3875  1.1151
  589TIP3    H223183   2.465   1.205   0.187 -1.5820 -0.0497  0.1965
  590TIP3   OH223184   0.383   1.351   1.458  0.1657  0.1852 -0.2309
  590TIP3    H123185   0.350   1.264   1.480  2.1722 -1.1275 -2.0095
  590TIP3    H223186   0.465   1.358   1.508 -0.6213  1.6964  0.9660
  591TIP3   OH223187   4.064   2.027  11.368  0.6707 -0.0181  0.3089
  591TIP3    H123188   3.984   1.979  11.387  0.6374 -0.1983 -0.2661
  591TIP3    H223189   4.119   1.965  11.319  1.9883 -0.5794  2.3392
  592TIP3   OH223190   2.401   4.249  14.455  0.0625 -0.0714  0.3334
  592TIP3    H123191   2.471   4.238  14.519  1.5287 -0.1398 -1.1976
  592TIP3    H223192   2.418   4.183  14.389 -2.0351 -0.7168  0.3568
  593TIP3   OH223193   0.428   5.661  16.176  0.1001 -0.0204 -0.5689
  593TIP3    H123194   0.434   5.672  16.081 -2.7118  1.0426 -0.6949
  593TIP3    H223195   0.391   5.574  16.188  1.4642 -0.5947 -0.3660
  594TIP3   OH223196   5.861   5.269  13.764 -0.2186  0.1812  0.6471
  594TIP3    H123197   5.886   5.320  13.686 -0.7079  2.4173  1.8616
  594TIP3    H223198   5.880   5.179  13.740 -0.8237  0.7046 -2.2739
  595TIP3   OH223199   2.769   5.616   1.285  0.2818  0.4741 -0.6401
  595TIP3    H123200   2.774   5.623   1.381  1.4996 -1.1368 -0.5476
  595TIP3    H223201   2.737   5.528   1.270  1.1622  0.3267 -1.7263
  596TIP3   OH223202   0.577   5.536   4.664  0.1125  0.3303  0.1370
  596TIP3    H123203   0.610   5.568   4.579  0.2394 -0.5036 -0.1413
  596TIP3    H223204   0.482   5.530   4.652  0.0422  0.9916  0.3314
  597TIP3   OH223205   1.361   4.314   3.630  0.1851 -0.3601 -0.2663
  597TIP3    H123206   1.321   4.256   3.565  0.7189  0.9985 -1.8934
  597TIP3    H223207   1.363   4.263   3.711 -0.5117 -2.1197 -1.3140
  598TIP3   OH223208   4.150   3.719  15.604  0.1174  0.2857  0.4027
  598TIP3    H123209   4.171   3.635  15.645  2.1378  0.4310 -0.2520
  598TIP3    H223210   4.191   3.715  15.517  2.6259  2.9149  1.3066
  599TIP3   OH223211   4.005   1.175   1.946  0.1909 -0.3753 -0.2406
  599TIP3    H123212   4.074   1.241   1.946 -0.1763  0.0592  1.3690
  599TIP3    H223213   3.926   1.223   1.920 -1.1297  1.2180  5.3126
  600TIP3   OH223214   2.105   2.519   2.982 -0.3299  0.4083  0.3098
  600TIP3    H123215   2.018   2.479   2.979  0.1517 -0.6231 -0.7451
  600TIP3    H223216   2.111   2.567   2.899  0.5002 -0.4372 -0.1384
  601TIP3   OH223217   0.398   1.958   1.817  0.7051 -0.3840 -0.0270
  601TIP3    H123218   0.366   1.871   1.839  0.5115 -0.2999  0.0244
  601TIP3    H223219   0.320   2.008   1.793  0.7015  0.0249  0.7822
  602TIP3   OH223220   6.101   2.288  16.699  0.3683  0.0342 -0.8629
  602TIP3    H123221   6.193   2.317  16.703 -0.1697  1.6963  1.6321
  602TIP3    H223222   6.059   2.349  16.638  0.7002 -0.1396 -1.2751
  603TIP3   OH223223   1.216   5.886  11.366  0.2420 -0.1041  0.6248
  603TIP3    H123224   1.253   5.800  11.385  3.2154  0.8517 -0.2970
  603TIP3    H223225   1.235   5.938  11.444 -1.4574 -0.2037  1.1389
  604TIP3   OH223226   5.109   1.525  13.820  0.5805  0.7153  0.3248
  604TIP3    H123227   5.052   1.553  13.748  0.6873  2.2587  0.7972
  604TIP3    H223228   5.069   1.564  13.898  2.6045  2.4231  0.5976
  605TIP3   OH223229   5.260   0.480  17.136 -0.0575 -0.1256  0.1385
  605TIP3    H123230   5.258   0.557  17.193  0.9844  0.0412 -0.0306
  605TIP3    H223231   5.192   0.496  17.071 -0.3451  0.3072  0.5424
  606TIP3   OH223232   3.505   4.312  14.341  0.4910 -0.3497  0.1594
  606TIP3    H123233   3.481   4.274  14.257  0.6846 -1.3290  0.5298
  606TIP3    H223234   3.443   4.383  14.355  0.9124  0.2969 -1.1408
  607TIP3   OH223235   2.781   3.330  16.073  0.1377 -0.4425 -0.5337
  607TIP3    H123236   2.756   3.405  16.019 -1.3719 -1.4422 -1.2875
  607TIP3    H223237   2.828   3.272  16.012  2.7135  0.5023  0.3946
  608TIP3   OH223238   3.569   1.733   6.836  0.0005 -0.0039  0.3326
  608TIP3    H123239   3.613   1.817   6.852 -0.9429  1.0031 -1.8166
  608TIP3    H223240   3.627   1.687   6.777 -0.3564 -0.0153 -0.0164
  609TIP3   OH223241   3.643   4.857   0.180 -0.1602 -0.2575 -0.4386
  609TIP3    H123242   3.690   4.796   0.123  0.6069 -0.2573  0.1682
  609TIP3    H223243   3.695   4.858   0.260 -0.4374  0.8293 -0.2667
  610TIP3   OH223244   0.020   4.659  16.849  0.3260  0.5724 -0.1651
  610TIP3    H123245  -0.074   4.663  16.866  0.3819  2.3372 -0.0488
  610TIP3    H223246   0.061   4.684  16.932  0.9276 -0.3248 -0.1714
  611TIP3   OH223247   2.357   3.044   4.111 -0.0503 -0.0303 -0.2419
  611TIP3    H123248   2.332   3.135   4.128  0.0134  0.0729 -0.6795
  611TIP3    H223249   2.313   3.023   4.029 -1.2496 -0.8696  0.5903
  612TIP3   OH223250   0.555   3.306  16.446  0.0824 -0.5269 -0.4147
  612TIP3    H123251   0.489   3.245  16.477 -1.3042 -0.2848 -2.6416
  612TIP3    H223252   0.626   3.251  16.412  0.4834 -0.8063  0.8483
  613TIP3   OH223253   4.784   3.717   6.378  0.3847  0.4007 -0.0600
  613TIP3    H123254   4.764   3.805   6.410  0.7118  0.6554 -0.5477
  613TIP3    H223255   4.878   3.720   6.358  0.3733 -0.0265 -0.1761
  614TIP3   OH223256   0.355   3.930   3.201 -0.4112  0.1925 -0.2295
  614TIP3    H123257   0.422   3.890   3.146 -0.9571  0.5279 -1.1753
  614TIP3    H223258   0.375   4.024   3.198 -0.8709  0.2862 -0.4626
  615TIP3   OH223259   0.269   4.622   2.410 -0.6277  0.0172 -0.1403
  615TIP3    H123260   0.346   4.571   2.436  0.1154  0.9045 -0.5240
  615TIP3    H223261   0.269   4.696   2.471 -1.6932 -0.4169  0.4111
  616TIP3   OH223262   4.881   6.299  12.334 -1.0681 -0.0093 -0.1944
  616TIP3    H123263   4.809   6.354  12.366 -2.0831 -0.3408 -1.7847
  616TIP3    H223264   4.869   6.298  12.239  0.7518 -0.5076 -0.4476
  617TIP3   OH223265   3.035   0.077   5.780 -0.0109  0.2969  0.6952
  617TIP3    H123266   2.983   0.148   5.741  1.6012 -0.4318 -3.2481
  617TIP3    H223267   3.098   0.122   5.836 -1.9093  1.5136  1.9845
  618TIP3   OH223268   3.113   2.329  14.909 -0.3214 -1.1190  0.0307
  618TIP3    H123269   3.145   2.418  14.917 -2.6044 -0.2916  0.7642
  618TIP3    H223270   3.166   2.290  14.840  0.9986  0.6576 -0.0073
  619TIP3   OH223271   2.874   2.896   4.036 -0.6610 -0.6342 -0.3577
  619TIP3    H123272   2.895   2.824   4.095 -0.8473  1.4801  2.5220
  619TIP3    H223273   2.958   2.926   4.004 -0.3612 -0.6198  0.4055
  620TIP3   OH223274   4.665   3.145  16.908  0.0340  0.5013 -0.0691
  620TIP3    H123275   4.687   3.236  16.927 -1.0053  0.6794  0.3466
  620TIP3    H223276   4.675   3.100  16.991  1.2767  0.0567 -0.4272
  621TIP3   OH223277   0.734   6.186  14.790 -0.5600  0.5383  0.4881
  621TIP3    H123278   0.804   6.251  14.789  0.3338 -0.3804 -1.1754
  621TIP3    H223279   0.718   6.170  14.883  0.8667  1.3835  0.9182
  622TIP3   OH223280   2.050   0.911  11.545  0.8362 -0.1220 -0.1105
  622TIP3    H123281   1.967   0.932  11.587 -0.2246  0.2262 -2.2326
  622TIP3    H223282   2.066   0.820  11.567 -2.0821 -1.4292 -2.5360
  623TIP3   OH223283   2.531   3.254  13.143  0.1640  0.9217 -0.6374
  623TIP3    H123284   2.441   3.285  13.135  0.7352  2.3343 -1.9361
  623TIP3    H223285   2.584   3.333  13.148  1.4237  0.1228 -0.7483
  624TIP3   OH223286   3.960   5.847   6.303 -0.2571  0.2633 -0.8789
  624TIP3    H123287   4.026   5.788   6.266  0.8266  1.3156 -0.7040
  624TIP3    H223288   3.879   5.825   6.257 -0.5289 -3.0260  0.9149
  625TIP3   OH223289   6.412   6.537  15.672 -0.1446 -0.3084 -0.0135
  625TIP3    H123290   6.463   6.458  15.686  0.4436 -0.4474 -2.5272
  625TIP3    H223291   6.327   6.519  15.714 -0.2182 -2.5021 -0.9593
  626TIP3   OH223292   0.362   3.117  12.132  0.7420 -0.3597 -0.5163
  626TIP3    H123293   0.446   3.156  12.153  0.2294  0.5351 -0.1087
  626TIP3    H223294   0.364   3.031  12.175  0.3056  0.8109  2.0068
  627TIP3   OH223295   0.173   5.878  15.708  0.0944  0.4460  0.1400
  627TIP3    H123296   0.232   5.870  15.783  1.2837  4.0319 -0.1957
  627TIP3    H223297   0.110   5.946  15.734 -0.5398  0.5290 -1.4816
  628TIP3   OH223298   1.587   3.129   4.843  0.0305  0.2792 -0.7854
  628TIP3    H123299   1.565   3.039   4.820  0.3469  0.3168 -1.2549
  628TIP3    H223300   1.649   3.122   4.915 -0.3631  0.1377 -0.4567
  629TIP3   OH223301   5.579   3.563   0.463  0.3292  0.1524  0.1986
  629TIP3    H123302   5.594   3.549   0.369  1.3705 -0.9284  0.4985
  629TIP3    H223303   5.484   3.565   0.472  0.2126  0.1417 -0.8632
  630TIP3   OH223304   2.032   6.724   4.970  0.1841 -0.1138 -0.3318
  630TIP3    H123305   2.019   6.646   5.025  0.3365  0.5167  0.6231
  630TIP3    H223306   2.117   6.711   4.929 -1.1320 -1.9273 -2.6973
  631TIP3   OH223307   0.534   1.828   3.729 -0.1642  0.2579 -0.1933
  631TIP3    H123308   0.505   1.755   3.674  1.2838 -1.0432  0.6881
  631TIP3    H223309   0.599   1.789   3.788  0.0238  2.0950  0.8796
  632TIP3   OH223310   3.722   3.927   1.218 -0.1137  0.4543  0.1120
  632TIP3    H123311   3.667   3.928   1.296 -1.3292  2.4033 -0.6957
  632TIP3    H223312   3.677   3.867   1.158  1.0435 -1.3784  0.9693
  633TIP3   OH223313   0.609   5.428  16.615  0.4382 -0.4214 -0.6282
  633TIP3    H123314   0.578   5.472  16.536 -1.1030  0.0300  0.1843
  633TIP3    H223315   0.571   5.340  16.609 -0.4437 -0.1007  0.0195
  634TIP3   OH223316   4.908   4.425   2.037  0.1283  0.1984 -0.0309
  634TIP3    H123317   4.980   4.426   1.974  0.4481 -0.4951  0.3228
  634TIP3    H223318   4.886   4.517   2.049 -1.2886  0.3032 -2.6965
  635TIP3   OH223319   2.934   0.626   4.391 -0.5759 -0.0137 -0.7066
  635TIP3    H123320   2.925   0.682   4.468  0.8002  0.6736 -1.0202
  635TIP3    H223321   2.905   0.681   4.318  0.0721  0.0373 -0.9271
  636TIP3   OH223322   2.654   1.671   5.870 -0.9288 -0.0233 -0.1500
  636TIP3    H123323   2.611   1.735   5.814 -1.1973  0.8661  1.0320
  636TIP3    H223324   2.586   1.644   5.932 -0.3830 -0.2663  0.3529
  637TIP3   OH223325   2.528   1.124  14.611 -0.6282 -0.0420 -0.2941
  637TIP3    H123326   2.433   1.132  14.615 -0.8522 -0.7123 -2.5879
  637TIP3    H223327   2.545   1.030  14.624 -0.0718  0.2897  1.8650
  638TIP3   OH223328   5.343   6.161   1.100 -0.4129 -0.3554 -0.1511
  638TIP3    H123329   5.319   6.100   1.030 -1.1256 -1.7777  1.2615
  638TIP3    H223330   5.288   6.135   1.174  2.5373 -1.0779  1.9793
  639TIP3   OH223331   4.014   0.812  11.342  0.2351  0.1886 -0.2800
  639TIP3    H123332   3.946   0.780  11.401  0.0030  1.3259  0.0916
  639TIP3    H223333   3.969   0.827  11.259  0.3497 -0.4210 -0.4634
  640TIP3   OH223334   4.401   4.664   0.438  0.3159  0.3666 -0.4227
  640TIP3    H123335   4.470   4.601   0.416  0.7773  0.9872 -0.8003
  640TIP3    H223336   4.447   4.732   0.488  0.0879  1.0759 -1.1687
  641TIP3   OH223337   6.174   4.296   1.812 -0.3028  0.3669 -0.2564
  641TIP3    H123338   6.253   4.279   1.865 -0.2800 -1.2791 -0.7608
  641TIP3    H223339   6.102   4.270   1.869 -0.3438 -0.2596 -0.5855
  642TIP3   OH223340   3.365   3.751   1.163 -0.4116 -0.1332  0.2302
  642TIP3    H123341   3.331   3.840   1.170 -1.2530 -0.4981  0.9543
  642TIP3    H223342   3.446   3.760   1.112 -0.0010  1.1659  1.0638
  643TIP3   OH223343   3.265   4.715  12.801  0.1153 -0.1218 -0.2559
  643TIP3    H123344   3.239   4.625  12.781  0.5187  0.0316 -1.5558
  643TIP3    H223345   3.185   4.766  12.790  0.3591 -0.0241 -1.6428
  644TIP3   OH223346   2.152   1.379   4.320  0.3728 -0.0806 -0.3902
  644TIP3    H123347   2.123   1.375   4.411 -0.5750  0.2774 -0.6744
  644TIP3    H223348   2.094   1.319   4.273  1.4629 -0.9939 -0.6181
  645TIP3   OH223349   4.701   5.598  13.428  0.3864 -0.2171  0.1417
  645TIP3    H123350   4.616   5.593  13.384 -0.7464 -0.7309  2.2571
  645TIP3    H223351   4.753   5.654  13.371 -1.4313  0.2901 -1.1368
  646TIP3   OH223352   4.385   0.219  16.829 -0.6041  0.4760 -1.0720
  646TIP3    H123353   4.325   0.189  16.761  1.8326 -2.7010 -2.0862
  646TIP3    H223354   4.423   0.299  16.794 -1.7337  0.6480 -1.9683
  647TIP3   OH223355   3.368   4.944  12.218 -0.1716 -0.5932  0.0639
  647TIP3    H123356   3.330   4.919  12.302  1.2812 -0.3257  0.8410
  647TIP3    H223357   3.315   5.018  12.189 -0.1127 -0.0802  1.2139
  648TIP3   OH223358   3.852   3.547  11.779  0.3242 -0.2909  0.3593
  648TIP3    H123359   3.811   3.465  11.810 -1.0066  0.5819  0.9997
  648TIP3    H223360   3.781   3.596  11.739  1.7526 -0.8555 -3.2535
  649TIP3   OH223361   6.058   0.377  16.662 -0.7101  0.0259  0.2080
  649TIP3    H123362   6.064   0.421  16.577 -0.0503  1.7069  1.0946
  649TIP3    H223363   6.004   0.299  16.644 -0.5724  0.3186 -1.7390
  650TIP3   OH223364   5.104   6.180  14.554 -0.7971 -0.4131  0.3803
  650TIP3    H123365   5.020   6.207  14.515  0.3138 -0.8672 -2.5552
  650TIP3    H223366   5.093   6.087  14.572 -0.8059 -0.5996 -0.5051
  651TIP3   OH223367   4.839   5.258  13.474 -0.1998 -0.1035 -0.2657
  651TIP3    H123368   4.755   5.234  13.434  0.5347 -0.9675 -1.3199
  651TIP3    H223369   4.884   5.309  13.407 -0.4958  1.7590  0.8692
  652TIP3   OH223370   2.513   4.512  13.454 -0.4645  0.1526  0.0306
  652TIP3    H123371   2.585   4.480  13.399  0.1229  0.7736  0.4161
  652TIP3    H223372   2.534   4.479  13.542 -1.1438 -0.4319 -0.0147
  653TIP3   OH223373   0.207   2.374   2.418  0.3994 -0.5448 -0.3096
  653TIP3    H123374   0.120   2.361   2.379 -0.1260 -1.7491  1.1840
  653TIP3    H223375   0.198   2.454   2.469  0.4398 -0.1780 -0.8700
  654TIP3   OH223376   5.459   2.503  13.630  0.2233  0.5978 -0.3417
  654TIP3    H123377   5.544   2.462  13.647  0.1642  1.3891  2.2037
  654TIP3    H223378   5.401   2.468  13.698 -0.8846  1.8249 -0.6158
  655TIP3   OH223379   3.079   4.151  10.872  0.2600  0.1225  0.2860
  655TIP3    H123380   3.050   4.239  10.898 -0.8574  0.3362 -1.4799
  655TIP3    H223381   3.165   4.165  10.833 -0.7950  0.8570 -1.9690
  656TIP3   OH223382   3.910   2.876   1.442  0.0829  0.1140 -0.0050
  656TIP3    H123383   3.948   2.869   1.529 -3.6890 -0.2790  1.7953
  656TIP3    H223384   3.953   2.953   1.403  2.1383  0.0636  1.9786
  657TIP3   OH223385   6.130   6.343   2.351  0.2974 -0.2135  0.0503
  657TIP3    H123386   6.183   6.409   2.396  0.2482 -0.7833  0.9596
  657TIP3    H223387   6.125   6.375   2.261 -0.9268  1.7823  0.7625
  658TIP3   OH223388   6.115   2.704   4.886 -0.4658 -0.4625  1.0743
  658TIP3    H123389   6.110   2.618   4.926 -1.8549 -1.5922 -1.3035
  658TIP3    H223390   6.177   2.694   4.814 -1.4537  0.1844  0.0969
  659TIP3   OH223391   3.924   3.461  16.834 -0.6077  0.9292 -0.1738
  659TIP3    H123392   3.860   3.426  16.773  1.2075  2.1859 -2.9894
  659TIP3    H223393   4.006   3.418  16.810  0.2161  1.5764  1.3188
  660TIP3   OH223394   4.026   0.878  12.497  0.3617  0.3747 -0.7264
  660TIP3    H123395   3.976   0.877  12.416  0.4798 -2.2097 -0.8427
  660TIP3    H223396   4.118   0.871  12.470  0.3101 -2.7663 -0.4472
  661TIP3   OH223397   6.729   3.499   4.359 -0.1946  0.3770 -0.2563
  661TIP3    H123398   6.680   3.434   4.409  0.5507 -0.5118 -0.6333
  661TIP3    H223399   6.821   3.471   4.368 -0.0902 -0.3496 -2.7949
  662TIP3   OH223400   3.082   6.339  15.585  0.9871  0.5748 -0.4811
  662TIP3    H123401   3.131   6.281  15.527  0.9075  0.0967 -0.0810
  662TIP3    H223402   3.139   6.415  15.598  2.4373 -0.7540  1.4195
  663TIP3   OH223403   6.613   3.342   0.762 -0.1636  0.0753 -0.8144
  663TIP3    H123404   6.613   3.291   0.681  1.9958 -0.0581 -0.7856
  663TIP3    H223405   6.582   3.281   0.829  0.8363 -0.7289 -1.0610
  664TIP3   OH223406   2.456   3.186   3.389 -0.6842 -0.5385  0.2609
  664TIP3    H123407   2.379   3.220   3.342 -0.2765  1.2341  0.8107
  664TIP3    H223408   2.420   3.154   3.472 -0.9063 -0.2640  0.2733
  665TIP3   OH223409   4.407   0.276  11.738  0.8846 -0.0125  0.3654
  665TIP3    H123410   4.447   0.363  11.733 -0.1648  0.4104 -1.3164
  665TIP3    H223411   4.314   0.293  11.754  0.4969 -0.7780 -0.9572
  666TIP3   OH223412   1.390   5.408   2.401 -0.1058  0.1162  0.0157
  666TIP3    H123413   1.432   5.492   2.420 -0.3691  0.1279  0.5736
  666TIP3    H223414   1.422   5.385   2.314  0.7136  0.3367  0.2436
  667TIP3   OH223415   1.880   6.183   4.937 -0.7593 -0.8126  0.6735
  667TIP3    H123416   1.961   6.192   4.887 -1.1954 -1.6872 -0.2270
  667TIP3    H223417   1.869   6.088   4.948 -1.2301 -0.6682  1.5163
  668TIP3   OH223418   5.241   4.602   3.779 -0.1992 -0.2936 -0.3660
  668TIP3    H123419   5.332   4.626   3.796  0.2245 -2.6845  1.1812
  668TIP3    H223420   5.190   4.676   3.813  1.1151  1.0055 -1.1153
  669TIP3   OH223421   0.993   5.678  14.074  0.5777  0.1028 -0.0956
  669TIP3    H123422   1.000   5.684  13.979  1.8023 -0.2665 -0.0429
  669TIP3    H223423   0.917   5.622  14.090  0.6775 -0.2463 -0.8522
  670TIP3   OH223424   3.958   0.142  15.647  0.1749  0.0692  0.6051
  670TIP3    H123425   3.889   0.119  15.586  0.3622 -1.4711  0.9212
  670TIP3    H223426   3.992   0.226  15.615 -2.0838  1.0980  0.6937
  671TIP3   OH223427   5.370   3.948   4.904 -1.1221 -0.0447  0.2476
  671TIP3    H123428   5.343   3.952   4.996 -2.0537 -0.9027  0.0267
  671TIP3    H223429   5.322   4.019   4.862 -1.6908 -0.4631  0.1863
  672TIP3   OH223430   1.759   1.449  16.457 -0.3568 -0.1026  0.5893
  672TIP3    H123431   1.763   1.416  16.547 -0.0236 -0.1481  0.5604
  672TIP3    H223432   1.770   1.543  16.466 -0.8099 -0.0530  0.6339
  673TIP3   OH223433   4.207   4.290  11.659  0.0751  0.1364 -0.4671
  673TIP3    H123434   4.124   4.337  11.674 -1.2132 -1.6793 -1.5858
  673TIP3    H223435   4.232   4.315  11.570  0.6955  0.5826 -0.1746
  674TIP3   OH223436   6.244   4.918   1.447 -0.9062 -0.2894  0.2314
  674TIP3    H123437   6.255   4.840   1.392  0.9645 -0.3607  0.6355
  674TIP3    H223438   6.309   4.907   1.517 -3.0329 -0.0845  2.3552
  675TIP3   OH223439   5.529   0.127   4.053  0.0458 -0.1425  0.2621
  675TIP3    H123440   5.531   0.037   4.020  0.1073  0.2878 -0.9681
  675TIP3    H223441   5.457   0.168   4.005  1.3581  1.0314 -0.7960
  676TIP3   OH223442   3.004   6.590   3.716 -0.0013  0.1411  0.1357
  676TIP3    H123443   3.019   6.584   3.622  0.6309  2.3502  0.0564
  676TIP3    H223444   2.954   6.671   3.728 -1.3977 -0.8452  1.5927
  677TIP3   OH223445   0.958   6.399   3.382  1.3262  0.2262 -0.3937
  677TIP3    H123446   0.895   6.387   3.454 -0.1604  2.1504 -1.2844
  677TIP3    H223447   0.917   6.355   3.307 -0.1904  3.3619 -1.5592
  678TIP3   OH223448   6.335   2.913   0.932  0.6864 -0.0555  0.2750
  678TIP3    H123449   6.426   2.886   0.945  0.7389 -0.4294 -0.7442
  678TIP3    H223450   6.339   2.976   0.861  0.2803  0.8745  1.0642
  679TIP3   OH223451   6.379   1.342  15.980  0.0611  0.3653  0.4769
  679TIP3    H123452   6.406   1.330  15.889  0.1388  0.3431  0.5037
  679TIP3    H223453   6.418   1.425  16.006  1.8273 -0.6199  1.1559
  680TIP3   OH223454   3.428   2.903   4.487 -0.2180  0.3192 -0.0390
  680TIP3    H123455   3.498   2.894   4.422  1.2198 -0.3981  1.5365
  680TIP3    H223456   3.462   2.966   4.550 -0.7882 -0.3785  0.9965
  681TIP3   OH223457   6.412   0.851   2.022 -0.2350  0.2022 -0.2632
  681TIP3    H123458   6.335   0.813   1.979 -0.7473 -1.5838  2.0507
  681TIP3    H223459   6.457   0.776   2.061  0.1217  1.6793  2.3419
  682TIP3   OH223460   3.058   3.626  16.022 -0.5757 -0.0395 -0.3531
  682TIP3    H123461   3.015   3.574  16.090 -2.2888  0.5520 -0.9445
  682TIP3    H223462   3.078   3.709  16.065  1.6699 -0.8838  0.4301
  683TIP3   OH223463   6.733   5.899  13.530  0.2291 -0.1411 -0.5940
  683TIP3    H123464   6.794   5.968  13.556 -0.4645  1.0575 -2.0570
  683TIP3    H223465   6.759   5.875  13.441 -0.5558 -0.6267 -0.7082
  684TIP3   OH223466   3.124   5.009   4.583 -0.5206 -0.2097  0.1084
  684TIP3    H123467   3.100   4.916   4.584  0.1186 -0.3957 -0.6428
  684TIP3    H223468   3.069   5.049   4.650 -3.7381 -0.4167 -2.1630
  685TIP3   OH223469   6.507   5.175   5.207  0.3948  0.0237 -0.4856
  685TIP3    H123470   6.411   5.169   5.207  0.2413  1.7066  0.7566
  685TIP3    H223471   6.525   5.268   5.191  1.7717  0.0328  0.9072
  686TIP3   OH223472   3.098   2.806  10.636  0.0990  0.1018 -0.3563
  686TIP3    H123473   3.043   2.727  10.641 -1.1390  1.0145  2.1854
  686TIP3    H223474   3.038   2.875  10.609  0.3907  0.7889  0.7132
  687TIP3   OH223475   1.722   5.702   1.221  0.0365  0.6053 -0.0307
  687TIP3    H123476   1.771   5.620   1.221 -1.0052 -0.0415 -0.5164
  687TIP3    H223477   1.788   5.770   1.215  0.8873 -0.2202 -0.2041
  688TIP3   OH223478   6.064   2.041   4.180 -0.4359 -0.4145 -0.0930
  688TIP3    H123479   6.120   2.022   4.255  2.3118  0.1235 -1.8448
  688TIP3    H223480   6.026   2.127   4.200  0.5563 -0.1025  0.5567
  689TIP3   OH223481   0.737   2.008   2.432  0.4226 -0.5376 -0.2612
  689TIP3    H123482   0.799   1.946   2.393 -0.2876  0.1810 -2.7188
  689TIP3    H223483   0.675   1.954   2.480  2.0292 -1.3813  0.9616
  690TIP3   OH223484   5.021   3.148   3.358 -0.0099 -0.3858  0.9909
  690TIP3    H123485   4.982   3.180   3.276  1.6591 -2.5375 -0.8069
  690TIP3    H223486   4.960   3.174   3.426 -2.3148  0.1249 -1.1227
  691TIP3   OH223487   0.554   2.017  16.428 -0.6447 -0.0304 -0.2023
  691TIP3    H123488   0.539   1.993  16.520  0.9308  0.0471  0.0915
  691TIP3    H223489   0.485   2.080  16.408 -0.7968  0.2133  1.0373
  692TIP3   OH223490   0.958   6.011  12.273 -0.1669 -0.1276  0.2500
  692TIP3    H123491   0.962   5.922  12.238  0.3236  0.2607 -0.7079
  692TIP3    H223492   1.035   6.018  12.328 -0.3157 -0.3553  0.4934
  693TIP3   OH223493   1.938   4.395   0.789 -0.2294  0.3180 -0.2345
  693TIP3    H123494   2.034   4.392   0.794 -0.1878  0.9362 -0.5720
  693TIP3    H223495   1.920   4.439   0.706 -0.8004  0.5348  0.0014
  694TIP3   OH223496   3.422   5.372   4.110 -0.0167 -0.6219 -0.7433
  694TIP3    H123497   3.431   5.298   4.169 -0.5895  0.3188  0.5796
  694TIP3    H223498   3.465   5.344   4.029  2.1950 -1.3992  0.6058
  695TIP3   OH223499   0.258   2.045  14.904 -0.1382 -0.0621  0.0618
  695TIP3    H123500   0.229   2.112  14.842 -1.9217 -0.2127  0.6859
  695TIP3    H223501   0.346   2.072  14.929  0.4644  0.2516 -2.1680
  696TIP3   OH223502   1.283   0.875  15.309  0.3000  0.0846 -0.5368
  696TIP3    H123503   1.304   0.966  15.333 -1.1042  0.5459 -0.9634
  696TIP3    H223504   1.297   0.826  15.390 -0.8107  1.0229  0.2670
  697TIP3   OH223505   2.350   0.678   2.176  0.2988  0.2343  0.7308
  697TIP3    H123506   2.435   0.709   2.209 -0.8137  1.8320  2.2468
  697TIP3    H223507   2.300   0.656   2.255 -2.0928  3.1736  0.2120
  698TIP3   OH223508   2.877   0.036  12.850 -0.6288  0.4830 -0.2921
  698TIP3    H123509   2.914  -0.006  12.927 -0.8908  0.4159 -0.2005
  698TIP3    H223510   2.839  -0.036  12.799 -1.2835  0.6229 -0.0217
  699TIP3   OH223511   5.123   3.845   2.105  0.4277 -0.5066  0.1305
  699TIP3    H123512   5.079   3.902   2.168  0.2948 -1.4728  0.9388
  699TIP3    H223513   5.175   3.905   2.051 -1.2485  0.5796 -0.3517
  700TIP3   OH223514   3.054   1.222   2.539  0.1784 -0.2238 -0.0966
  700TIP3    H123515   2.985   1.282   2.512 -0.7547 -1.5952 -0.8897
  700TIP3    H223516   3.132   1.277   2.547 -0.6303  1.0810 -0.7976
  701TIP3   OH223517   6.063   3.223   4.149  0.0976  0.1102 -0.0805
  701TIP3    H123518   6.037   3.242   4.240  0.3365  0.1848 -0.0277
  701TIP3    H223519   6.052   3.128   4.141  1.7601 -0.1852  0.5828
  702TIP3   OH223520   4.300   3.423  11.871  0.4892 -0.3470 -0.2122
  702TIP3    H123521   4.343   3.355  11.818  0.0599  0.3267 -1.4514
  702TIP3    H223522   4.251   3.476  11.808  2.8478  2.7149  0.2968
  703TIP3   OH223523   1.391   5.172   2.924  0.2459 -0.1390  0.0530
  703TIP3    H123524   1.368   5.251   2.874 -0.3876 -0.8805 -0.8729
  703TIP3    H223525   1.330   5.173   2.998 -1.1326 -0.7509 -1.0122
  704TIP3   OH223526   3.496   3.209   3.049  0.4017 -0.2801 -0.2504
  704TIP3    H123527   3.506   3.255   2.966 -1.0630  1.4372  0.4665
  704TIP3    H223528   3.482   3.278   3.114 -2.1715 -1.6700  0.8460
  705TIP3   OH223529   3.543   3.558   2.461  0.5859  0.0560 -0.4018
  705TIP3    H123530   3.553   3.615   2.537  0.1579  1.2004 -1.1696
  705TIP3    H223531   3.480   3.492   2.489 -0.6044  1.2470 -0.1686
  706TIP3   OH223532   1.964   2.495  16.344  0.1621  0.1262 -0.1683
  706TIP3    H123533   1.980   2.436  16.270  0.1938  0.0674 -0.1140
  706TIP3    H223534   1.871   2.516  16.338 -0.1830 -1.0645  0.6348
  707TIP3   OH223535   4.340   5.889  12.093  0.2450 -0.0930  0.1861
  707TIP3    H123536   4.355   5.927  12.007  1.5009 -0.5786  0.1551
  707TIP3    H223537   4.403   5.816  12.098 -1.4886 -1.6353  0.5542
  708TIP3   OH223538   1.588   1.470  13.605 -0.0970  0.1003  0.5570
  708TIP3    H123539   1.533   1.529  13.658  0.7352  2.5864 -1.1656
  708TIP3    H223540   1.673   1.514  13.601  0.5073 -1.1268 -1.0017
  709TIP3   OH223541   2.246   4.346  11.166 -0.1506  0.4749 -0.1659
  709TIP3    H123542   2.297   4.392  11.232  1.2246 -1.9055  0.5145
  709TIP3    H223543   2.309   4.325  11.097 -0.2476 -1.9136  0.3824
  710TIP3   OH223544   1.949   4.891  16.696 -0.4779  0.0777 -0.0706
  710TIP3    H123545   1.923   4.977  16.662  1.2740  0.2651 -1.0776
  710TIP3    H223546   1.965   4.838  16.618 -1.0963 -1.0397  0.5358
  711TIP3   OH223547   3.936   0.648   6.599  0.1477 -0.0039 -0.9732
  711TIP3    H123548   3.857   0.613   6.558 -0.6711  0.8234 -0.1780
  711TIP3    H223549   3.954   0.589   6.672 -1.1542  1.0577  0.2866
  712TIP3   OH223550   4.149   3.427  15.846 -0.5461 -0.0460  0.6491
  712TIP3    H123551   4.117   3.337  15.834 -2.0647  0.2989  1.8247
  712TIP3    H223552   4.070   3.479  15.858  0.3734  1.1659  1.7353
  713TIP3   OH223553   2.111   2.452  15.500 -0.1126 -0.0003 -0.4585
  713TIP3    H123554   2.041   2.439  15.564  1.6360 -0.8968  1.3595
  713TIP3    H223555   2.109   2.374  15.445  0.6265 -0.9280  0.7907
  714TIP3   OH223556   1.318   0.970   5.293  0.1684  0.1500  0.0825
  714TIP3    H123557   1.305   0.879   5.267  0.0606 -0.1409  1.1183
  714TIP3    H223558   1.296   0.972   5.386  0.5616  1.1566  0.1663
  715TIP3   OH223559   4.730   4.046  17.167 -0.2893  0.1331 -0.9725
  715TIP3    H123560   4.734   4.140  17.147  0.8959  0.4123  0.4039
  715TIP3    H223561   4.806   4.008  17.123 -0.3235 -0.0426 -0.8823
  716TIP3   OH223562   3.049   5.511   2.230 -0.2335 -0.2697 -0.2908
  716TIP3    H123563   3.026   5.560   2.310  2.6164 -1.9225  1.7291
  716TIP3    H223564   3.042   5.576   2.160 -0.1244  2.0498  1.6993
  717TIP3   OH223565   3.493   0.300   2.634  0.7503 -0.0563 -0.6176
  717TIP3    H123566   3.470   0.294   2.541 -0.6930 -1.1916 -0.2258
  717TIP3    H223567   3.461   0.219   2.672 -1.6663  1.6877  1.4608
  718TIP3   OH223568   6.573   1.780   3.043  0.2614 -0.2683 -0.4537
  718TIP3    H123569   6.624   1.804   3.120  1.3737 -2.2813 -0.4737
  718TIP3    H223570   6.514   1.854   3.029 -0.1939  0.0604  2.4819
  719TIP3   OH223571   2.043   4.638  15.731  0.1339  0.0674 -0.2617
  719TIP3    H123572   2.021   4.578  15.803 -0.3209 -1.4317 -1.5919
  719TIP3    H223573   2.020   4.590  15.652  0.1947  1.8493 -1.4234
  720TIP3   OH223574   2.487   5.194   2.874 -0.1225 -0.4082 -0.6909
  720TIP3    H123575   2.400   5.223   2.845 -0.1494 -1.0596 -1.2791
  720TIP3    H223576   2.473   5.160   2.962 -0.4497 -0.4218 -0.7472
  721TIP3   OH223577   1.838   2.699   6.309  0.0915  0.0033  0.2989
  721TIP3    H123578   1.905   2.646   6.353 -0.5038 -0.4128  0.7238
  721TIP3    H223579   1.815   2.767   6.372  0.0254  0.0673  0.2061
  722TIP3   OH223580   1.802   5.551  15.639  0.0450  0.1838  0.3850
  722TIP3    H123581   1.708   5.566  15.653 -0.1941 -0.7644 -0.0994
  722TIP3    H223582   1.809   5.458  15.621  1.0628  0.2791  0.2154
  723TIP3   OH223583   2.425   0.670  14.287 -0.4377  0.2148  0.1554
  723TIP3    H123584   2.414   0.761  14.313  2.1041  1.1942 -1.7822
  723TIP3    H223585   2.429   0.622  14.369 -2.6801  1.6457  1.2097
  724TIP3   OH223586   5.975   0.400   3.601 -0.2380 -0.2093 -0.6159
  724TIP3    H123587   6.028   0.330   3.639 -0.7971 -0.8945 -1.0746
  724TIP3    H223588   5.996   0.397   3.507  0.3441  0.7805 -0.5354
  725TIP3   OH223589   2.177   3.147  12.259 -0.1976 -0.1177 -0.1819
  725TIP3    H123590   2.172   3.182  12.170  1.3070  0.2295 -0.1662
  725TIP3    H223591   2.209   3.058  12.247 -0.6843 -0.3093 -0.0325
  726TIP3   OH223592   2.924   6.621  17.108 -0.0400  0.2129 -0.7139
  726TIP3    H123593   2.913   6.534  17.147 -0.9995  1.4650  2.0833
  726TIP3    H223594   2.846   6.632  17.054  0.3638 -0.8401 -1.5591
  727TIP3   OH223595   2.064   4.758  14.244 -0.4399  0.0077  0.0516
  727TIP3    H123596   2.135   4.765  14.180 -1.8176  0.4836 -1.5195
  727TIP3    H223597   1.992   4.809  14.205 -1.9582 -1.2257  1.1061
  728TIP3   OH223598   1.447   0.841   3.948  0.0985  0.2045  0.4231
  728TIP3    H123599   1.402   0.886   4.020 -0.3172 -2.1600  1.7516
  728TIP3    H223600   1.540   0.856   3.965 -0.0363  0.7389  0.7132
  729TIP3   OH223601   2.410   3.434   2.456  0.8925  0.4420  0.3270
  729TIP3    H123602   2.449   3.522   2.451 -1.0346  1.2928 -0.6509
  729TIP3    H223603   2.333   3.445   2.511  0.2007 -0.4683 -0.4373
  730TIP3   OH223604   4.969   4.422  16.849 -0.9510 -0.1897  0.4054
  730TIP3    H123605   4.950   4.515  16.836  2.4374  0.4511 -1.0689
  730TIP3    H223606   5.054   4.421  16.891 -0.6519 -2.6380 -0.1054
  731TIP3   OH223607   3.138   5.279   3.994  0.1161  0.4124 -0.1868
  731TIP3    H123608   3.140   5.209   4.058  0.2779 -0.5671 -1.2289
  731TIP3    H223609   3.222   5.324   4.004  0.5534 -0.3550 -0.3847
  732TIP3   OH223610   2.390   3.155   0.328  0.3050 -0.0333  0.7673
  732TIP3    H123611   2.412   3.185   0.239  0.4217 -2.0265  0.0602
  732TIP3    H223612   2.441   3.211   0.386  3.1528 -1.0479 -0.6023
  733TIP3   OH223613   4.810   5.254  14.024  0.4554  0.0667 -0.0765
  733TIP3    H123614   4.853   5.213  14.099  1.4828  2.2865  0.6402
  733TIP3    H223615   4.740   5.307  14.062  0.4823  0.6039 -0.7637
  734TIP3   OH223616   3.706   1.811  13.150  0.1000  0.5488  0.3183
  734TIP3    H123617   3.771   1.832  13.084  0.3078  2.1042  0.9828
  734TIP3    H223618   3.622   1.834  13.110  0.1070  0.1990  0.1018
  735TIP3   OH223619   6.100   2.171   2.019  0.1695 -0.0465 -0.3474
  735TIP3    H123620   6.067   2.195   1.932 -0.8388  0.8907  0.2599
  735TIP3    H223621   6.089   2.251   2.071 -3.2453 -1.6347  1.7442
  736TIP3   OH223622   5.576   2.392  16.406 -0.0680  0.2432 -0.1374
  736TIP3    H123623   5.637   2.319  16.402  0.1567  0.3630  0.8732
  736TIP3    H223624   5.599   2.438  16.486 -1.5800  0.1924  0.3623
  737TIP3   OH223625   1.817   2.191  11.599 -0.1398  0.2003 -0.0155
  737TIP3    H123626   1.848   2.220  11.684  1.7741 -2.2019  0.2188
  737TIP3    H223627   1.722   2.185  11.608 -0.0908  1.2184  1.4985
  738TIP3   OH223628   1.835   4.270  15.350  0.3976 -0.2120  0.4074
  738TIP3    H123629   1.872   4.182  15.344 -0.4216 -0.5034 -0.7004
  738TIP3    H223630   1.764   4.271  15.286 -1.5099  0.3326  2.4066
  739TIP3   OH223631   6.564   3.788  14.179  0.0801  0.3783  0.0750
  739TIP3    H123632   6.588   3.701  14.147 -0.8538  0.0501  0.2508
  739TIP3    H223633   6.647   3.827  14.207  0.7774  0.2570 -1.6951
  740TIP3   OH223634   6.146   4.124  14.047 -0.6005  0.9380  0.0248
  740TIP3    H123635   6.119   4.183  13.977 -0.3436  0.3398 -0.5927
  740TIP3    H223636   6.153   4.038  14.005  3.0866  1.1588 -0.1052
  741TIP3   OH223637   4.273   2.838   4.016 -0.5038  0.2690 -1.2316
  741TIP3    H123638   4.347   2.891   3.987 -0.9910  1.1636 -0.8996
  741TIP3    H223639   4.312   2.760   4.054  0.4178  1.8182  1.1874
  742TIP3   OH223640   5.375   5.334   1.022 -0.1971 -0.6344  0.1343
  742TIP3    H123641   5.298   5.387   1.001  0.1042  0.4612  1.6254
  742TIP3    H223642   5.427   5.335   0.941  0.1276  2.0035  0.2803
  743TIP3   OH223643   0.338   3.143  16.544  0.2778  0.1505  0.0127
  743TIP3    H123644   0.383   3.113  16.622 -0.2270 -0.8315 -0.0624
  743TIP3    H223645   0.245   3.130  16.563  0.1951 -1.1482 -1.1532
  744TIP3   OH223646   3.473   3.476  14.919 -0.1557 -0.3941  0.0771
  744TIP3    H123647   3.512   3.562  14.903  0.4050 -0.8770 -1.2720
  744TIP3    H223648   3.484   3.462  15.013  0.0616  0.8513  0.2564
  745TIP3   OH223649   2.992   3.871   3.224 -0.4272 -0.2727 -0.3028
  745TIP3    H123650   2.991   3.778   3.203 -2.2533 -0.5991  0.9845
  745TIP3    H223651   2.900   3.896   3.228 -0.0397  1.1255  1.2446
  746TIP3   OH223652   5.096   3.496  14.703 -0.7140 -0.0209  0.5578
  746TIP3    H123653   5.014   3.459  14.736 -0.2378 -1.2189  0.4659
  746TIP3    H223654   5.146   3.419  14.673  0.3166  0.7161  0.3456
  747TIP3   OH223655   4.290   5.878  16.069  0.0176  0.2626  0.0969
  747TIP3    H123656   4.197   5.901  16.073 -0.7367 -2.5957  1.3123
  747TIP3    H223657   4.323   5.899  16.156  0.6201  1.4684 -0.3954
  748TIP3   OH223658   4.956   3.282  13.265  0.2945  0.1266  0.0971
  748TIP3    H123659   4.879   3.326  13.228  1.4015  1.1971 -1.0410
  748TIP3    H223660   4.998   3.348  13.319  0.1148 -0.6366  1.1937
  749TIP3   OH223661   3.383   5.415  15.057 -0.5783  0.2621  0.0129
  749TIP3    H123662   3.441   5.343  15.033  0.1344  0.7019  0.3770
  749TIP3    H223663   3.415   5.443  15.143  0.0435  1.9216 -0.7413
  750TIP3   OH223664   2.067   3.169  13.882 -0.1669 -0.4505 -0.0916
  750TIP3    H123665   2.019   3.234  13.832  0.8772  0.3785 -0.0665
  750TIP3    H223666   2.113   3.220  13.949 -0.4759 -1.3860  0.8541
  751TIP3   OH223667   6.670   5.308  15.425  0.1045 -0.5897  0.1234
  751TIP3    H123668   6.603   5.371  15.398  1.8390  1.0180 -0.6257
  751TIP3    H223669   6.740   5.361  15.462  0.7306 -2.2717  1.5214
  752TIP3   OH223670   6.608   0.813   2.576 -0.2746  0.1396 -0.0287
  752TIP3    H123671   6.659   0.795   2.655  1.3364 -0.1768 -1.0942
  752TIP3    H223672   6.624   0.906   2.558 -0.5187  0.1720 -0.0897
  753TIP3   OH223673   2.598   4.504   1.401 -0.7009  0.4030  0.4186
  753TIP3    H123674   2.608   4.568   1.471 -1.0346  0.1270  0.7223
  753TIP3    H223675   2.580   4.421   1.446 -0.3999  0.1199  0.0268
  754TIP3   OH223676   0.646   2.317   3.518 -0.0535 -0.4829 -0.1837
  754TIP3    H123677   0.664   2.260   3.593 -1.3647  1.4688  1.7004
  754TIP3    H223678   0.552   2.312   3.506  0.0112  0.0901 -1.0134
  755TIP3   OH223679   2.825   0.326   4.904  0.3895  0.1763  0.2374
  755TIP3    H123680   2.788   0.267   4.838  0.0950 -1.6596  1.9457
  755TIP3    H223681   2.753   0.386   4.924 -1.5519 -2.6504  2.6940
  756TIP3   OH223682   4.347   1.278   1.695 -0.8148  0.4765 -0.9259
  756TIP3    H123683   4.386   1.192   1.678 -1.0153  0.2891 -0.4504
  756TIP3    H223684   4.420   1.339   1.686  0.2333 -0.0911  2.3480
  757TIP3   OH223685   2.845   0.025   3.811 -0.1551  0.0763 -0.7938
  757TIP3    H123686   2.802  -0.042   3.864  0.4460  1.3958  1.5095
  757TIP3    H223687   2.776   0.089   3.792 -0.2468 -0.1237 -1.1390
  758TIP3   OH223688   1.787   0.902  12.903  0.1986 -0.0275 -0.2908
  758TIP3    H123689   1.728   0.973  12.879  0.3028  0.3143  0.4229
  758TIP3    H223690   1.794   0.908  12.999  0.4744 -0.7870 -0.2535
  759TIP3   OH223691   0.191   4.896   2.191 -0.7163 -0.2072  0.3103
  759TIP3    H123692   0.112   4.851   2.221  0.0027 -1.1103  0.9040
  759TIP3    H223693   0.255   4.880   2.261  0.2075 -0.0885 -0.4947
  760TIP3   OH223694   3.059   1.732   4.983 -0.1212 -0.0331 -0.4314
  760TIP3    H123695   3.001   1.750   4.909  1.0131 -0.2545 -1.4056
  760TIP3    H223696   3.099   1.648   4.962 -1.0261 -0.9541  1.2698
  761TIP3   OH223697   2.576   6.609  11.005  0.3230 -0.0342  0.3248
  761TIP3    H123698   2.582   6.620  10.910  0.7007  1.3159  0.4874
  761TIP3    H223699   2.561   6.697  11.039 -1.7560 -0.7165  1.4037
  762TIP3   OH223700   1.674   2.213   0.350  0.0284 -0.4677 -0.3999
  762TIP3    H123701   1.763   2.187   0.375  1.4876  0.6174 -3.8584
  762TIP3    H223702   1.677   2.309   0.348 -0.7557 -0.4475 -1.9394
  763TIP3   OH223703   6.342   6.601  14.907  0.3767  0.0044 -0.5388
  763TIP3    H123704   6.285   6.535  14.947  0.8043  0.3389  0.6970
  763TIP3    H223705   6.367   6.658  14.981  1.4930  0.4455 -1.2354
  764TIP3   OH223706   3.793   6.304  12.585  0.2667  0.1542 -0.2725
  764TIP3    H123707   3.757   6.227  12.629  0.2214 -0.5096 -1.4139
  764TIP3    H223708   3.888   6.294  12.593  0.2532  0.2304 -0.0124
  765TIP3   OH223709   2.817   2.426   1.524 -0.4464 -0.2767 -0.4420
  765TIP3    H123710   2.823   2.486   1.450 -1.0642 -0.9335 -1.0417
  765TIP3    H223711   2.770   2.476   1.591  0.0057  0.2789 -0.5346
  766TIP3   OH223712   3.519   1.954   1.981  0.3631 -0.1672  0.0668
  766TIP3    H123713   3.555   2.041   1.961  1.4855 -1.1324 -2.6341
  766TIP3    H223714   3.584   1.893   1.945 -1.1353 -2.1081  0.5032
  767TIP3   OH223715   0.672   1.699   2.267 -0.0612 -0.2283  0.2880
  767TIP3    H123716   0.640   1.764   2.203 -1.9379 -0.0849  1.3014
  767TIP3    H223717   0.759   1.677   2.236 -0.4227  0.7654 -1.6282
  768TIP3   OH223718   3.061   4.430  11.957  0.2539 -0.2207 -0.3453
  768TIP3    H123719   3.001   4.359  11.935  1.4757 -0.9274 -1.5968
  768TIP3    H223720   3.019   4.509  11.925 -1.9800 -0.0309  2.6763
  769TIP3   OH223721   4.253   3.765   5.400 -0.4186 -0.0199 -0.3832
  769TIP3    H123722   4.159   3.750   5.405 -0.4575 -0.2758 -1.6588
  769TIP3    H223723   4.261   3.853   5.364 -0.1584  0.2894  0.4013
  770TIP3   OH223724   1.008   6.271   4.233 -0.2359 -0.6561  0.0410
  770TIP3    H123725   1.085   6.272   4.289  0.7412 -0.1225 -1.2525
  770TIP3    H223726   0.934   6.271   4.293  0.7652  0.3294  1.3221
  771TIP3   OH223727   1.998   2.925   5.396  0.0034  0.1134  0.2076
  771TIP3    H123728   1.925   2.879   5.354 -1.2789  0.7810  1.6064
  771TIP3    H223729   2.052   2.856   5.433 -0.4681 -0.3662  0.0143
  772TIP3   OH223730   0.405   0.170   5.541  0.4069  0.0804  0.3733
  772TIP3    H123731   0.477   0.215   5.496  0.1736 -1.4627 -1.7211
  772TIP3    H223732   0.331   0.179   5.481 -0.0208 -1.7996  0.5650
  773TIP3   OH223733   1.442   0.495   4.441 -0.3168  0.6776  0.0779
  773TIP3    H123734   1.514   0.535   4.392  1.4331  0.7194  2.4818
  773TIP3    H223735   1.485   0.447   4.511 -2.6509  0.2641  1.3309
  774TIP3   OH223736   0.928   2.779  14.984 -0.0078  0.3769  0.5459
  774TIP3    H123737   0.905   2.810  14.896 -2.2271 -0.7834  0.6485
  774TIP3    H223738   1.014   2.819  15.001  0.9502 -0.0655 -2.4881
  775TIP3   OH223739   2.593   3.653   2.498 -0.1519  0.3628  0.6275
  775TIP3    H123740   2.675   3.618   2.462 -0.4606  0.2997 -0.0232
  775TIP3    H223741   2.621   3.722   2.558  0.3872  0.2048  0.5621
  776TIP3   OH223742   5.216   5.907   0.000 -0.2521  0.2756  0.0646
  776TIP3    H123743   5.144   5.857   0.038  1.3813 -1.5579  0.9424
  776TIP3    H223744   5.252   5.956   0.073  0.2640  0.0513 -0.0321
  777TIP3   OH223745   0.927   4.368   3.266  0.0740  0.3532 -0.3848
  777TIP3    H123746   0.927   4.393   3.359 -0.5147 -0.3396 -0.1928
  777TIP3    H223747   0.895   4.278   3.266 -3.1163  1.3565 -1.5413
  778TIP3   OH223748   0.878   3.447  12.369  0.6928  0.5510  0.7901
  778TIP3    H123749   0.863   3.490  12.453  3.4013 -1.4547  2.5049
  778TIP3    H223750   0.974   3.444  12.361  0.6162 -2.4723 -0.5528
  779TIP3   OH223751   1.433   5.115   4.889 -0.1600  0.5568 -0.4958
  779TIP3    H123752   1.469   5.142   4.804  0.2183  0.5364 -0.3445
  779TIP3    H223753   1.399   5.027   4.874 -2.0498  1.3657 -1.1811
  780TIP3   OH223754   6.429   3.673   0.995  0.2465 -0.0817  0.2343
  780TIP3    H123755   6.500   3.621   1.032  1.0764 -0.2904 -1.5691
  780TIP3    H223756   6.456   3.764   1.008 -0.0494 -0.1168  1.1848
  781TIP3   OH223757   3.788   6.701   2.134 -0.5102 -0.0374 -0.4945
  781TIP3    H123758   3.829   6.778   2.174 -1.5062  1.2036 -1.7827
  781TIP3    H223759   3.859   6.660   2.084 -0.3360  0.9266 -1.0567
  782TIP3   OH223760   0.813   3.614  14.030 -0.5256  0.1135  0.2214
  782TIP3    H123761   0.904   3.589  14.014 -0.5539  1.3976 -2.4904
  782TIP3    H223762   0.802   3.605  14.125  2.4984  0.2241  0.6801
  783TIP3   OH223763   1.441   3.901  14.966 -0.0249  0.2488  0.3538
  783TIP3    H123764   1.466   3.984  14.926 -0.3645  1.5162  2.6227
  783TIP3    H223765   1.511   3.841  14.941  0.6254  1.4051 -0.7112
  784TIP3   OH223766   3.749   5.972  11.015 -0.7262 -0.3310  0.0865
  784TIP3    H123767   3.820   5.924  11.058 -0.3776 -0.2007 -0.3361
  784TIP3    H223768   3.721   5.915  10.944 -0.3013  0.0863 -0.4245
  785TIP3   OH223769   3.966   4.413   2.221 -0.4482  0.5867  0.1115
  785TIP3    H123770   3.875   4.435   2.201 -0.4981 -0.9091 -1.6523
  785TIP3    H223771   4.014   4.495   2.209 -1.3107  0.9671 -0.9009
  786TIP3   OH223772   5.691   4.756  10.326  0.0362 -0.3890 -0.3339
  786TIP3    H123773   5.706   4.845  10.296  0.5606 -0.4513 -0.2593
  786TIP3    H223774   5.778   4.721  10.344 -0.0706 -1.2469 -1.3298
  787TIP3   OH223775   2.474   2.406   4.507 -0.2900 -0.5204  0.1289
  787TIP3    H123776   2.514   2.353   4.576 -1.0510 -0.7012  0.4454
  787TIP3    H223777   2.453   2.343   4.438  0.4456 -0.3438 -0.2669
  788TIP3   OH223778   0.118   3.474   3.046  0.8336 -0.0256 -0.1458
  788TIP3    H123779   0.123   3.561   3.085 -4.1150  1.6409 -2.3303
  788TIP3    H223780   0.131   3.488   2.953  0.9365 -1.8323 -0.4499
  789TIP3   OH223781   0.354   5.870   1.363  0.1549  0.1422  0.2221
  789TIP3    H123782   0.348   5.963   1.341 -1.4629 -0.1169 -0.5325
  789TIP3    H223783   0.367   5.826   1.279 -1.7751 -0.5053  0.2181
  790TIP3   OH223784   6.472   3.384  12.187 -0.2446  0.4595  0.4957
  790TIP3    H123785   6.522   3.361  12.109 -1.7253  0.2653 -0.4423
  790TIP3    H223786   6.531   3.365  12.260  1.0152  0.2212 -0.5480
  791TIP3   OH223787   4.775   6.073   1.432  0.1748  0.5627  0.2807
  791TIP3    H123788   4.755   6.029   1.349  0.5208  0.2066  0.3832
  791TIP3    H223789   4.696   6.060   1.485 -0.0428  0.7813  0.0163
  792TIP3   OH223790   3.198   4.193  15.080  0.0218  0.8759 -0.1091
  792TIP3    H123791   3.252   4.257  15.035  1.1086  0.7801  1.0130
  792TIP3    H223792   3.234   4.188  15.168 -0.5090 -0.7279  0.0592
  793TIP3   OH223793   4.547   4.734   5.202  0.1464  0.1654  0.5299
  793TIP3    H123794   4.480   4.665   5.200 -0.7965  1.0199 -1.9420
  793TIP3    H223795   4.628   4.688   5.226 -0.5106 -1.7544 -0.6581
  794TIP3   OH223796   0.328   2.855  12.625  0.0364 -0.2983 -0.1145
  794TIP3    H123797   0.239   2.825  12.645 -0.1308 -0.6019 -1.2726
  794TIP3    H223798   0.320   2.950  12.618 -0.3955 -0.3972 -1.1173
  795TIP3   OH223799   2.246   6.511  10.914 -0.7337 -0.2838 -0.0093
  795TIP3    H123800   2.206   6.556  10.839 -1.6074  0.0178  0.6182
  795TIP3    H223801   2.305   6.576  10.951 -1.1409 -0.0376  0.2182
  796TIP3   OH223802   0.788   4.392  15.673  0.1383  0.0379  0.1478
  796TIP3    H123803   0.765   4.476  15.633 -1.1090 -0.8857 -1.1606
  796TIP3    H223804   0.814   4.415  15.763 -0.4988  1.7791 -0.0740
  797TIP3   OH223805   6.589   4.044  14.569 -0.1548 -0.2323  0.4302
  797TIP3    H123806   6.574   4.060  14.662  1.2379  2.3263  0.3109
  797TIP3    H223807   6.647   3.968  14.567 -1.0408 -0.9790  1.5595
  798TIP3   OH223808   6.535   3.327  15.238 -0.3770  0.2809  0.1685
  798TIP3    H123809   6.456   3.350  15.189  0.1116  1.2226 -0.1903
  798TIP3    H223810   6.571   3.411  15.268  2.0697  0.1884 -2.1178
  799TIP3   OH223811   5.166   1.990   0.615 -0.6380 -0.0568 -0.3292
  799TIP3    H123812   5.248   2.037   0.601 -0.2119 -0.9355 -0.8814
  799TIP3    H223813   5.131   1.974   0.527 -1.6366  0.6899 -0.0880
  800TIP3   OH223814   5.948   1.536   2.758 -0.5138  0.0731  0.3592
  800TIP3    H123815   6.015   1.537   2.826 -1.0433 -0.3933  0.9016
  800TIP3    H223816   5.867   1.557   2.804 -0.8610 -0.1250 -0.1555
  801TIP3   OH223817   3.788   6.691  12.983 -0.0713 -0.6174 -0.4172
  801TIP3    H123818   3.809   6.784  12.995 -1.5047  0.0168 -2.2854
  801TIP3    H223819   3.743   6.666  13.064  0.0890  0.3858 -0.0066
  802TIP3   OH223820   0.625   4.471   3.586  0.3424 -0.4218 -0.0704
  802TIP3    H123821   0.657   4.463   3.676  0.4582 -1.4605 -0.1970
  802TIP3    H223822   0.546   4.417   3.583 -0.5431  0.8103 -0.2083
  803TIP3   OH223823   1.592   2.149   0.025  0.2105 -0.3284  0.4804
  803TIP3    H123824   1.514   2.124   0.075 -0.3557  2.6732  1.2916
  803TIP3    H223825   1.641   2.206   0.085  2.0399 -0.5630 -0.7170
  804TIP3   OH223826   3.452   4.472   4.037 -0.0468  0.3832  0.4300
  804TIP3    H123827   3.519   4.529   3.998 -0.7227  0.2758 -0.9596
  804TIP3    H223828   3.415   4.424   3.962  0.8707 -2.3323  1.5864
  805TIP3   OH223829   1.392   3.115   1.270 -0.5589  0.6183 -0.3045
  805TIP3    H123830   1.409   3.039   1.214 -1.1636  0.5622 -0.4173
  805TIP3    H223831   1.308   3.149   1.239 -1.6930 -0.3358  1.5592
  806TIP3   OH223832   2.175   5.861  15.825 -0.2370 -0.6609 -0.6615
  806TIP3    H123833   2.114   5.787  15.815 -0.0424 -0.9308  0.1283
  806TIP3    H223834   2.250   5.837  15.771 -0.6697 -0.4873 -1.3594
  807TIP3   OH223835   4.593   4.247   3.851 -0.2309  0.3469 -0.2395
  807TIP3    H123836   4.626   4.316   3.792  0.2384  0.5978  0.3085
  807TIP3    H223837   4.672   4.211   3.892 -0.4752 -0.4837 -0.4706
  808TIP3   OH223838   4.174   1.086   2.898 -0.4214  0.0091  0.3033
  808TIP3    H123839   4.123   1.050   2.970 -1.1640  1.2722  0.4378
  808TIP3    H223840   4.265   1.064   2.919 -0.7195 -0.5027  1.1029
  809TIP3   OH223841   3.932   1.107   3.648 -0.2247  0.1199 -0.1681
  809TIP3    H123842   3.870   1.179   3.631 -0.8787 -0.4542 -0.2506
  809TIP3    H223843   3.927   1.092   3.742  0.2023  0.4378 -0.0925
  810TIP3   OH223844   6.505   4.639  13.161  0.6051 -0.0254  0.6296
  810TIP3    H123845   6.503   4.556  13.114  1.3798  0.6256 -0.5790
  810TIP3    H223846   6.469   4.618  13.248 -1.0296 -1.2020 -0.2792
  811TIP3   OH223847   5.055   1.325  11.308  0.1227 -0.1977  0.3494
  811TIP3    H123848   5.097   1.334  11.393  0.7153 -0.7054  0.1248
  811TIP3    H223849   4.968   1.291  11.328 -1.0883  2.9220  0.9840
  812TIP3   OH223850   5.650   6.607  16.506  0.0630  0.1367  0.5328
  812TIP3    H123851   5.654   6.544  16.434 -0.9063  0.3580  0.2749
  812TIP3    H223852   5.742   6.624  16.528  0.5516  2.2610 -2.5732
  813TIP3   OH223853   1.331   1.780   3.231  0.3317  0.1869 -0.5595
  813TIP3    H123854   1.325   1.709   3.294 -1.9042  0.2937 -0.5476
  813TIP3    H223855   1.423   1.805   3.230  0.4259  0.4399  2.9525
  814TIP3   OH223856   6.237   6.676   5.526  0.0228  0.5133 -0.3023
  814TIP3    H123857   6.144   6.684   5.549  0.4374 -0.7369  2.2025
  814TIP3    H223858   6.281   6.737   5.586  0.9757 -0.6407  0.1975
  815TIP3   OH223859   1.175   3.263  10.397 -0.0131  0.1444  0.2251
  815TIP3    H123860   1.152   3.342  10.348 -0.7748 -0.0421  0.2734
  815TIP3    H223861   1.104   3.252  10.460  0.7763  0.1815  1.1484
  816TIP3   OH223862   1.462   4.305   4.722  0.0724 -0.2474 -0.1125
  816TIP3    H123863   1.459   4.239   4.792  1.8336  0.7974  1.0226
  816TIP3    H223864   1.373   4.304   4.685 -0.0140 -3.1074 -0.0559
  817TIP3   OH223865   2.976   4.790   1.723 -0.6683 -0.2008  0.2317
  817TIP3    H123866   3.028   4.820   1.798 -0.5606  0.3361 -0.0517
  817TIP3    H223867   3.026   4.819   1.646 -0.5708 -1.0881 -0.0621
  818TIP3   OH223868   3.711   6.547  15.848  0.2782 -0.2731  0.1834
  818TIP3    H123869   3.646   6.613  15.872 -0.1485 -1.1312  1.4592
  818TIP3    H223870   3.792   6.596  15.837  0.1928  0.3668  2.0870
  819TIP3   OH223871   0.715   1.128  16.223 -0.5345 -0.3521  1.1203
  819TIP3    H123872   0.670   1.086  16.150 -0.2601 -0.6459  1.1152
  819TIP3    H223873   0.727   1.219  16.195 -2.0932  0.0144  1.5732
  820TIP3   OH223874   4.818   6.256   0.660 -0.0588 -0.0649 -0.9714
  820TIP3    H123875   4.845   6.345   0.686  0.8234 -0.1329 -1.5981
  820TIP3    H223876   4.885   6.199   0.699 -0.9710 -0.5297 -0.0391
  821TIP3   OH223877   2.128   0.970  12.940  0.0123  0.2865 -0.2357
  821TIP3    H123878   2.063   1.000  13.003  0.1819 -1.8187  1.0374
  821TIP3    H223879   2.117   0.875  12.937  1.0164  0.1754 -2.2975
  822TIP3   OH223880   4.321   6.431  17.129  0.0983 -0.1878 -0.2757
  822TIP3    H123881   4.415   6.450  17.119  0.4799 -2.1839 -1.0741
  822TIP3    H223882   4.282   6.462  17.048  0.2867 -0.5416 -0.5027
  823TIP3   OH223883   6.460   6.565   0.574  0.2235  0.2484  0.5013
  823TIP3    H123884   6.487   6.484   0.617  0.9668  0.4673  0.4607
  823TIP3    H223885   6.539   6.619   0.572  0.1455  0.3442 -0.9390
  824TIP3   OH223886   6.268   2.927  12.493  0.0639 -0.2734 -0.0220
  824TIP3    H123887   6.207   2.906  12.564  0.5667 -2.2776 -0.1083
  824TIP3    H223888   6.226   2.893  12.414  0.8741 -0.9255 -0.1947
  825TIP3   OH223889   4.739   3.422  16.889 -0.7487  1.0352  0.4795
  825TIP3    H123890   4.772   3.447  16.976  0.7503  0.3072  0.1561
  825TIP3    H223891   4.818   3.399  16.840 -1.7900 -2.3980  0.1602
  826TIP3   OH223892   0.695   0.446  12.166  0.3199 -0.2230  0.1683
  826TIP3    H123893   0.651   0.367  12.137 -0.4491  1.0087 -2.3548
  826TIP3    H223894   0.717   0.430  12.258 -0.6214 -2.9506 -0.0065
  827TIP3   OH223895   4.897   0.468  13.947  0.2205 -0.6189 -0.0227
  827TIP3    H123896   4.936   0.551  13.975  1.3710 -1.1726  0.1044
  827TIP3    H223897   4.944   0.445  13.867 -0.9064 -0.5806 -0.7081
  828TIP3   OH223898   1.452   2.941   5.278  0.3015  0.0842  0.2977
  828TIP3    H123899   1.490   2.965   5.193  0.9361 -2.1183 -0.1036
  828TIP3    H223900   1.359   2.929   5.259  0.4095 -0.2214 -0.0623
  829TIP3   OH223901   2.896   4.246  13.156 -0.0644  0.5235 -0.4086
  829TIP3    H123902   2.934   4.161  13.133 -0.2615  1.1628 -3.6145
  829TIP3    H223903   2.971   4.300  13.181  0.2605 -0.1450  0.0698
  830TIP3   OH223904   6.436   0.563  17.210  0.4214  0.0590 -0.1620
  830TIP3    H123905   6.480   0.632  17.160  0.1638 -0.5280 -1.2203
  830TIP3    H223906   6.347   0.596  17.223  0.6794  0.5151  0.5394
  831TIP3   OH223907   1.584   1.339   1.729 -0.3452  0.4257 -0.0944
  831TIP3    H123908   1.505   1.392   1.737  0.7263  1.8846  1.5181
  831TIP3    H223909   1.654   1.401   1.710  0.4511 -0.8272 -1.4731
  832TIP3   OH223910   4.951   2.403   5.197 -0.0906  0.0014  0.1908
  832TIP3    H123911   5.011   2.332   5.176 -0.1233 -0.1927  0.7413
  832TIP3    H223912   4.925   2.387   5.288 -1.1422 -0.0422 -0.1057
  833TIP3   OH223913   1.243   6.488  12.872 -0.0643  0.7808  0.1611
  833TIP3    H123914   1.207   6.429  12.938  3.2960 -0.5986  1.0146
  833TIP3    H223915   1.250   6.573  12.915 -1.0849  0.7659  0.3654
  834TIP3   OH223916   4.293   4.341   0.284  0.9943  0.2294  1.1347
  834TIP3    H123917   4.365   4.396   0.315 -1.0827  2.9385  1.5782
  834TIP3    H223918   4.247   4.396   0.220 -1.3982 -0.8712  1.7961
  835TIP3   OH223919   0.090   4.682   1.212 -0.2782 -0.3633  0.0216
  835TIP3    H123920   0.007   4.661   1.255 -1.2179  1.3066 -0.8768
  835TIP3    H223921   0.141   4.727   1.280  0.4561 -2.4905  0.9593
  836TIP3   OH223922   4.692   4.917   3.453 -0.2092 -0.1894  0.4281
  836TIP3    H123923   4.617   4.864   3.483 -2.0034  1.4413 -0.9139
  836TIP3    H223924   4.710   4.885   3.365 -0.0589  0.1892  0.3238
  837TIP3   OH223925   5.354   3.760  12.854 -0.0236  0.0903 -0.0059
  837TIP3    H123926   5.389   3.806  12.930  0.2970  1.2927 -0.8540
  837TIP3    H223927   5.288   3.701  12.890  0.9285 -0.2147  1.3240
  838TIP3   OH223928   6.305   2.448  12.882  0.5625 -0.5799 -0.0951
  838TIP3    H123929   6.356   2.393  12.942  0.8291 -1.0265 -0.7119
  838TIP3    H223930   6.354   2.443  12.799 -0.0998 -0.4365 -0.4963
  839TIP3   OH223931   4.684   6.455   0.283 -0.2357  0.7757 -0.2967
  839TIP3    H123932   4.722   6.537   0.252 -1.6665  2.7034  2.5885
  839TIP3    H223933   4.747   6.423   0.348  0.0519 -0.1663 -1.0219
  840TIP3   OH223934   5.285   3.793  15.175 -0.3002  0.6574 -0.0695
  840TIP3    H123935   5.219   3.862  15.182  0.2888  1.0729  2.0132
  840TIP3    H223936   5.251   3.722  15.230  0.4842  0.4524  0.1525
  841TIP3   OH223937   4.255   0.737  11.439 -1.0684 -1.0377 -0.3861
  841TIP3    H123938   4.174   0.751  11.390 -1.1080 -0.2142 -0.1079
  841TIP3    H223939   4.317   0.704  11.374 -1.9156 -2.7254 -0.3785
  842TIP3   OH223940   4.271   3.406  14.970  0.0719 -0.2561 -0.2454
  842TIP3    H123941   4.241   3.319  14.946 -2.1229  0.6679 -1.0777
  842TIP3    H223942   4.352   3.418  14.920 -0.8305 -0.9618 -1.9734
  843TIP3   OH223943   0.795   5.179   2.980  0.4444 -0.4809  0.7702
  843TIP3    H123944   0.835   5.147   2.900 -1.0401 -0.3886 -0.0412
  843TIP3    H223945   0.824   5.270   2.986 -2.0364  0.6023 -1.5302
  844TIP3   OH223946   0.799   4.074  14.247 -0.2831  0.2225 -0.1831
  844TIP3    H123947   0.842   4.100  14.329 -1.0463  0.1242  0.2593
  844TIP3    H223948   0.771   3.984  14.263 -1.5827  0.6307 -0.0640
  845TIP3   OH223949   3.375   6.022   1.285  0.1897  0.3806  0.6986
  845TIP3    H123950   3.386   6.026   1.190 -0.7133 -0.1179  0.5656
  845TIP3    H223951   3.440   5.958   1.314  0.7064  0.7895  0.4672
  846TIP3   OH223952   5.632   3.826   5.889  0.2668  0.3221  0.3137
  846TIP3    H123953   5.716   3.783   5.871  0.5587 -0.0740  2.4331
  846TIP3    H223954   5.570   3.782   5.832  1.3961  0.3455 -0.9987
  847TIP3   OH223955   4.878   4.425   2.865 -0.2615 -0.2083 -0.3683
  847TIP3    H123956   4.950   4.367   2.839 -0.3079  0.2617 -1.6157
  847TIP3    H223957   4.905   4.459   2.950  0.2394 -1.2607 -0.0840
  848TIP3   OH223958   2.507   0.191  15.309  0.2118 -0.1984 -0.1501
  848TIP3    H123959   2.514   0.096  15.315  0.1924 -0.2335 -0.6198
  848TIP3    H223960   2.498   0.221  15.400  1.4406 -0.5436  0.1012
  849TIP3   OH223961   6.160   1.211   0.017 -0.0457  0.1806  0.1314
  849TIP3    H123962   6.189   1.265   0.091 -0.1694  0.1882  0.1752
  849TIP3    H223963   6.240   1.169  -0.015 -0.1377 -0.6397  0.9359
  850TIP3   OH223964   5.368   4.720  16.435  0.0237  0.0988 -0.3705
  850TIP3    H123965   5.407   4.714  16.347 -0.1881  0.0038 -0.4602
  850TIP3    H223966   5.421   4.784  16.481  0.9754 -0.8426 -0.1270
  851TIP3   OH223967   1.074   0.247  11.173 -0.3635  0.1451 -0.2583
  851TIP3    H123968   1.136   0.255  11.100 -1.2245  0.3947 -0.9917
  851TIP3    H223969   0.991   0.278  11.136 -0.4995  1.8031  1.2850
  852TIP3   OH223970   4.421   1.182  13.594  0.4697  0.3003  0.7352
  852TIP3    H123971   4.344   1.203  13.541  0.5503 -0.3456  0.3535
  852TIP3    H223972   4.467   1.266  13.602  0.8128  0.2865 -0.7994
  853TIP3   OH223973   6.710   5.339  14.387 -0.7105 -0.4548 -0.6305
  853TIP3    H123974   6.697   5.284  14.464 -0.4041 -0.3533 -0.5040
  853TIP3    H223975   6.622   5.362  14.359 -0.8163 -0.1660 -0.0765
  854TIP3   OH223976   2.533   3.555  17.053 -0.2923 -0.4841 -0.4076
  854TIP3    H123977   2.565   3.525  17.139 -1.9316 -1.2091 -0.0081
  854TIP3    H223978   2.444   3.520  17.047 -0.8371  1.0107 -1.6871
  855TIP3   OH223979   0.140   3.164   6.123  0.2988  0.2315 -0.4995
  855TIP3    H123980   0.221   3.148   6.171 -0.2466 -2.7820 -0.4214
  855TIP3    H223981   0.139   3.098   6.054 -1.0905  1.5855 -1.8625
  856TIP3   OH223982   0.722   2.343   0.421 -0.2330 -0.7806  0.1227
  856TIP3    H123983   0.658   2.289   0.376  0.4618 -2.0846  0.6577
  856TIP3    H223984   0.677   2.373   0.500 -0.8557  0.0482 -0.5236
  857TIP3   OH223985   1.279   3.280   2.001 -0.2469 -0.1214  0.6115
  857TIP3    H123986   1.243   3.309   2.085  1.1892 -0.0542  1.2472
  857TIP3    H223987   1.328   3.200   2.023  2.8942  1.6024  0.5664
  858TIP3   OH223988   0.168   1.229   3.545 -0.2035 -0.5450 -0.0343
  858TIP3    H123989   0.079   1.200   3.565  0.0811  0.0587  2.4240
  858TIP3    H223990   0.196   1.277   3.623  1.4633  1.2748 -1.6439
  859TIP3   OH223991   5.020   1.311   5.284 -0.3078 -0.0007 -0.4991
  859TIP3    H123992   5.011   1.230   5.234 -0.5417  0.5831 -1.4338
  859TIP3    H223993   5.049   1.376   5.220  0.9271  0.4315  0.4442
  860TIP3   OH223994   4.423   5.598  13.626  0.2438  0.2443  0.8042
  860TIP3    H123995   4.407   5.609  13.532  1.0361 -1.1946  0.4736
  860TIP3    H223996   4.472   5.676  13.651 -1.1648  1.3316  0.3546
  861TIP3   OH223997   0.610   4.538   0.528  0.5901  0.2138  0.7849
  861TIP3    H123998   0.655   4.617   0.496 -0.2196  1.0557  1.6659
  861TIP3    H223999   0.670   4.501   0.593  0.2641  1.0481  1.5807
  862TIP3   OH224000   1.096   3.924  14.978 -0.0010  0.6569 -0.0447
  862TIP3    H124001   1.134   3.840  14.950  0.7197  1.5080 -1.7732
  862TIP3    H224002   1.170   3.984  14.979 -0.2795  1.0431  2.4116
  863TIP3   OH224003   3.613   1.313  15.214  0.3300 -0.6189  0.2301
  863TIP3    H124004   3.635   1.223  15.239 -1.9566 -1.3886 -0.2954
  863TIP3    H224005   3.685   1.342  15.159  0.2615 -2.8330 -1.1221
  864TIP3   OH224006   3.248   4.500   4.604  0.4885  0.0179  0.1662
  864TIP3    H124007   3.194   4.492   4.682 -1.5980 -1.9289 -1.3344
  864TIP3    H224008   3.201   4.564   4.550  1.0853  0.2186 -0.1146
  865TIP3   OH224009   0.302   4.400   6.290  0.3130 -0.1942  0.1733
  865TIP3    H124010   0.258   4.484   6.277  0.1274 -0.3105  0.0358
  865TIP3    H224011   0.301   4.387   6.384  0.7766  0.1877  0.2339
  866TIP3   OH224012   2.726   3.842  14.253  0.8449 -0.1565 -0.6329
  866TIP3    H124013   2.749   3.885  14.335 -0.1043 -1.5122  0.3836
  866TIP3    H224014   2.770   3.894  14.185 -0.4233  2.5505  0.4782
  867TIP3   OH224015   1.002   1.190   1.228  0.5393 -0.0725 -0.1213
  867TIP3    H124016   1.039   1.103   1.243  0.7147 -0.0906 -0.6377
  867TIP3    H224017   1.067   1.234   1.173  0.1051  0.1243 -0.4802
  868TIP3   OH224018   6.534   4.775   4.083  0.2779 -0.7290 -0.1115
  868TIP3    H124019   6.551   4.682   4.102  2.7237 -0.2005  0.7210
  868TIP3    H224020   6.517   4.813   4.169  0.3934 -0.2227 -0.3128
  869TIP3   OH224021   3.205   1.669  16.881 -0.4294  0.2005 -0.4715
  869TIP3    H124022   3.119   1.698  16.910 -0.4415  0.1144 -0.4212
  869TIP3    H224023   3.266   1.708  16.944 -0.4721 -0.1545 -0.2097
  870TIP3   OH224024   4.732   2.515   1.169  0.0535  0.2700 -0.2872
  870TIP3    H124025   4.802   2.486   1.228  0.3107 -0.0474 -0.7508
  870TIP3    H224026   4.654   2.468   1.200  0.2307 -0.0527 -0.3254
  871TIP3   OH224027   1.119   5.458   2.118  0.3340  0.0078 -0.2575
  871TIP3    H124028   1.066   5.396   2.068  1.1529 -1.5400  0.7131
  871TIP3    H224029   1.206   5.455   2.076  0.2205  1.0259 -0.6062
  872TIP3   OH224030   0.779   6.339  11.147 -0.2913  0.7982 -0.5194
  872TIP3    H124031   0.699   6.288  11.135  1.2340 -1.8244 -0.2466
  872TIP3    H224032   0.806   6.362  11.058 -0.4959  0.2715 -0.7222
  873TIP3   OH224033   4.245   4.799   1.625  0.3674 -0.8462 -0.0498
  873TIP3    H124034   4.286   4.769   1.544  0.1491  2.3771 -1.5415
  873TIP3    H224035   4.155   4.818   1.600 -0.0187 -0.8960  1.2607
  874TIP3   OH224036   3.936   1.312   3.369 -0.4697 -0.0959  0.4558
  874TIP3    H124037   3.860   1.315   3.427  0.1914 -0.3346  1.3653
  874TIP3    H224038   3.932   1.225   3.329 -2.7249  1.1443 -2.4415
  875TIP3   OH224039   3.858   2.117   4.693 -0.3757 -0.5289  0.3469
  875TIP3    H124040   3.895   2.163   4.618 -1.8737 -2.0839 -1.4562
  875TIP3    H224041   3.850   2.184   4.761  0.8871  0.9675 -0.9154
  876TIP3   OH224042   0.217   6.570  12.030 -1.0049  0.4156  0.4063
  876TIP3    H124043   0.220   6.650  12.083 -0.6928  0.4179  0.3886
  876TIP3    H224044   0.216   6.499  12.095 -0.0663  0.4035  0.4154
  877TIP3   OH224045   4.316   4.962   1.892 -0.4380  0.2338  0.4232
  877TIP3    H124046   4.294   5.045   1.849  2.8656  0.4020 -1.3219
  877TIP3    H224047   4.399   4.980   1.936  1.3288 -2.4799 -1.4841
  878TIP3   OH224048   3.755   5.052  11.958 -0.0686 -0.1481 -0.0451
  878TIP3    H124049   3.662   5.029  11.966  0.3228 -1.5845  0.6444
  878TIP3    H224050   3.788   5.051  12.048  0.5287  0.8279 -0.2352
  879TIP3   OH224051   2.466   6.687   0.958  0.1469  0.8888  0.3504
  879TIP3    H124052   2.523   6.620   0.995 -0.5469  0.7000  1.1070
  879TIP3    H224053   2.378   6.662   0.986 -0.3465  1.0493 -0.9783
  880TIP3   OH224054   6.751   5.156  12.847  0.0008 -0.3268 -0.5870
  880TIP3    H124055   6.794   5.176  12.930  1.4373  1.2739 -1.6442
  880TIP3    H224056   6.823   5.142  12.785 -1.0307 -0.8142 -1.7162
  881TIP3   OH224057   1.891   5.228  13.086 -0.3731  0.2228  0.2670
  881TIP3    H124058   1.881   5.275  13.169  1.2820 -1.5712  1.6030
  881TIP3    H224059   1.864   5.290  13.019  0.8473  2.7219  1.9433
  882TIP3   OH224060   6.768   3.220  15.110  0.5167  0.7227 -0.0163
  882TIP3    H124061   6.800   3.145  15.160 -1.8198 -1.5106 -1.6235
  882TIP3    H224062   6.698   3.256  15.165 -0.4068 -0.2199 -0.5374
  883TIP3   OH224063   3.090   3.914  13.547 -0.2860 -0.2276  0.0591
  883TIP3    H124064   3.160   3.978  13.534  0.6875 -1.2416  0.1580
  883TIP3    H224065   3.086   3.867  13.463 -1.8187  0.7325 -0.4360
  884TIP3   OH224066   4.160   3.856  16.500  0.7199 -0.2733  0.2219
  884TIP3    H124067   4.207   3.837  16.581  1.2282  0.5330  0.1325
  884TIP3    H224068   4.146   3.951  16.503  0.1214 -0.3403 -0.3076
  885TIP3   OH224069   5.623   1.072   1.435  0.9990  0.1469  0.2000
  885TIP3    H124070   5.551   1.135   1.433  0.1255 -0.8104  0.4419
  885TIP3    H224071   5.582   0.988   1.413  2.1022 -0.3688  0.0408
  886TIP3   OH224072   1.616   1.531   2.056 -0.0510  0.1274  0.0986
  886TIP3    H124073   1.580   1.443   2.053  1.5457 -0.5521  0.2447
  886TIP3    H224074   1.577   1.570   2.135 -0.2092 -0.6851  0.4348
  887TIP3   OH224075   4.985   6.111   4.154  0.1443 -0.1145  0.3035
  887TIP3    H124076   4.952   6.048   4.090  1.5563 -0.4585 -0.1276
  887TIP3    H224077   5.070   6.138   4.119 -1.0973  3.3443 -0.4089
  888TIP3   OH224078   4.353   5.003   1.254  0.1296 -0.5871 -0.1767
  888TIP3    H124079   4.413   5.077   1.268 -1.0317  0.2744  0.4017
  888TIP3    H224080   4.384   4.962   1.173  0.5422  0.8023 -0.7450
  889TIP3   OH224081   2.863   2.575  13.942 -0.3017  0.2253 -0.2219
  889TIP3    H124082   2.836   2.633  13.871 -1.2382  1.7605  1.2953
  889TIP3    H224083   2.782   2.533  13.970  0.2950 -1.5213 -0.9805
  890TIP3   OH224084   4.239   2.002   4.384 -0.5936 -0.0812 -0.3869
  890TIP3    H124085   4.181   1.964   4.318 -0.4738 -1.2903  0.1841
  890TIP3    H224086   4.285   2.072   4.337  0.5060 -1.8097 -2.0249
  891TIP3   OH224087   5.597   4.171  11.819 -0.3385 -0.0638 -0.6848
  891TIP3    H124088   5.636   4.164  11.906 -0.8062  1.3214 -0.3402
  891TIP3    H224089   5.545   4.091  11.810  1.9566 -1.6144 -0.8801
  892TIP3   OH224090   2.389   6.680  13.674  0.0759  0.1489 -0.3417
  892TIP3    H124091   2.377   6.707  13.583 -2.9578  0.8461  0.1565
  892TIP3    H224092   2.469   6.725  13.702 -0.4675  2.2161 -1.8687
  893TIP3   OH224093   2.137   5.277   3.782 -0.2432  0.0604 -0.2688
  893TIP3    H124094   2.052   5.306   3.748  0.6001  1.1188 -1.6095
  893TIP3    H224095   2.170   5.217   3.715  0.3659  0.2114 -0.1049
  894TIP3   OH224096   5.168   3.178   0.123 -0.3779 -0.1016  0.1232
  894TIP3    H124097   5.232   3.170   0.052  0.1558 -0.8155  0.6739
  894TIP3    H224098   5.197   3.253   0.174 -0.4503  0.0778 -0.0985
  895TIP3   OH224099   2.657   2.560  13.606 -0.4253  0.1237  0.3250
  895TIP3    H124100   2.693   2.648  13.617 -0.7881  0.1186  1.8458
  895TIP3    H224101   2.658   2.545  13.512 -0.9762  2.0310 -0.0297
  896TIP3   OH224102   0.970   1.758   0.249  0.1467  0.8416 -0.0676
  896TIP3    H124103   0.898   1.817   0.271 -0.5189  0.9582 -2.3054
  896TIP3    H224104   1.027   1.810   0.192  0.7458  0.0110 -0.2461
  897TIP3   OH224105   4.080   3.993   0.971  0.3479  0.5418 -0.1069
  897TIP3    H124106   4.098   3.909   0.929 -0.9896 -0.0115  0.3597
  897TIP3    H224107   3.997   4.021   0.934 -0.0543  0.8241  0.9719
  898TIP3   OH224108   5.094   4.754  16.372 -0.1985  0.2941  0.2570
  898TIP3    H124109   5.183   4.763  16.405 -0.1075 -2.5039  1.0138
  898TIP3    H224110   5.063   4.671  16.408 -2.5868  0.4448 -1.2147
  899TIP3   OH224111   4.678   5.149  11.377  0.7120  0.2093 -0.2389
  899TIP3    H124112   4.737   5.207  11.328  0.1039  0.7936 -0.2912
  899TIP3    H224113   4.667   5.073  11.320 -1.0934  1.4784 -1.7093
  900TIP3   OH224114   2.786   3.178   2.283  0.1570  0.5782  0.2118
  900TIP3    H124115   2.862   3.128   2.311  0.2988 -0.1652 -1.3699
  900TIP3    H224116   2.711   3.133   2.322  0.4386  0.5686  0.7484
  901TIP3   OH224117   5.089   6.361   4.310 -0.7816 -0.0048 -0.1684
  901TIP3    H124118   5.035   6.402   4.377 -0.6067 -0.6621  0.3860
  901TIP3    H224119   5.083   6.419   4.235 -2.3322 -0.1014 -0.1471
  902TIP3   OH224120   3.580   3.874   1.462  0.2663 -0.4307  0.6922
  902TIP3    H124121   3.630   3.794   1.452 -0.9926 -1.1893  0.2449
  902TIP3    H224122   3.557   3.878   1.555 -0.7235 -1.2652  0.4994
  903TIP3   OH224123   4.963   1.741   4.814 -0.1225 -0.0871  0.6414
  903TIP3    H124124   4.981   1.832   4.791  1.2112 -0.4855 -0.0531
  903TIP3    H224125   4.901   1.711   4.748  0.0549  0.0952  0.3898
  904TIP3   OH224126   3.088   5.893  11.635  0.3807 -0.3709  0.1497
  904TIP3    H124127   3.149   5.923  11.702  0.2704 -0.4749  0.2959
  904TIP3    H224128   3.049   5.973  11.601  0.6686 -0.2976 -0.0102
  905TIP3   OH224129   6.130   4.526  10.167 -0.1005 -0.1894  0.5195
  905TIP3    H124130   6.210   4.576  10.181  0.2870 -0.4193 -0.7192
  905TIP3    H224131   6.153   4.463  10.098 -1.6798  0.5739 -0.7582
  906TIP3   OH224132   5.925   5.978   2.666  0.9316  0.2627 -0.9052
  906TIP3    H124133   6.008   6.024   2.684  0.9900 -0.9855  2.9138
  906TIP3    H224134   5.864   6.047   2.643  2.3529  1.5509 -0.9789
  907TIP3   OH224135   1.748   2.743   5.569 -1.0282 -0.1156 -0.1559
  907TIP3    H124136   1.812   2.682   5.531 -1.6610 -0.7179 -0.2820
  907TIP3    H224137   1.722   2.701   5.651 -1.4086  0.0267 -0.2022
  908TIP3   OH224138   6.183   0.482   5.083 -0.1864  0.1155 -0.3804
  908TIP3    H124139   6.213   0.489   4.993  0.5873 -1.1801 -0.2545
  908TIP3    H224140   6.184   0.572   5.116 -3.9382  1.2337 -2.6571
  909TIP3   OH224141   3.219   4.834  13.569 -0.4101 -0.2945  0.8651
  909TIP3    H124142   3.254   4.886  13.641  0.5185  0.3550 -0.0309
  909TIP3    H224143   3.224   4.743  13.600  0.6625 -0.0850  1.3491
  910TIP3   OH224144   2.797   5.610   5.961 -0.0151  0.0409 -0.6281
  910TIP3    H124145   2.717   5.615   6.013  0.2635 -1.6528  0.0291
  910TIP3    H224146   2.825   5.701   5.951 -0.0683  0.4800  2.2446
  911TIP3   OH224147   3.687   1.412  15.618  1.0819 -0.4133  0.2069
  911TIP3    H124148   3.653   1.448  15.700  0.9666 -0.1723  0.0521
  911TIP3    H224149   3.721   1.488  15.571 -0.1647 -0.3381 -0.6114
  912TIP3   OH224150   5.429   0.973   3.944 -0.0229  0.0257  0.1281
  912TIP3    H124151   5.499   1.028   3.981 -0.4125  1.2285 -0.8697
  912TIP3    H224152   5.355   1.032   3.934 -0.5675 -0.7669 -0.6672
  913TIP3   OH224153   3.118   0.607   1.792 -0.5284 -0.1391 -0.8027
  913TIP3    H124154   3.152   0.696   1.780  0.5433 -0.7969 -3.2213
  913TIP3    H224155   3.197   0.552   1.800 -1.1774 -0.9016  0.8601
  914TIP3   OH224156   2.972   6.404  16.583  0.0935  0.1863 -0.5083
  914TIP3    H124157   3.045   6.447  16.629  1.9193 -0.9677 -2.1877
  914TIP3    H224158   2.896   6.423  16.638  1.2886  2.9977  0.3832
  915TIP3   OH224159   0.864   4.741   2.035 -0.0070  0.1580  0.5783
  915TIP3    H124160   0.866   4.651   2.070  3.3998 -0.4483 -0.7885
  915TIP3    H224161   0.840   4.730   1.943  1.4640  0.4830  0.1382
  916TIP3   OH224162   1.562   4.249   1.943 -0.1653  0.1039 -0.4419
  916TIP3    H124163   1.614   4.232   2.021  1.9073  1.1449 -1.5050
  916TIP3    H224164   1.618   4.223   1.870 -1.3801  0.7011 -1.6381
  917TIP3   OH224165   6.372   4.401   5.412  0.0925 -0.3889  0.1585
  917TIP3    H124166   6.435   4.416   5.341  1.1681  1.8641  1.4982
  917TIP3    H224167   6.375   4.306   5.426  1.3653 -0.6364 -1.4522
  918TIP3   OH224168   0.459   0.473  17.054 -0.0228 -0.2036 -0.6796
  918TIP3    H124169   0.519   0.498  17.124  0.1468 -0.3765 -0.7604
  918TIP3    H224170   0.488   0.524  16.978 -0.9005  0.8255 -0.3439
  919TIP3   OH224171   3.049   2.441  15.931  0.1788  0.0254 -0.5017
  919TIP3    H124172   3.000   2.362  15.951  1.9474 -0.8316  0.6679
  919TIP3    H224173   3.076   2.430  15.840  0.1434 -0.5508 -0.4428
  920TIP3   OH224174   5.577   1.038  13.266  0.3308 -0.8575  0.3789
  920TIP3    H124175   5.542   0.953  13.294  0.9582 -1.3793 -0.3519
  920TIP3    H224176   5.564   1.039  13.171 -0.6999  0.3618  0.5170
  921TIP3   OH224177   2.508   3.627  11.676  0.1556 -0.0166 -0.3162
  921TIP3    H124178   2.570   3.571  11.722 -0.8374 -0.1232  0.9575
  921TIP3    H224179   2.563   3.691  11.630  1.2566 -1.3299 -0.8896
  922TIP3   OH224180   2.158   4.492  15.200 -0.3015 -0.2664  0.0426
  922TIP3    H124181   2.174   4.581  15.232 -0.3268  0.3083 -1.4883
  922TIP3    H224182   2.236   4.443  15.225  0.9275  0.8563 -1.4139
  923TIP3   OH224183   0.918   2.794  12.543  0.3161 -0.8032  0.3588
  923TIP3    H124184   0.958   2.847  12.612  1.4965 -0.9468 -0.1908
  923TIP3    H224185   0.939   2.840  12.462 -1.0654 -0.6335  0.0736
  924TIP3   OH224186   4.444   1.946  17.284 -0.4950 -0.2260 -0.1531
  924TIP3    H124187   4.369   1.935  17.343 -0.0374 -1.9493  0.1662
  924TIP3    H224188   4.508   1.882  17.314  1.0455  1.0348 -0.5696
  925TIP3   OH224189   2.436   4.825   2.550  0.4427 -0.3773 -0.7999
  925TIP3    H124190   2.403   4.770   2.621  1.0204  0.1642 -0.0962
  925TIP3    H224191   2.530   4.834   2.568  0.3753  0.7581 -0.9420
  926TIP3   OH224192   4.293   3.278   5.844 -0.0984  0.4786  0.1582
  926TIP3    H124193   4.278   3.300   5.936 -0.6218 -0.0778  0.2108
  926TIP3    H224194   4.388   3.279   5.835 -0.0072 -0.2986  0.9176
  927TIP3   OH224195   3.390   4.060   1.283  0.3274  0.3265  0.6110
  927TIP3    H124196   3.441   4.031   1.360 -0.5240 -1.7903  0.4426
  927TIP3    H224197   3.308   4.012   1.290  0.4872 -0.4224 -1.9844
  928TIP3   OH224198   5.529   0.936   1.057  0.2416 -0.4330  0.3548
  928TIP3    H124199   5.592   0.932   1.129  0.8683 -1.4173 -0.2385
  928TIP3    H224200   5.536   0.851   1.014 -0.0512  0.1883 -0.9491
  929TIP3   OH224201   4.713   0.988   5.432  0.0411 -0.1213  0.4385
  929TIP3    H124202   4.706   1.064   5.488 -0.1122  0.0083  0.2443
  929TIP3    H224203   4.806   0.980   5.413  0.1819 -0.5757  1.2732
  930TIP3   OH224204   1.670   5.676  14.204 -0.1346 -0.1253 -0.1419
  930TIP3    H124205   1.717   5.744  14.252  0.3648 -0.3559 -0.3032
  930TIP3    H224206   1.636   5.720  14.127 -1.3556  0.3700  0.6377
  931TIP3   OH224207   0.126   0.397  14.194 -0.2107 -0.1465 -0.6419
  931TIP3    H124208   0.207   0.349  14.213 -0.7434 -1.8533 -2.3453
  931TIP3    H224209   0.064   0.329  14.168 -2.8421  0.8548  2.3940
  932TIP3   OH224210   5.500   0.365  11.829  0.2331  0.7481  0.8211
  932TIP3    H124211   5.407   0.345  11.823  0.3827  0.0532  0.6655
  932TIP3    H224212   5.529   0.372  11.738  0.2213  1.5136  0.8760
  933TIP3   OH224213   2.587   3.204   6.039  0.1643 -0.2721  0.5172
  933TIP3    H124214   2.610   3.274   6.100  0.4566 -0.3271  0.4727
  933TIP3    H224215   2.641   3.220   5.962 -0.4881  0.0230  0.1072
  934TIP3   OH224216   6.751   6.174  15.600 -0.1674  0.0789  0.0323
  934TIP3    H124217   6.837   6.206  15.626 -0.3362 -0.3037  1.1067
  934TIP3    H224218   6.742   6.199  15.508  0.6561  1.0301  0.2054
  935TIP3   OH224219   2.529   3.486  13.687  0.1083 -0.8252  0.4056
  935TIP3    H124220   2.511   3.466  13.595 -0.9133  1.0624  0.1248
  935TIP3    H224221   2.622   3.510  13.689 -0.4548  1.8164 -0.7552
  936TIP3   OH224222   5.408   5.134   1.544 -0.0296  0.0805  0.2191
  936TIP3    H124223   5.399   5.206   1.606 -2.1985 -0.4332  0.5835
  936TIP3    H224224   5.439   5.061   1.597  0.4586  0.2568  0.1890
  937TIP3   OH224225   4.060   1.772   0.418  0.2206  0.5281 -0.2842
  937TIP3    H124226   4.145   1.781   0.461  0.2818  0.9543 -0.4888
  937TIP3    H224227   3.998   1.758   0.489  0.6216 -1.0423 -0.1989
  938TIP3   OH224228   6.428   3.921  12.256  0.1494  0.3522 -1.0209
  938TIP3    H124229   6.371   3.880  12.321 -0.1122  1.0461 -0.8128
  938TIP3    H224230   6.499   3.857  12.244 -1.3387 -1.1601 -2.3082
  939TIP3   OH224231   2.807   3.905  15.324 -0.1711  0.3574  0.2148
  939TIP3    H124232   2.827   3.994  15.294  1.9843  0.2771  1.2661
  939TIP3    H224233   2.758   3.918  15.405  1.8387  0.6533  1.4338
  940TIP3   OH224234   2.881   0.047   6.060  0.6228 -0.4440 -0.0384
  940TIP3    H124235   2.923   0.108   6.000 -1.2990 -0.2232 -1.2365
  940TIP3    H224236   2.861   0.099   6.138 -2.0043  0.8880 -1.4652
  941TIP3   OH224237   5.028   5.642  15.678 -0.1523 -0.3826  0.1846
  941TIP3    H124238   4.994   5.565  15.723  0.6869  0.8919  3.2741
  941TIP3    H224239   4.953   5.702  15.674 -0.5423 -0.9239 -1.3246
  942TIP3   OH224240   2.565   5.578   0.938  0.3927  0.4503 -0.3726
  942TIP3    H124241   2.501   5.639   0.901  0.4870  0.8961  0.1776
  942TIP3    H224242   2.551   5.584   1.033  0.2486 -0.5624 -0.3270
  943TIP3   OH224243   6.047   1.799   1.459  0.1795 -0.3206 -0.4741
  943TIP3    H124244   5.983   1.865   1.432 -1.1442 -1.5646 -0.5309
  943TIP3    H224245   6.109   1.794   1.387 -1.3222 -1.1058 -1.7768
  944TIP3   OH224246   3.612   0.376  12.757  0.2401  0.7268  0.1975
  944TIP3    H124247   3.554   0.386  12.832 -1.3771 -0.3030 -0.8764
  944TIP3    H224248   3.673   0.450  12.765 -0.6138  1.3083  1.8644
  945TIP3   OH224249   6.713   0.087  14.219  0.1370  0.2057  0.0679
  945TIP3    H124250   6.742   0.017  14.278  1.6489 -0.2548 -1.1603
  945TIP3    H224251   6.617   0.082  14.221  0.1848 -0.6162  1.4915
  946TIP3   OH224252   6.205   1.452  12.022  0.7831 -0.2179 -0.0995
  946TIP3    H124253   6.166   1.513  11.959  0.5591 -0.5286 -0.2637
  946TIP3    H224254   6.192   1.366  11.983 -0.5429 -0.5420  0.9547
  947TIP3   OH224255   1.334   5.174   0.233 -0.1984 -0.0068  0.0459
  947TIP3    H124256   1.349   5.112   0.161 -0.5029  0.6735 -0.6121
  947TIP3    H224257   1.364   5.258   0.199  3.6759 -0.2917  2.1619
  948TIP3   OH224258   5.776   6.581   2.901  0.1115 -0.0401  0.1312
  948TIP3    H124259   5.822   6.611   2.980  0.0415 -0.3452  0.2891
  948TIP3    H224260   5.819   6.629   2.829  1.5465 -1.2606  0.1303
  949TIP3   OH224261   2.572   4.307   3.717  0.2221  0.1779 -0.1697
  949TIP3    H124262   2.585   4.233   3.776  0.9456 -0.5987 -1.2701
  949TIP3    H224263   2.618   4.380   3.760 -0.9882  0.1672  1.2036
  950TIP3   OH224264   2.221   6.279   1.723  0.2093  0.1173 -0.0402
  950TIP3    H124265   2.259   6.355   1.766 -1.0638 -0.4371  2.2418
  950TIP3    H224266   2.151   6.316   1.669 -0.2814  0.6188  0.9054
  951TIP3   OH224267   4.725   5.697   2.264 -0.3205 -0.4847  0.3177
  951TIP3    H124268   4.776   5.720   2.341  0.3395 -0.4422 -0.1223
  951TIP3    H224269   4.634   5.694   2.295  0.0566 -1.8353  1.4088
  952TIP3   OH224270   2.140   1.032  13.421 -0.5188  0.9422 -0.1693
  952TIP3    H124271   2.125   1.027  13.515  0.5070  0.3466 -0.0253
  952TIP3    H224272   2.149   0.940  13.393  0.1509  1.1520 -0.6767
  953TIP3   OH224273   1.535   0.670   2.047  0.0893  0.7813  0.0644
  953TIP3    H124274   1.521   0.745   1.990  1.5890 -0.1771 -1.6825
  953TIP3    H224275   1.630   0.659   2.049 -0.1164 -1.6248 -0.5603
  954TIP3   OH224276   0.206   1.520   3.333 -0.0811  0.3992 -0.2184
  954TIP3    H124277   0.233   1.497   3.422  1.7354 -1.6061 -1.1973
  954TIP3    H224278   0.111   1.526   3.338  0.0210  1.2558  2.0199
  955TIP3   OH224279   4.596   3.991   5.070  0.4120 -0.9533 -0.6751
  955TIP3    H124280   4.610   3.937   5.147  0.7753  0.3932  0.2338
  955TIP3    H224281   4.566   4.075   5.104 -0.4157 -0.6565 -2.0672
  956TIP3   OH224282   0.100   4.431   3.077  0.0875 -0.4648 -0.2773
  956TIP3    H124283   0.009   4.446   3.103 -0.5393 -2.7202 -0.9399
  956TIP3    H224284   0.151   4.464   3.151 -1.4151 -1.8088  1.4711
  957TIP3   OH224285   0.461   5.471  11.462  0.4675 -0.3896 -0.1121
  957TIP3    H124286   0.481   5.555  11.420 -1.3177  0.1521  0.0549
  957TIP3    H224287   0.371   5.451  11.435 -0.3237 -0.6387  2.4322
  958TIP3   OH224288   6.108   1.108   4.322  0.1503 -0.0837 -0.6786
  958TIP3    H124289   6.031   1.067   4.363 -0.5143  0.0245 -1.7684
  958TIP3    H224290   6.135   1.175   4.385 -0.0628 -0.7617  0.1536
  959TIP3   OH224291   5.350   4.990   4.203  0.0990  0.1284 -0.1646
  959TIP3    H124292   5.419   5.042   4.244  0.3351  0.8736 -1.4771
  959TIP3    H224293   5.286   5.054   4.173 -0.2424 -0.4271 -0.6417
  960TIP3   OH224294   1.155   0.626  13.452  0.4319  0.0168 -0.3894
  960TIP3    H124295   1.137   0.719  13.436 -0.2106 -0.2161 -1.0608
  960TIP3    H224296   1.175   0.590  13.366 -3.1017 -1.2570 -0.8392
  961TIP3   OH224297   0.313   3.831  13.466  0.4063 -1.2575 -0.0607
  961TIP3    H124298   0.343   3.922  13.469  0.5782 -1.3034 -0.3928
  961TIP3    H224299   0.235   3.829  13.522 -0.8439 -0.4592 -1.7172
  962TIP3   OH224300   6.367   2.543   5.442 -0.0992  0.0593 -0.6211
  962TIP3    H124301   6.426   2.579   5.375 -0.9789  0.5425 -1.1641
  962TIP3    H224302   6.284   2.588   5.427  0.1747  1.7002  2.0938
  963TIP3   OH224303   4.685   6.010  13.079 -0.4523 -0.4266 -0.4268
  963TIP3    H124304   4.763   5.994  13.026  1.1023  1.3862  1.1792
  963TIP3    H224305   4.612   6.001  13.017  0.9713 -2.1788 -1.9841
  964TIP3   OH224306   5.541   5.007  15.553  0.1713 -0.3774  0.3336
  964TIP3    H124307   5.514   4.938  15.494  0.5570 -0.3533  0.1232
  964TIP3    H224308   5.463   5.060  15.566  0.3017  0.1373 -0.8705
  965TIP3   OH224309   6.262   3.038  17.260 -0.1364  0.1022 -0.6205
  965TIP3    H124310   6.285   2.995  17.178  3.0756  2.5447 -1.2038
  965TIP3    H224311   6.323   3.003  17.325 -0.0225  0.9850 -0.2310
  966TIP3   OH224312   3.601   5.292   5.339 -0.0452  0.0757 -0.6041
  966TIP3    H124313   3.641   5.374   5.310 -0.9270  0.1700 -1.6464
  966TIP3    H224314   3.573   5.308   5.429  0.6153  0.5991 -0.4867
  967TIP3   OH224315   3.972   3.699   1.879  0.1056  0.5381 -0.0781
  967TIP3    H124316   3.911   3.632   1.909 -0.8591  0.9811 -0.9913
  967TIP3    H224317   3.926   3.782   1.889  1.4798  1.1746  1.5264
  968TIP3   OH224318   5.014   6.232  15.455  0.0324 -1.0820 -0.2138
  968TIP3    H124319   4.943   6.267  15.401 -0.9183 -1.3106  0.8517
  968TIP3    H224320   5.002   6.274  15.540  0.5846 -1.8710  0.2661
  969TIP3   OH224321   3.231   6.689   0.469  0.3253  0.4296 -0.4694
  969TIP3    H124322   3.229   6.702   0.564 -0.8240  0.6030 -0.5075
  969TIP3    H224323   3.139   6.688   0.443  0.6410  0.9175 -1.6560
  970TIP3   OH224324   2.259   4.158  14.140  0.0614 -0.1590  0.0726
  970TIP3    H124325   2.337   4.116  14.177  0.7126 -0.6646 -1.7661
  970TIP3    H224326   2.282   4.175  14.049 -1.5965  0.7193 -0.2184
  971TIP3   OH224327   2.264   4.714   1.419 -0.4617  0.2561  0.7931
  971TIP3    H124328   2.307   4.775   1.359 -1.5730  1.1326  0.8532
  971TIP3    H224329   2.207   4.769   1.473 -0.2073 -0.6411  2.0153
  972TIP3   OH224330   4.480   5.207  14.500  0.3436 -0.1464 -0.2739
  972TIP3    H124331   4.416   5.170  14.561 -1.2314  1.2709 -0.9624
  972TIP3    H224332   4.562   5.162  14.520 -1.0009 -2.5522  0.1815
  973TIP3   OH224333   4.701   0.032   2.152  0.3697  0.4921  0.0308
  973TIP3    H124334   4.721   0.007   2.242  0.7293  0.3734 -0.0798
  973TIP3    H224335   4.690  -0.051   2.106  2.3894  0.4854 -0.5183
  974TIP3   OH224336   0.530   1.396   5.135 -0.3168 -0.2079  0.0164
  974TIP3    H124337   0.604   1.339   5.114  0.4337  1.1209 -1.1069
  974TIP3    H224338   0.550   1.429   5.223 -1.0769 -2.1006  0.9532
  975TIP3   OH224339   1.290   1.294   4.370 -0.2402  0.3266  0.0262
  975TIP3    H124340   1.241   1.218   4.401  0.7919 -1.1579 -1.7357
  975TIP3    H224341   1.275   1.362   4.436  0.1840 -1.9177  2.6092
  976TIP3   OH224342   2.807   6.571   2.823 -0.7592 -0.2943 -0.2648
  976TIP3    H124343   2.825   6.623   2.745  0.8648 -0.3845  0.0193
  976TIP3    H224344   2.784   6.484   2.789  0.1360 -0.3905 -0.6584
  977TIP3   OH224345   4.874   2.053   2.484 -0.3955 -0.3519  0.4983
  977TIP3    H124346   4.847   2.050   2.392  1.9362 -1.4459 -0.2188
  977TIP3    H224347   4.825   2.126   2.521 -1.9408 -0.3333 -1.4042
  978TIP3   OH224348   1.640   5.562   0.279 -0.1333  0.3572  0.3082
  978TIP3    H124349   1.604   5.648   0.257  1.1257  1.2339  1.4824
  978TIP3    H224350   1.689   5.536   0.201  0.5216  1.3038  0.3923
  979TIP3   OH224351   6.030   2.434  12.878  0.1636  0.4092  0.6065
  979TIP3    H124352   6.110   2.481  12.854 -1.8537  2.7414 -2.2338
  979TIP3    H224353   6.004   2.389  12.798 -1.5344 -0.0365  1.3829
  980TIP3   OH224354   5.293   6.238  15.461 -0.7652 -0.4514 -0.4758
  980TIP3    H124355   5.197   6.238  15.466 -0.7572  0.7090 -0.0238
  980TIP3    H224356   5.323   6.242  15.552 -0.3597  2.0253 -0.6477
  981TIP3   OH224357   1.234   6.297  12.671 -0.0999 -0.5316 -0.3571
  981TIP3    H124358   1.308   6.321  12.615  0.7566 -2.6804 -0.2308
  981TIP3    H224359   1.235   6.363  12.741 -0.0550  1.1011 -1.8084
  982TIP3   OH224360   0.661   4.377  15.069 -0.2386  0.3458  0.5428
  982TIP3    H124361   0.605   4.454  15.078 -1.4422 -0.5828  1.3037
  982TIP3    H224362   0.683   4.352  15.159 -0.6334 -0.7276  0.3599
  983TIP3   OH224363   1.588   1.450  13.139  0.3201 -0.1161 -0.6216
  983TIP3    H124364   1.608   1.542  13.155  0.7528 -0.3714  0.3990
  983TIP3    H224365   1.667   1.404  13.167  0.3352 -0.7662 -1.6663
  984TIP3   OH224366   1.825   5.829   1.619 -0.3044 -0.5055 -0.4151
  984TIP3    H124367   1.879   5.760   1.581 -0.5938  0.3201 -2.4557
  984TIP3    H224368   1.735   5.806   1.594 -0.5543 -0.1720  0.1616
  985TIP3   OH224369   2.794   2.317   5.809 -0.1851  0.2687 -0.2684
  985TIP3    H124370   2.717   2.285   5.857  0.6352 -0.5751  0.5128
  985TIP3    H224371   2.861   2.251   5.825  0.6566  0.9141 -1.0835
  986TIP3   OH224372   3.972   2.163  12.866  0.0033  0.3536 -0.4182
  986TIP3    H124373   3.993   2.250  12.831  0.5989 -0.2894 -1.6967
  986TIP3    H224374   3.928   2.182  12.949  2.2028  1.8249  0.4960
  987TIP3   OH224375   3.310   2.673   4.016  0.5232 -0.2564 -0.0308
  987TIP3    H124376   3.303   2.735   4.089 -0.1161 -1.9085  1.3724
  987TIP3    H224377   3.403   2.653   4.009  0.5415 -0.4157  0.6355
  988TIP3   OH224378   0.081   5.883  12.537 -0.0299 -0.4367 -0.2748
  988TIP3    H124379   0.109   5.806  12.487  0.2566 -0.3362 -0.2715
  988TIP3    H224380   0.160   5.936  12.545  0.0992 -0.7552  0.8497
  989TIP3   OH224381   5.692   4.859  12.862 -0.0789  0.0630 -0.1648
  989TIP3    H124382   5.642   4.780  12.881  0.9746 -0.3790  0.8977
  989TIP3    H224383   5.751   4.834  12.791 -0.4535  0.2017 -0.5275
  990TIP3   OH224384   4.378   2.574   4.128  0.2607 -0.0461 -0.3942
  990TIP3    H124385   4.312   2.601   4.191 -0.3057 -3.3947  0.6109
  990TIP3    H224386   4.462   2.597   4.169 -0.1678  1.5250 -0.3460
  991TIP3   OH224387   6.260   2.802   0.682  0.3308  0.2283 -0.6465
  991TIP3    H124388   6.325   2.736   0.656  0.3002  0.2844 -0.8709
  991TIP3    H224389   6.286   2.828   0.770  2.1722  2.1150 -1.6463
  992TIP3   OH224390   4.796   0.725   1.076  0.3454 -0.2432  0.8246
  992TIP3    H124391   4.835   0.731   0.988 -1.0666  0.7902  0.2300
  992TIP3    H224392   4.704   0.751   1.063 -0.3110 -1.6595  2.3311
  993TIP3   OH224393   6.312   4.524  10.680  0.1088  0.0859  0.0299
  993TIP3    H124394   6.237   4.467  10.697  0.2620 -0.1958 -0.2126
  993TIP3    H224395   6.388   4.474  10.712  0.1074  0.7256  1.0417
  994TIP3   OH224396   4.177   1.299  13.502 -0.5551  0.0528 -0.3052
  994TIP3    H124397   4.154   1.313  13.410 -0.5853 -1.0707 -0.4861
  994TIP3    H224398   4.158   1.382  13.545 -0.9475  0.4557 -1.2417
  995TIP3   OH224399   6.079   0.529   0.092 -0.0128 -0.7114  0.0593
  995TIP3    H124400   6.083   0.583   0.171  0.6926 -2.0811  1.0063
  995TIP3    H224401   6.170   0.509   0.071 -0.2597 -2.1502  0.2095
  996TIP3   OH224402   6.660   2.841   6.659 -0.0452 -0.0284  0.1608
  996TIP3    H124403   6.742   2.816   6.703 -0.8682  0.3814  1.9967
  996TIP3    H224404   6.660   2.937   6.662 -0.4816 -0.0236 -0.0387
  997TIP3   OH224405   0.591   5.990  15.462  0.3970  0.5532  0.2618
  997TIP3    H124406   0.634   5.904  15.467 -1.5490 -0.5154 -0.4156
  997TIP3    H224407   0.556   6.004  15.550 -0.5732 -0.0881 -0.0040
  998TIP3   OH224408   1.757   2.002   6.278  0.3200  0.0454 -0.2526
  998TIP3    H124409   1.748   1.958   6.362  2.0694 -1.3922 -0.7550
  998TIP3    H224410   1.668   2.009   6.243 -0.1935 -1.2644  0.7608
  999TIP3   OH224411   3.916   0.628   0.353 -0.0694  0.1222 -0.0025
  999TIP3    H124412   3.957   0.656   0.271 -1.0203  0.7764 -0.2691
  999TIP3    H224413   3.955   0.684   0.420 -1.6648  1.8979 -0.4740
 1000TIP3   OH224414   2.355   6.467  11.602 -0.0317  0.1939  0.1606
 1000TIP3    H124415   2.334   6.560  11.608 -0.0521  0.1395  0.9745
 1000TIP3    H224416   2.437   6.458  11.652  0.0038 -0.2146  0.0299
 1001TIP3   OH224417   6.320   6.346   4.538  0.2926  1.0634  0.4271
 1001TIP3    H124418   6.395   6.373   4.591  1.7586 -1.6941 -0.0679
 1001TIP3    H224419   6.353   6.344   4.449 -1.1144  2.0696 -0.1695
 1002TIP3   OH224420   0.802   1.972  16.306  0.1368 -0.3425 -0.4729
 1002TIP3    H124421   0.710   1.999  16.308  0.1382 -0.3773  0.0019
 1002TIP3    H224422   0.826   1.961  16.397  0.6716 -0.1554 -0.5894
 1003TIP3   OH224423   5.327   0.480   4.906  0.5127  0.0133 -0.0438
 1003TIP3    H124424   5.397   0.449   4.849 -0.1285  1.5654 -1.7785
 1003TIP3    H224425   5.349   0.444   4.992  1.5650 -2.3480 -1.2042
 1004TIP3   OH224426   1.939   2.500  10.739 -0.3219 -0.2287 -0.8266
 1004TIP3    H124427   1.852   2.507  10.778 -0.0073  2.7974 -0.4504
 1004TIP3    H224428   1.969   2.412  10.763 -2.1101 -0.3025  1.5108
 1005TIP3   OH224429   6.324   0.978  16.834  0.1718  0.6456 -0.4726
 1005TIP3    H124430   6.328   0.932  16.750  0.1769  0.3362 -0.3010
 1005TIP3    H224431   6.413   1.010  16.849  1.1801 -2.6020  1.2861
 1006TIP3   OH224432   0.681   0.890  14.432  0.4333 -0.1636 -0.4300
 1006TIP3    H124433   0.758   0.863  14.483  0.7783 -0.8150 -1.2686
 1006TIP3    H224434   0.607   0.853  14.480  0.6671  0.1171  0.1619
 1007TIP3   OH224435   4.032   3.636   4.910  0.1437 -0.8304 -0.1558
 1007TIP3    H124436   4.127   3.632   4.909  0.2941 -0.1124  2.8431
 1007TIP3    H224437   4.005   3.553   4.950 -0.0637  0.9961  3.9806
 1008TIP3   OH224438   6.106   0.955  11.748 -0.0791 -0.0332  0.0155
 1008TIP3    H124439   6.041   0.887  11.766  0.5514 -0.1747  1.9183
 1008TIP3    H224440   6.114   1.004  11.830  1.4133  0.6749 -0.5167
 1009TIP3   OH224441   2.198   6.229  15.289  0.6904  0.0487  0.5519
 1009TIP3    H124442   2.198   6.321  15.315  1.7827  0.7993 -1.7821
 1009TIP3    H224443   2.275   6.192  15.331  0.7113  0.4039  0.8324
 1010TIP3   OH224444   1.444   0.221  15.117 -0.3296  0.2308  0.5911
 1010TIP3    H124445   1.534   0.251  15.108 -0.3872  0.6696  1.3832
 1010TIP3    H224446   1.451   0.127  15.133  0.0361  0.3983  1.4597
 1011TIP3   OH224447   0.884   3.219   5.894 -0.1462 -0.7633  0.2563
 1011TIP3    H124448   0.928   3.304   5.903 -2.8785  0.7708  0.0752
 1011TIP3    H224449   0.928   3.178   5.819 -0.3406  1.6030 -1.2723
 1012TIP3   OH224450   4.526   3.043  15.597 -0.2454  0.0455  0.6886
 1012TIP3    H124451   4.620   3.042  15.582 -0.1604 -2.8950  0.9343
 1012TIP3    H224452   4.494   3.116  15.544  2.2403  1.7574  1.3931
 1013TIP3   OH224453   0.973   1.523   1.185 -0.2383 -0.2080  0.3121
 1013TIP3    H124454   1.053   1.568   1.157 -0.1093 -0.6875 -0.1125
 1013TIP3    H224455   0.993   1.491   1.273 -0.4575  0.8654  0.7581
 1014TIP3   OH224456   2.656   6.528   4.252 -0.2963  0.6231  0.2179
 1014TIP3    H124457   2.581   6.583   4.277 -0.3208  0.0570  1.4705
 1014TIP3    H224458   2.616   6.450   4.213 -0.2439  1.8424 -2.4905
 1015TIP3   OH224459   6.269   3.926   1.939 -0.3858  0.4792  0.4484
 1015TIP3    H124460   6.223   3.978   1.873 -0.5524  0.2568  0.3880
 1015TIP3    H224461   6.309   3.855   1.889  1.4266  1.5716  0.2444
 1016TIP3   OH224462   6.045   0.628  12.206  0.3490 -0.3510 -0.6947
 1016TIP3    H124463   6.035   0.562  12.274 -0.0344 -0.9171 -1.2839
 1016TIP3    H224464   6.108   0.590  12.145 -0.1118 -0.3126 -1.2023
 1017TIP3   OH224465   1.832   3.777   2.381  0.3013 -0.5508 -0.3589
 1017TIP3    H124466   1.889   3.838   2.427 -3.5519  1.8456  1.7952
 1017TIP3    H224467   1.843   3.694   2.428 -0.2057  0.6758  2.0378
 1018TIP3   OH224468   1.114   6.094  15.796  0.2038 -0.5072 -0.1417
 1018TIP3    H124469   1.131   6.179  15.755 -2.4140 -0.1662 -0.6502
 1018TIP3    H224470   1.168   6.032  15.747  1.4987  0.7108 -0.3110
 1019TIP3   OH224471   1.140   0.532   2.525 -0.3299 -0.6562  0.2483
 1019TIP3    H124472   1.194   0.570   2.594 -3.2783  2.1397  1.2586
 1019TIP3    H224473   1.166   0.578   2.446  0.1998 -0.8575  0.3022
 1020TIP3   OH224474   3.996   3.933   3.622 -0.1385  0.6672  0.2079
 1020TIP3    H124475   3.942   3.951   3.699 -1.8760  0.2885 -0.8602
 1020TIP3    H224476   3.945   3.968   3.549  0.2908 -1.1369 -1.0147
 1021TIP3   OH224477   3.556   1.940   0.634 -0.1925  0.5012 -0.4784
 1021TIP3    H124478   3.566   2.009   0.701  0.4692  0.8334 -0.9120
 1021TIP3    H224479   3.522   1.865   0.683  0.4871  0.6714  0.2808
 1022TIP3   OH224480   5.250   1.695   0.697  0.0568  0.5806 -0.2613
 1022TIP3    H124481   5.177   1.748   0.664 -0.4327  0.9773  1.3578
 1022TIP3    H224482   5.229   1.680   0.789  1.9005  0.4897  0.1841
 1023TIP3   OH224483   0.270   1.599  15.150 -0.5329 -0.7864  0.1663
 1023TIP3    H124484   0.311   1.543  15.083 -1.0465  0.7844 -1.5577
 1023TIP3    H224485   0.341   1.657  15.178 -0.7774 -0.1217 -0.5381
 1024TIP3   OH224486   1.195   4.345  13.613  0.3067  0.3848  0.6828
 1024TIP3    H124487   1.213   4.259  13.653 -1.5027 -1.0915 -1.4550
 1024TIP3    H224488   1.252   4.348  13.537 -1.1694  0.0338 -0.4948
 1025TIP3   OH224489   5.037   2.246  11.222 -0.1639  0.5412 -0.3079
 1025TIP3    H124490   5.059   2.229  11.130 -0.3220 -0.1910 -0.2234
 1025TIP3    H224491   4.944   2.222  11.229  0.1964 -0.7659  0.3425
 1026TIP3   OH224492   0.529   2.590  14.390 -0.0663 -1.0994 -0.0209
 1026TIP3    H124493   0.593   2.646  14.346  0.2447 -2.2795 -1.1326
 1026TIP3    H224494   0.561   2.582  14.479 -0.2598  0.6806  0.2445
 1027TIP3   OH224495   4.039   4.536  11.915  0.2060  0.0744  0.2443
 1027TIP3    H124496   3.987   4.495  11.846  0.4248 -0.2546  0.2727
 1027TIP3    H224497   3.979   4.545  11.989  0.2986 -0.7039  0.4252
 1028TIP3   OH224498   2.081   0.775   1.380 -0.0351  0.5504  0.3296
 1028TIP3    H124499   2.001   0.807   1.423 -0.6260  0.4477 -0.6485
 1028TIP3    H224500   2.136   0.853   1.372 -1.0779  1.2036 -1.1866
 1029TIP3   OH224501   4.840   1.047   4.303  0.0196  0.2961 -0.3002
 1029TIP3    H124502   4.920   1.076   4.259 -0.4755  2.6866  0.2405
 1029TIP3    H224503   4.869   1.026   4.392  0.0058  1.4962 -0.0040
 1030TIP3   OH224504   0.426   4.370   0.428  0.3117  0.4017 -0.0920
 1030TIP3    H124505   0.507   4.401   0.469  0.4753  0.0591 -0.1527
 1030TIP3    H224506   0.361   4.372   0.499  1.4360 -3.8203  1.3555
 1031TIP3   OH224507   0.941   5.811   3.554  0.1836 -0.3119 -0.3039
 1031TIP3    H124508   0.848   5.804   3.534 -0.2047  2.3994  0.2071
 1031TIP3    H224509   0.946   5.794   3.648  0.4928 -2.1857 -0.6268
 1032TIP3   OH224510   5.884   6.543   4.137 -0.0823 -0.2186 -0.2809
 1032TIP3    H124511   5.873   6.558   4.043  0.7961 -0.9667 -0.5242
 1032TIP3    H224512   5.948   6.609   4.164 -0.1395 -0.1713 -0.2597
 1033TIP3   OH224513   3.613   0.739  11.931 -0.5056  0.5174 -0.3560
 1033TIP3    H124514   3.695   0.691  11.916  0.7010  1.9487  1.1764
 1033TIP3    H224515   3.635   0.830  11.910 -1.2369  1.1547  1.4440
 1034TIP3   OH224516   4.946   6.015  16.031 -0.0858 -0.5695  0.1666
 1034TIP3    H124517   4.997   5.962  15.970  0.2253 -1.7585  1.4061
 1034TIP3    H224518   4.925   6.095  15.982  1.0071 -1.0416 -1.1347
 1035TIP3   OH224519   2.546   2.333   2.971  0.0234  0.0214 -0.1449
 1035TIP3    H124520   2.554   2.301   3.061  0.8750  0.6204 -0.0009
 1035TIP3    H224521   2.547   2.254   2.917 -2.4345 -0.5108  0.4560
 1036TIP3   OH224522   2.076   2.704   4.045 -0.1964 -0.0940  0.5573
 1036TIP3    H124523   2.130   2.770   4.088 -0.2159 -0.4364  1.1136
 1036TIP3    H224524   1.986   2.727   4.069 -0.4146  1.0995 -1.2167
 1037TIP3   OH224525   5.290   4.617  12.922  0.1882 -0.1891  0.0577
 1037TIP3    H124526   5.306   4.687  12.986 -0.4065 -0.5861  0.6613
 1037TIP3    H224527   5.249   4.547  12.974 -0.7864 -0.3128 -0.8538
 1038TIP3   OH224528   1.966   2.080  15.995 -0.5091 -0.2863  0.4604
 1038TIP3    H124529   1.960   1.989  16.025 -2.6304 -0.1127  0.7447
 1038TIP3    H224530   1.947   2.076  15.902  0.7815 -0.2690  0.1915
 1039TIP3   OH224531   1.888   6.758   5.824 -0.1253  0.3074  0.6650
 1039TIP3    H124532   1.894   6.717   5.738  0.3276 -0.0009  0.8408
 1039TIP3    H224533   1.794   6.762   5.842 -0.1806 -1.2375  0.9113
 1040TIP3   OH224534   2.839   2.839  16.347 -0.6547 -0.4726 -0.2370
 1040TIP3    H124535   2.761   2.818  16.399  0.9777 -2.2069  1.6951
 1040TIP3    H224536   2.871   2.754  16.316  1.1779  0.0493  0.1155
 1041TIP3   OH224537   2.910   5.699  13.279  0.4760  0.1860 -0.2628
 1041TIP3    H124538   2.945   5.611  13.266  0.8268  0.3241 -0.2581
 1041TIP3    H224539   2.935   5.722  13.369 -1.3041 -0.4762  0.4443
 1042TIP3   OH224540   0.621   1.011  11.370  0.0585 -0.1067 -0.8793
 1042TIP3    H124541   0.687   0.961  11.322  0.7557  0.1281 -0.2042
 1042TIP3    H224542   0.596   0.954  11.443  1.6099  0.8595  0.4930
 1043TIP3   OH224543   0.559   3.246   4.335 -0.6990  0.6153 -0.0182
 1043TIP3    H124544   0.528   3.333   4.307 -2.2033 -0.7686 -3.1845
 1043TIP3    H224545   0.615   3.264   4.410  0.5507  4.5397 -1.5956
 1044TIP3   OH224546   3.876   3.802  15.688 -0.2252  0.5205 -0.9815
 1044TIP3    H124547   3.887   3.863  15.760  0.7498 -1.5219  0.7122
 1044TIP3    H224548   3.957   3.810  15.637  1.8112 -1.9897  1.4958
 1045TIP3   OH224549   5.325   3.330  16.373 -0.2023 -0.9614 -0.6215
 1045TIP3    H124550   5.294   3.357  16.459 -0.2592  0.3843 -1.0393
 1045TIP3    H224551   5.401   3.274  16.390  0.3008 -0.0187  0.2802
 1046TIP3   OH224552   1.474   5.466   4.637 -0.1605 -0.0476 -0.7606
 1046TIP3    H124553   1.564   5.499   4.633 -0.3362  0.5356 -0.1516
 1046TIP3    H224554   1.453   5.442   4.546 -0.5334  3.0112 -1.6107
 1047TIP3   OH224555   1.223   5.086  13.151 -0.2954  0.2264  0.2097
 1047TIP3    H124556   1.195   5.153  13.213  1.4653  2.7163 -1.4684
 1047TIP3    H224557   1.294   5.041  13.195 -0.8733  0.0988  1.0210
 1048TIP3   OH224558   3.844   5.842   1.882  1.0566 -0.3655 -0.0765
 1048TIP3    H124559   3.825   5.755   1.917  1.9168 -0.1098  1.0653
 1048TIP3    H224560   3.936   5.858   1.902  0.4463  1.6081  1.5450
 1049TIP3   OH224561   1.880   1.485   1.326 -0.6282  0.3128  0.2321
 1049TIP3    H124562   1.821   1.519   1.259 -1.3901 -0.8338  0.2890
 1049TIP3    H224563   1.826   1.480   1.405 -0.7161 -1.4824  0.0972
 1050TIP3   OH224564   3.796   3.424   1.103  0.2441 -0.3397  0.4932
 1050TIP3    H124565   3.855   3.500   1.106  0.1163 -0.2520  0.7467
 1050TIP3    H224566   3.712   3.459   1.074  0.7511 -0.7354 -1.6166
 1051TIP3   OH224567   3.128   0.668  15.303  0.1204  0.2057  0.5408
 1051TIP3    H124568   3.161   0.608  15.370 -0.7617  0.4646  1.2298
 1051TIP3    H224569   3.151   0.755  15.336 -3.1467  0.5829  2.2547
 1052TIP3   OH224570   0.771   2.097  13.095 -0.0830  0.0772 -0.1558
 1052TIP3    H124571   0.860   2.111  13.062  1.1051  1.3349  3.1428
 1052TIP3    H224572   0.720   2.168  13.055  0.5116 -0.2731 -1.5923
 1053TIP3   OH224573   6.664   5.593   0.737 -0.6812  0.3626  0.0265
 1053TIP3    H124574   6.669   5.515   0.682 -0.6079  0.5393 -0.2167
 1053TIP3    H224575   6.753   5.628   0.737 -0.5691  0.0966  0.6480
 1054TIP3   OH224576   2.399   3.565  10.559 -0.1142  0.1042 -0.8724
 1054TIP3    H124577   2.493   3.565  10.544  0.4572  0.5872  2.1331
 1054TIP3    H224578   2.378   3.475  10.583 -0.6034 -0.1772 -2.2581
 1055TIP3   OH224579   2.205   3.094   0.689 -0.4962  0.7475  0.4020
 1055TIP3    H124580   2.212   3.119   0.781  1.4018  0.0049  0.5136
 1055TIP3    H224581   2.213   2.998   0.689  1.4471  0.8542 -0.6209
 1056TIP3   OH224582   2.856   4.664   1.957  0.2555  0.1906  0.5711
 1056TIP3    H124583   2.882   4.702   1.873 -0.2144 -0.5783  0.0661
 1056TIP3    H224584   2.819   4.738   2.006  2.6902  1.1723  1.0589
 1057TIP3   OH224585   1.418   4.937   3.816  0.4026 -0.0504 -0.7023
 1057TIP3    H124586   1.457   4.994   3.882  1.1408 -0.8301 -0.4386
 1057TIP3    H224587   1.332   4.914   3.851  0.1693  0.7456 -0.7324
 1058TIP3   OH224588   6.085   2.501   5.073  0.0589 -0.4532 -0.5440
 1058TIP3    H124589   6.100   2.408   5.058  4.0345 -0.1111  0.2092
 1058TIP3    H224590   6.052   2.506   5.163  1.0003 -1.1186 -0.1420
 1059TIP3   OH224591   1.747   1.020  13.390  0.2286  0.0480 -0.1564
 1059TIP3    H124592   1.802   1.095  13.415  0.0489  0.2564 -0.3822
 1059TIP3    H224593   1.746   0.964  13.467 -0.4066  0.7368  0.3486
 1060TIP3   OH224594   1.433   5.289  15.898 -0.2804  0.3686 -0.0877
 1060TIP3    H124595   1.339   5.298  15.911 -0.1783 -0.4780  1.5318
 1060TIP3    H224596   1.470   5.301  15.986  0.7368 -3.7142  0.2335
 1061TIP3   OH224597   5.816   3.269  10.824  0.3012 -0.2210 -0.0079
 1061TIP3    H124598   5.910   3.269  10.806  0.4049 -0.7798  0.5053
 1061TIP3    H224599   5.782   3.194  10.775  0.2249 -0.3878  0.2986
 1062TIP3   OH224600   1.605   3.593   3.291 -0.8439 -0.1918 -0.4353
 1062TIP3    H124601   1.591   3.680   3.253  3.1099  0.5543 -0.5342
 1062TIP3    H224602   1.647   3.610   3.375  3.3014 -1.8397 -1.9326
 1063TIP3   OH224603   0.156   2.757   4.431 -0.4639  0.2061  0.0378
 1063TIP3    H124604   0.204   2.812   4.369 -0.1843  0.3596  0.3904
 1063TIP3    H224605   0.223   2.723   4.490 -0.3622 -1.8575 -1.1486
 1064TIP3   OH224606   3.554   0.325  15.929  0.1517  0.1121  0.5609
 1064TIP3    H124607   3.522   0.243  15.966  1.1761  0.7817  3.0884
 1064TIP3    H224608   3.649   0.318  15.934  0.3456  0.4992 -1.5192
 1065TIP3   OH224609   2.465   2.648  13.825 -0.2634  0.2136  0.1245
 1065TIP3    H124610   2.535   2.685  13.771 -1.1141 -0.1949 -1.3120
 1065TIP3    H224611   2.510   2.588  13.884  0.5405 -0.6851 -1.3498
 1066TIP3   OH224612   6.364   0.124  16.934  1.4092 -0.0909 -0.3216
 1066TIP3    H124613   6.339   0.210  16.900  0.7751  0.4622  1.3869
 1066TIP3    H224614   6.365   0.136  17.029  3.3183 -1.4531 -0.1103
 1067TIP3   OH224615   1.252   4.697   1.005 -0.2806 -0.3960 -0.3299
 1067TIP3    H124616   1.210   4.663   0.926 -1.6352 -1.2350  0.7162
 1067TIP3    H224617   1.310   4.625   1.033 -1.4422 -0.9822  0.6264
 1068TIP3   OH224618   1.581   3.358  14.515  0.5057  0.1702 -0.3017
 1068TIP3    H124619   1.616   3.278  14.555  1.7147  0.2383 -1.1718
 1068TIP3    H224620   1.536   3.327  14.437  1.8205  0.4067 -1.1736
 1069TIP3   OH224621   3.566   2.751  15.098  0.3593 -0.1302  0.2087
 1069TIP3    H124622   3.482   2.778  15.061  0.0227 -0.0829  0.9755
 1069TIP3    H224623   3.631   2.800  15.048 -0.1228  0.4844  0.1731
 1070TIP3   OH224624   0.236   1.511   3.627 -0.4015  0.6051  0.1100
 1070TIP3    H124625   0.173   1.522   3.698 -0.3617 -1.0426  0.4552
 1070TIP3    H224626   0.304   1.453   3.663  0.2003  0.6318 -0.9164
 1071TIP3   OH224627   6.570   4.153  15.083 -0.1533  0.3912  0.0793
 1071TIP3    H124628   6.504   4.089  15.111 -0.9636  1.0463 -0.2756
 1071TIP3    H224629   6.643   4.140  15.143 -0.9894  0.2852  1.1119
 1072TIP3   OH224630   2.922   2.105  16.925 -0.7453  0.5811 -0.2893
 1072TIP3    H124631   2.881   2.068  16.846 -0.6088 -1.2276  0.4414
 1072TIP3    H224632   3.014   2.080  16.918 -0.5565  1.1643  0.0410
 1073TIP3   OH224633   2.687   5.260   1.884 -0.1174  0.1065 -0.3236
 1073TIP3    H124634   2.711   5.179   1.838 -1.9411 -1.2440  0.9848
 1073TIP3    H224635   2.649   5.230   1.966  0.8251  2.3901  1.0153
 1074TIP3   OH224636   4.939   4.554   3.354  0.1493  0.6022  0.3522
 1074TIP3    H124637   4.850   4.586   3.339 -0.0835 -0.4110 -0.5399
 1074TIP3    H224638   4.952   4.564   3.449 -0.5880  1.5527  0.3681
 1075TIP3   OH224639   0.905   4.853   1.369 -0.2364  0.3295 -0.0386
 1075TIP3    H124640   0.984   4.806   1.342 -0.2814 -0.3775  0.9852
 1075TIP3    H224641   0.847   4.785   1.403 -0.6604  1.0121  0.6478
 1076TIP3   OH224642   3.229   6.613   4.216 -0.1501 -0.1596 -0.5455
 1076TIP3    H124643   3.241   6.585   4.306  0.8881  0.4122 -0.4892
 1076TIP3    H224644   3.219   6.708   4.222 -1.2629 -0.2332 -0.9383
 1077TIP3   OH224645   2.986   4.503  16.025 -0.4420 -0.4353 -0.6380
 1077TIP3    H124646   3.045   4.492  16.100 -1.1399 -2.6626 -0.3127
 1077TIP3    H224647   2.899   4.487  16.062 -0.9228 -0.2739 -1.6849
 1078TIP3   OH224648   1.168   4.070  16.068 -0.1240 -0.7024 -0.6634
 1078TIP3    H124649   1.146   3.978  16.053 -0.6077 -0.4660 -1.5134
 1078TIP3    H224650   1.090   4.107  16.109 -0.5877 -0.3148 -1.8400
 1079TIP3   OH224651   2.681   0.343  16.586 -0.5753 -0.0297  0.1631
 1079TIP3    H124652   2.595   0.339  16.545 -0.4684  3.5283 -0.7331
 1079TIP3    H224653   2.742   0.322  16.514 -0.5311 -3.6838  1.0447
 1080TIP3   OH224654   5.306   3.635  16.578 -0.6521  0.2514 -0.1774
 1080TIP3    H124655   5.343   3.712  16.536 -1.5163 -0.4641 -2.3869
 1080TIP3    H224656   5.215   3.657  16.593 -1.3532 -0.8124 -2.3477
 1081TIP3   OH224657   3.837   1.116  12.354  0.6828  0.0469  0.0909
 1081TIP3    H124658   3.769   1.084  12.413  2.7860  0.3455  2.8678
 1081TIP3    H224659   3.883   1.038  12.325  0.7256  0.0116  0.2530
 1082TIP3   OH224660   4.767   1.750  15.280  0.2417 -0.3528  0.1132
 1082TIP3    H124661   4.794   1.692  15.352  1.0146 -0.1246  0.0144
 1082TIP3    H224662   4.841   1.808  15.267 -0.4688  0.5798  0.1100
 1083TIP3   OH224663   0.019   1.861  11.156 -0.5065 -0.0881 -0.1838
 1083TIP3    H124664   0.079   1.795  11.191 -1.1091  0.6811  2.5550
 1083TIP3    H224665   0.076   1.922  11.110  0.5710 -0.4629  0.5995
 1084TIP3   OH224666   5.477   6.649   2.149  0.2558  0.1331  0.2416
 1084TIP3    H124667   5.537   6.591   2.103 -1.6474 -1.7185 -0.1061
 1084TIP3    H224668   5.392   6.634   2.107 -0.2194  3.9568 -0.4922
 1085TIP3   OH224669   2.484   2.983  13.201  0.6587  0.5355 -0.3741
 1085TIP3    H124670   2.505   3.075  13.182  0.3832  0.6665 -0.0573
 1085TIP3    H224671   2.527   2.966  13.285  0.0637  0.6035 -0.0562
 1086TIP3   OH224672   5.160   5.898   1.935 -0.4270 -0.6596  0.6274
 1086TIP3    H124673   5.200   5.951   1.866  1.1596 -2.5766 -0.0317
 1086TIP3    H224674   5.071   5.882   1.905 -0.1356 -0.4497 -0.3905
 1087TIP3   OH224675   2.200   0.520   5.780 -0.1878  0.4854  0.0561
 1087TIP3    H124676   2.151   0.589   5.825 -0.5421  0.6755 -0.6041
 1087TIP3    H224677   2.262   0.487   5.845  0.0867  1.5291  0.3363
 1088TIP3   OH224678   2.187   4.880   0.764 -0.2228  0.6817  0.4129
 1088TIP3    H124679   2.119   4.845   0.706 -0.5357  1.4189  0.3313
 1088TIP3    H224680   2.159   4.855   0.852 -0.8172  1.3272  0.4158
 1089TIP3   OH224681   0.552   5.923  13.688 -0.1141  0.1514 -0.6584
 1089TIP3    H124682   0.569   5.909  13.782 -2.2268 -1.8952 -0.5131
 1089TIP3    H224683   0.464   5.959  13.684  0.1458  0.7148 -1.8707
 1090TIP3   OH224684   5.280   1.835  12.882 -0.6240  0.2773  0.1747
 1090TIP3    H124685   5.229   1.888  12.944 -0.3588  0.5719  0.1448
 1090TIP3    H224686   5.264   1.745  12.908 -1.4501  0.3486 -0.0559
 1091TIP3   OH224687   3.199   4.737   1.540  0.4794  0.0042  0.9924
 1091TIP3    H124688   3.125   4.678   1.522  1.2406 -0.2177 -1.9407
 1091TIP3    H224689   3.277   4.682   1.526  1.1841  1.2447 -0.1738
 1092TIP3   OH224690   5.248   0.245  12.679  0.2304 -0.5401  0.1427
 1092TIP3    H124691   5.225   0.209  12.593  0.0036 -0.7991  0.3114
 1092TIP3    H224692   5.170   0.291  12.708  1.1988  2.1236 -1.0853
 1093TIP3   OH224693   1.088   4.133   4.991 -0.0176  0.2253  0.5171
 1093TIP3    H124694   1.029   4.200   4.956 -1.1172 -1.2884 -0.6652
 1093TIP3    H224695   1.085   4.062   4.927  0.9074 -1.0658  1.8399
 1094TIP3   OH224696   0.554   1.577   5.376  0.0371 -0.3380 -0.4794
 1094TIP3    H124697   0.643   1.566   5.342  0.2951 -1.6708  0.5474
 1094TIP3    H224698   0.553   1.529   5.459 -1.4147  0.3417 -0.0643
 1095TIP3   OH224699   2.578   5.186  11.909  0.0975 -0.0021  0.0509
 1095TIP3    H124700   2.645   5.164  11.845 -0.4774 -0.6651 -0.3371
 1095TIP3    H224701   2.505   5.127  11.889 -0.4108  0.3606  0.7800
 1096TIP3   OH224702   2.040   5.623   4.735  0.1432 -0.0754  0.2073
 1096TIP3    H124703   2.006   5.706   4.767 -1.5067 -0.8479  0.5646
 1096TIP3    H224704   1.969   5.585   4.684  1.2166 -0.8327 -0.7697
 1097TIP3   OH224705   2.801   6.541   5.059  1.0653  0.0240 -0.2454
 1097TIP3    H124706   2.878   6.595   5.077  0.8763  0.2014  0.0267
 1097TIP3    H224707   2.828   6.452   5.081  0.9219  0.2008  0.6542
 1098TIP3   OH224708   1.895   5.651  16.635  0.0451 -0.1940  0.2831
 1098TIP3    H124709   1.846   5.569  16.625  0.6979 -0.5902  0.2553
 1098TIP3    H224710   1.834   5.719  16.607 -0.8550 -0.5684  1.2638
 1099TIP3   OH224711   5.080   3.289   1.584 -0.4976  0.4645  0.4574
 1099TIP3    H124712   5.008   3.331   1.537 -1.4421 -1.7485 -0.2316
 1099TIP3    H224713   5.122   3.232   1.519  0.5822  0.1767  1.3651
 1100TIP3   OH224714   0.401   2.006   1.321  0.0585 -0.2255  0.1993
 1100TIP3    H124715   0.425   2.001   1.413  1.7365 -0.5339 -0.2217
 1100TIP3    H224716   0.324   2.063   1.319  0.5111  0.4819  1.6954
 1101TIP3   OH224717   0.526   4.078   4.163 -0.5517 -0.3916  0.3525
 1101TIP3    H124718   0.451   4.123   4.200  1.0618  2.0339  0.9131
 1101TIP3    H224719   0.583   4.060   4.238  1.3236  1.7453 -0.4438
 1102TIP3   OH224720   0.435   0.863   2.903 -0.4259  0.0867 -0.1476
 1102TIP3    H124721   0.472   0.930   2.846  1.8342 -1.8034 -1.0306
 1102TIP3    H224722   0.453   0.894   2.992  2.3285 -0.1633 -0.5481
 1103TIP3   OH224723   6.490   4.956  16.636  0.0084 -0.0851  0.3352
 1103TIP3    H124724   6.549   4.881  16.641  0.2532  0.1213  0.6012
 1103TIP3    H224725   6.416   4.925  16.584 -0.4036 -0.8578  1.3354
 1104TIP3   OH224726   5.661   0.218   1.430  0.2281 -0.4892  0.5588
 1104TIP3    H124727   5.686   0.178   1.347  0.6050 -1.0678  0.9417
 1104TIP3    H224728   5.734   0.198   1.489 -0.5238 -1.0240  1.3224
 1105TIP3   OH224729   1.747   2.883  11.588  0.3289  0.0911  0.1836
 1105TIP3    H124730   1.682   2.902  11.521 -0.8700  1.1887  1.6113
 1105TIP3    H224731   1.780   2.968  11.616  2.3464 -0.4294 -0.4200
 1106TIP3   OH224732   5.937   0.475   1.878 -0.5324  0.2465  0.1447
 1106TIP3    H124733   5.883   0.507   1.951 -0.7301  0.5707 -0.1438
 1106TIP3    H224734   5.984   0.553   1.848 -1.1610  0.3143 -0.6915
 1107TIP3   OH224735   2.843   5.786  15.458 -0.2642  0.1398 -0.1033
 1107TIP3    H124736   2.827   5.696  15.487  2.4856 -0.8597 -1.3112
 1107TIP3    H224737   2.845   5.837  15.539 -2.3074 -0.7558  0.5771
 1108TIP3   OH224738   0.303   2.593   0.331 -0.4197  0.0606 -0.5057
 1108TIP3    H124739   0.362   2.599   0.255 -0.1773  0.6969 -0.2740
 1108TIP3    H224740   0.329   2.666   0.387  0.0245 -0.9509  0.6458
 1109TIP3   OH224741   1.102   2.373  13.953  0.0996 -0.3178  0.1411
 1109TIP3    H124742   1.042   2.305  13.923  0.7040 -0.3905 -0.9594
 1109TIP3    H224743   1.174   2.325  13.994 -0.0470 -0.2857  0.4364
 1110TIP3   OH224744   1.266   1.203   1.057 -0.1215  0.1528 -0.3517
 1110TIP3    H124745   1.343   1.250   1.026 -0.2253  0.6777  0.1595
 1110TIP3    H224746   1.274   1.116   1.019 -0.0136  0.6310 -1.4629
 1111TIP3   OH224747   1.119   2.952  11.530  0.2717  0.3277 -0.6742
 1111TIP3    H124748   1.102   2.951  11.436 -1.5200 -1.3736 -0.3961
 1111TIP3    H224749   1.070   3.029  11.562  1.2145  1.1470 -1.1471
 1112TIP3   OH224750   2.805   2.017   2.987 -0.0024  0.0923  0.5024
 1112TIP3    H124751   2.809   1.921   2.993 -2.7762 -0.3135 -1.6924
 1112TIP3    H224752   2.872   2.040   2.924 -1.1813 -0.8277 -1.1720
 1113TIP3   OH224753   5.091   6.270  11.426  0.2528 -0.1361 -0.0269
 1113TIP3    H124754   5.025   6.216  11.469  0.8351  0.0547  1.1352
 1113TIP3    H224755   5.049   6.355  11.415  0.4957  0.1607  1.2531
 1114TIP3   OH224756   1.851   1.901   2.779 -0.4286  0.2983  1.0265
 1114TIP3    H124757   1.829   1.951   2.858 -0.5808  0.4217  0.9054
 1114TIP3    H224758   1.805   1.945   2.709  0.7659  0.9856  0.6529
 1115TIP3   OH224759   2.211   2.154  12.835 -0.2759 -0.6710 -0.3010
 1115TIP3    H124760   2.181   2.240  12.864 -1.5303 -1.1957 -0.0011
 1115TIP3    H224761   2.180   2.147  12.745 -0.7165 -1.0579 -0.1203
 1116TIP3   OH224762   1.273   3.856  15.686  0.2800 -0.0328 -0.3614
 1116TIP3    H124763   1.351   3.802  15.695 -0.3653 -1.3120 -1.8353
 1116TIP3    H224764   1.228   3.820  15.609 -2.0435  0.2771  0.7599
 1117TIP3   OH224765   6.019   4.169   0.909  0.7079  0.1822  0.4969
 1117TIP3    H124766   6.098   4.134   0.868  0.2843  0.6437 -0.7495
 1117TIP3    H224767   6.003   4.110   0.983  0.7895 -1.4436 -0.7286
 1118TIP3   OH224768   0.394   6.316  14.611  0.6227 -0.0799 -0.7458
 1118TIP3    H124769   0.415   6.368  14.689 -0.4421  1.0527 -1.1765
 1118TIP3    H224770   0.452   6.350  14.543 -0.2969  0.8202 -1.1117
 1119TIP3   OH224771   5.385   0.807  17.119 -0.1937 -0.4103  0.1139
 1119TIP3    H124772   5.421   0.751  17.188 -0.2201  0.0706  0.5155
 1119TIP3    H224773   5.391   0.895  17.154 -2.2897 -0.3507  0.4233
 1120TIP3   OH224774   6.218   0.536   2.029 -0.0475 -0.2652 -0.7139
 1120TIP3    H124775   6.188   0.580   1.948 -0.0978 -0.6056 -0.8807
 1120TIP3    H224776   6.287   0.477   1.999  0.3406  0.0383 -0.4212
 1121TIP3   OH224777   2.373   6.661   2.112  0.5834 -0.1341 -0.3140
 1121TIP3    H124778   2.352   6.712   2.191 -1.4444 -2.9597  1.1571
 1121TIP3    H224779   2.322   6.703   2.043 -0.8051  0.0629  0.7781
 1122TIP3   OH224780   1.586   5.949  13.409  0.3239  0.2698  0.0518
 1122TIP3    H124781   1.563   5.882  13.473  0.8854  0.3496  0.3395
 1122TIP3    H224782   1.636   6.013  13.458  1.0778  0.1531 -0.5410
 1123TIP3   OH224783   6.539   6.771   0.825 -0.4317 -0.1183  0.2727
 1123TIP3    H124784   6.587   6.778   0.908 -0.7416 -0.2291  0.4646
 1123TIP3    H224785   6.491   6.688   0.833  1.4259 -1.4034 -1.0098
 1124TIP3   OH224786   0.728   2.781   1.477 -0.3585  0.5832 -0.3263
 1124TIP3    H124787   0.717   2.836   1.555  0.2833  0.5439 -0.2066
 1124TIP3    H224788   0.776   2.705   1.508  0.7760  1.0280 -0.9569
 1125TIP3   OH224789   0.504   6.041   2.414 -0.3301 -0.3660  0.4140
 1125TIP3    H124790   0.567   6.036   2.342 -2.5108  0.4556 -1.6740
 1125TIP3    H224791   0.474   5.951   2.426 -0.0712 -0.4849  0.1790
 1126TIP3   OH224792   6.484   4.011   2.949  0.1104 -0.0871  0.8486
 1126TIP3    H124793   6.396   3.985   2.975 -0.0214 -1.3469 -0.6973
 1126TIP3    H224794   6.519   3.935   2.902  1.2994  1.0706 -0.2492
 1127TIP3   OH224795   1.479   2.741  11.260 -0.1641  0.5332 -0.7049
 1127TIP3    H124796   1.413   2.732  11.191  1.2712 -0.0665 -2.0544
 1127TIP3    H224797   1.559   2.765  11.214  0.4862  1.7088  0.9457
 1128TIP3   OH224798   2.894   4.118  10.634  0.5638  0.1477 -0.2989
 1128TIP3    H124799   2.942   4.194  10.667 -1.0788  1.0362  0.1633
 1128TIP3    H224800   2.858   4.147  10.551  1.9407 -0.9846 -1.3352
 1129TIP3   OH224801   3.169   2.251   1.987 -0.4435 -0.0793 -0.3089
 1129TIP3    H124802   3.239   2.305   2.023 -0.0612 -0.6681 -0.1594
 1129TIP3    H224803   3.133   2.204   2.062 -0.8936  0.1008 -0.4085
 1130TIP3   OH224804   3.575   4.396  15.574 -0.3418 -0.5073 -0.0235
 1130TIP3    H124805   3.644   4.450  15.536 -0.1346 -1.4310 -1.0046
 1130TIP3    H224806   3.500   4.407  15.516 -0.4243 -0.9485 -0.0065
 1131TIP3   OH224807   1.961   4.555   4.205 -0.3017  0.1737  0.4268
 1131TIP3    H124808   1.980   4.575   4.113  0.4021 -2.5787 -0.1332
 1131TIP3    H224809   1.878   4.506   4.201 -0.6280  0.6423  1.3459
 1132TIP3   OH224810   6.167   2.674  11.859 -0.1255 -0.1402 -0.5745
 1132TIP3    H124811   6.235   2.728  11.900  0.1678 -2.1473  1.8296
 1132TIP3    H224812   6.099   2.736  11.834  0.7575  1.4887  0.8590
 1133TIP3   OH224813   3.689   0.026  17.272  0.1004  0.3431  0.3813
 1133TIP3    H124814   3.712   0.089  17.204  1.0689  1.0048  1.2820
 1133TIP3    H224815   3.773  -0.007  17.304 -0.3485 -0.2923  0.9349
 1134TIP3   OH224816   3.974   3.151  15.471 -0.4777  0.2453 -0.0892
 1134TIP3    H124817   4.011   3.174  15.386  0.6236  2.0690  0.8279
 1134TIP3    H224818   4.008   3.063  15.489  0.7531  0.5661 -0.7525
 1135TIP3   OH224819   1.489   2.505  13.240  0.6522 -0.1156  0.3986
 1135TIP3    H124820   1.457   2.592  13.263  1.8021  0.8327 -1.3143
 1135TIP3    H224821   1.583   2.517  13.227  1.1752 -2.0581  1.9772
 1136TIP3   OH224822   4.674   2.092  11.675 -0.2409 -0.0801  0.3273
 1136TIP3    H124823   4.721   2.009  11.683 -0.2065 -0.1558 -0.6257
 1136TIP3    H224824   4.742   2.159  11.683 -0.2480 -0.1336  0.9350
 1137TIP3   OH224825   2.354   3.519  14.364  0.3445 -0.5684 -0.0386
 1137TIP3    H124826   2.315   3.535  14.450 -1.2766  0.7033 -0.9598
 1137TIP3    H224827   2.338   3.426  14.348  0.7228 -0.8350  1.0409
 1138TIP3   OH224828   4.984   5.215  15.118 -0.3463  0.2814 -0.7683
 1138TIP3    H124829   5.062   5.239  15.068 -0.8319  2.1729 -0.7173
 1138TIP3    H224830   4.999   5.125  15.145  1.3306  0.2526 -1.6636
 1139TIP3   OH224831   0.494   2.074   4.994 -0.1852  0.2025 -0.4271
 1139TIP3    H124832   0.422   2.133   5.015 -0.6558 -0.1542 -1.0214
 1139TIP3    H224833   0.471   1.991   5.035  1.2749  0.8351  1.8629
 1140TIP3   OH224834   1.112   0.101  16.377 -0.5709  0.3148  0.0403
 1140TIP3    H124835   1.016   0.096  16.387 -1.0068 -0.2231 -3.1792
 1140TIP3    H224836   1.126   0.084  16.284  2.5260  2.6460 -0.0432
 1141TIP3   OH224837   1.908   2.263   3.154 -0.2479  0.5947 -0.3312
 1141TIP3    H124838   1.937   2.286   3.242  0.3631  0.3983 -0.4764
 1141TIP3    H224839   1.902   2.347   3.108 -1.7760  0.8252  0.2428
 1142TIP3   OH224840   1.451   2.127  13.566  0.1331  0.0207  0.4367
 1142TIP3    H124841   1.385   2.186  13.528 -0.3822 -1.4370 -1.0235
 1142TIP3    H224842   1.525   2.132  13.506 -0.6101 -2.1548 -0.7500
 1143TIP3   OH224843   2.525   2.721  11.574  0.1309  0.3627 -0.4573
 1143TIP3    H124844   2.499   2.766  11.493 -0.5943  2.3275  0.7866
 1143TIP3    H224845   2.620   2.714  11.569  0.1394  0.9398 -1.2370
 1144TIP3   OH224846   3.965   4.443   3.766  0.1479 -0.4338  0.4131
 1144TIP3    H124847   3.945   4.467   3.857  1.7074  0.9530  0.4276
 1144TIP3    H224848   4.040   4.385   3.772  0.3457 -0.2241  0.0044
 1145TIP3   OH224849   5.602   0.717  13.254 -0.2620  0.5330 -0.3714
 1145TIP3    H124850   5.546   0.728  13.177 -1.8540  1.5554  0.8697
 1145TIP3    H224851   5.620   0.623  13.257 -0.6278  0.4098 -1.6751
 1146TIP3   OH224852   2.716   0.382  14.217 -0.3832 -0.3134 -0.0761
 1146TIP3    H124853   2.733   0.471  14.184 -1.3077  0.1537  0.6559
 1146TIP3    H224854   2.623   0.368  14.200  0.0851 -1.7821 -1.6173
 1147TIP3   OH224855   4.088   3.545  14.776  0.0986 -0.4147  0.4383
 1147TIP3    H124856   4.090   3.483  14.849 -0.4542  0.9307  1.6712
 1147TIP3    H224857   4.163   3.603  14.792  1.1871 -1.2909 -1.2254
 1148TIP3   OH224858   1.142   5.293  14.153 -0.2420 -0.4582  0.3392
 1148TIP3    H124859   1.236   5.312  14.158 -0.1062 -1.4057  2.2491
 1148TIP3    H224860   1.131   5.246  14.070  0.3166  2.6683 -1.7031
 1149TIP3   OH224861   0.611   4.656  12.481 -0.0966  0.2337 -0.5005
 1149TIP3    H124862   0.529   4.637  12.436 -0.1326 -1.5109  0.2608
 1149TIP3    H224863   0.677   4.652  12.412 -0.3418 -0.9093 -0.6832
 1150TIP3   OH224864   1.211   3.835  13.777  0.3680  0.1560 -0.2574
 1150TIP3    H124865   1.277   3.798  13.835  0.4132  0.0839 -0.3552
 1150TIP3    H224866   1.129   3.791  13.801  0.3787  0.1570 -0.2196
 1151TIP3   OH224867   5.191   2.855  14.811  0.4505 -0.0989 -0.0344
 1151TIP3    H124868   5.256   2.903  14.760  0.4801  0.2964  0.3621
 1151TIP3    H224869   5.168   2.780  14.757  2.7926 -1.4367  0.6531
 1152TIP3   OH224870   6.258   4.958   2.780  0.1669 -0.3282  0.0444
 1152TIP3    H124871   6.344   4.998   2.761  0.8629 -1.2207  1.1799
 1152TIP3    H224872   6.273   4.864   2.768 -0.8379 -0.4420 -0.3654
 1153TIP3   OH224873   1.625   4.128   3.173 -0.0570 -0.3448  0.8499
 1153TIP3    H124874   1.579   4.139   3.256  0.1192 -1.2079  1.0707
 1153TIP3    H224875   1.714   4.157   3.192 -0.5900  1.8944  0.2664
 1154TIP3   OH224876   5.767   5.126   2.814  0.0851 -0.4854  0.2801
 1154TIP3    H124877   5.798   5.201   2.764  0.4661 -0.3476  0.7158
 1154TIP3    H224878   5.755   5.057   2.749 -2.1674  0.5002 -0.4537
 1155TIP3   OH224879   4.990   5.119  11.601  0.0327 -0.1593  0.2668
 1155TIP3    H124880   4.965   5.148  11.688  0.1460 -1.7711  0.8753
 1155TIP3    H224881   5.080   5.088  11.611 -0.5165 -1.9455  0.0113
 1156TIP3   OH224882   0.238   1.982   3.411 -0.2387  0.1447  0.6313
 1156TIP3    H124883   0.165   1.991   3.472  0.1421  0.5245  1.0392
 1156TIP3    H224884   0.198   1.952   3.329 -0.8130  0.1011  0.9253
 1157TIP3   OH224885   5.199   1.873  17.080  0.4449 -0.0844 -0.1609
 1157TIP3    H124886   5.213   1.906  17.169  1.0354  1.5092 -0.8196
 1157TIP3    H224887   5.121   1.919  17.050  0.9685  0.3227 -0.9101
 1158TIP3   OH224888   6.618   0.392  16.673 -0.1345 -0.0225 -0.1855
 1158TIP3    H124889   6.538   0.434  16.705 -0.1354  0.0268 -0.2521
 1158TIP3    H224890   6.657   0.353  16.751 -0.8283 -1.0530 -0.3262
 1159TIP3   OH224891   3.245   6.119  14.649 -0.2265 -0.0717  0.3333
 1159TIP3    H124892   3.227   6.087  14.561  0.6815 -0.4054  0.2543
 1159TIP3    H224893   3.334   6.154  14.645 -0.5318  0.8064  0.8821
 1160TIP3   OH224894   2.243   1.495  10.664  0.3757 -0.2043 -0.5511
 1160TIP3    H124895   2.227   1.588  10.653  2.1826  0.1815 -0.2172
 1160TIP3    H224896   2.281   1.467  10.581  0.6654 -0.4351 -0.3458
 1161TIP3   OH224897   3.932   3.824  15.999  0.2591 -0.0583  0.0150
 1161TIP3    H124898   3.997   3.782  15.943 -1.1818 -1.3756 -0.7596
 1161TIP3    H224899   3.886   3.884  15.940  0.1908  0.2108  0.3426
 1162TIP3   OH224900   5.048   5.661  11.508 -0.6682 -0.4257  0.6906
 1162TIP3    H124901   5.033   5.754  11.488 -1.2764 -0.7412 -0.3680
 1162TIP3    H224902   4.965   5.630  11.543 -0.4665 -0.5825  1.0394
 1163TIP3   OH224903   0.571   1.844  12.786  0.0151  0.2435  0.6873
 1163TIP3    H124904   0.636   1.803  12.843 -0.7731 -0.1827  1.3022
 1163TIP3    H224905   0.555   1.930  12.825  0.4365  0.4713  0.3588
 1164TIP3   OH224906   2.833   2.888  14.711  0.3352 -0.7166 -0.1989
 1164TIP3    H124907   2.873   2.926  14.633  0.8960  0.6372  0.6979
 1164TIP3    H224908   2.816   2.797  14.688  1.8479 -0.7399 -1.3870
 1165TIP3   OH224909   5.248   4.154  13.217 -0.0571 -0.4496 -0.3633
 1165TIP3    H124910   5.292   4.235  13.240  0.5407 -0.7343 -0.4896
 1165TIP3    H224911   5.198   4.176  13.138 -1.0956  0.1835  0.4472
 1166TIP3   OH224912   0.093   2.853   6.832  0.4336 -0.2527  0.2327
 1166TIP3    H124913   0.171   2.808   6.801  1.3034  0.8711  0.7241
 1166TIP3    H224914   0.121   2.943   6.847 -0.2449 -0.4119  3.0083
 1167TIP3   OH224915   6.158   6.753   2.253 -0.6363  0.0044 -0.3178
 1167TIP3    H124916   6.178   6.660   2.262  1.2159  0.1685 -2.0880
 1167TIP3    H224917   6.214   6.797   2.317 -0.8750 -0.0157 -0.0903
 1168TIP3   OH224918   3.746   0.599  16.054  0.3288 -0.4772 -0.0573
 1168TIP3    H124919   3.705   0.574  15.971 -0.5367  0.4425  0.0730
 1168TIP3    H224920   3.739   0.521  16.109  0.1437 -0.8207 -0.5643
 1169TIP3   OH224921   2.305   1.128   1.606 -0.0776 -0.5172 -0.0585
 1169TIP3    H124922   2.266   1.089   1.528 -0.6626  3.1780 -1.8248
 1169TIP3    H224923   2.238   1.122   1.673 -0.7406 -1.0596 -0.7599
 1170TIP3   OH224924   3.544   1.152   0.022 -0.3813  0.0893 -0.3828
 1170TIP3    H124925   3.484   1.078   0.014  1.3098 -1.3449 -0.3965
 1170TIP3    H224926   3.503   1.222  -0.029 -4.3529  0.8426  3.2710
 1171TIP3   OH224927   4.890   1.834  14.432  0.7171  0.7921 -0.4300
 1171TIP3    H124928   4.914   1.873  14.516  1.4871  0.8289 -0.6586
 1171TIP3    H224929   4.960   1.770  14.415  0.0897  0.1446 -0.6143
 1172TIP3   OH224930   6.127   6.120   5.697  0.4778  0.1418  0.0259
 1172TIP3    H124931   6.216   6.120   5.663  2.1377 -4.0818  3.4659
 1172TIP3    H224932   6.132   6.169   5.779  0.4819 -2.2362  1.5611
 1173TIP3   OH224933   3.788   3.912   2.085 -0.4144  0.8195  0.9807
 1173TIP3    H124934   3.714   3.904   2.145 -1.1592  0.2294  0.0166
 1173TIP3    H224935   3.835   3.990   2.114 -1.5720  1.3557  1.4414
 1174TIP3   OH224936   3.307   6.263  11.541  0.1807  0.1101  0.2227
 1174TIP3    H124937   3.260   6.180  11.530 -0.8763  0.4865  1.6585
 1174TIP3    H224938   3.267   6.304  11.617  2.2600  0.8879  0.9777
 1175TIP3   OH224939   5.705   2.303   1.403 -0.2257  0.0601  0.2859
 1175TIP3    H124940   5.674   2.373   1.345  0.1646  0.4939  0.5967
 1175TIP3    H224941   5.625   2.265   1.439 -0.4359  0.5628  0.3681
 1176TIP3   OH224942   1.645   1.223   3.237 -0.2508 -0.6429  0.4141
 1176TIP3    H124943   1.627   1.130   3.243 -2.1448 -0.3515  0.0899
 1176TIP3    H224944   1.712   1.230   3.168 -1.1735 -1.6698 -0.6359
 1177TIP3   OH224945   4.225   5.501  15.161  0.1476 -0.7122  0.4051
 1177TIP3    H124946   4.309   5.491  15.206  0.0075  1.3395  1.2263
 1177TIP3    H224947   4.162   5.516  15.231 -0.1546  2.0415 -0.3289
 1178TIP3   OH224948   3.929   1.812  12.692  0.3704  0.3416 -0.0580
 1178TIP3    H124949   3.961   1.767  12.614 -0.2926  0.4620 -0.4026
 1178TIP3    H224950   3.872   1.881  12.658  1.5717  1.6269  0.4401
 1179TIP3   OH224951   6.535   5.642   5.192  0.2310  0.3912 -0.0908
 1179TIP3    H124952   6.489   5.570   5.235 -0.7658  0.2547 -1.3350
 1179TIP3    H224953   6.551   5.705   5.262 -1.6561  0.3399  0.4450
 1180TIP3   OH224954   2.006   0.342   4.678 -0.3782  0.1109 -0.0587
 1180TIP3    H124955   1.957   0.420   4.704  1.9335  1.6613 -0.0563
 1180TIP3    H224956   2.003   0.285   4.754 -1.4396  0.5236  0.2297
 1181TIP3   OH224957   1.601   5.419   2.192  0.5471 -0.2310  0.1153
 1181TIP3    H124958   1.602   5.496   2.248  0.6681 -0.0014 -0.1962
 1181TIP3    H224959   1.560   5.449   2.111 -0.0069 -0.6614  0.2251
 1182TIP3   OH224960   6.384   5.651  11.732 -0.0959 -0.9207  0.0380
 1182TIP3    H124961   6.345   5.605  11.806  0.9031 -0.2941  0.9753
 1182TIP3    H224962   6.478   5.644  11.747  0.2216 -2.3257 -2.1185
 1183TIP3   OH224963   2.843   5.987  15.670  0.0247  0.3744  0.3377
 1183TIP3    H124964   2.909   6.023  15.610 -0.7507 -0.3418 -0.9832
 1183TIP3    H224965   2.821   6.061  15.727 -0.0856  1.4492 -1.0342
 1184TIP3   OH224966   2.017   5.712  16.881  0.4118  0.1204  0.1909
 1184TIP3    H124967   2.005   5.711  16.786  0.1212 -1.4842  0.2130
 1184TIP3    H224968   1.955   5.778  16.913  1.6223  1.8286 -0.8240
 1185TIP3   OH224969   1.843   6.084   2.029 -0.2660 -0.0045 -0.5549
 1185TIP3    H124970   1.821   6.177   2.040  2.6817  0.7067  0.1216
 1185TIP3    H224971   1.880   6.078   1.941 -0.7001 -0.6258 -0.7011
 1186TIP3   OH224972   0.014   6.508  13.206  0.5941 -0.7283 -0.2729
 1186TIP3    H124973   0.029   6.503  13.301  2.0923  0.6495 -0.3932
 1186TIP3    H224974  -0.012   6.599  13.190  0.2095 -0.9850 -1.1779
 1187TIP3   OH224975   3.235   5.342   1.301 -0.1634  0.1058  0.6775
 1187TIP3    H124976   3.310   5.400   1.285  0.0456  0.2309  1.9888
 1187TIP3    H224977   3.256   5.299   1.384  0.1594 -2.6564 -0.7494
 1188TIP3   OH224978   5.655   0.944  15.423 -0.0289 -0.0129 -0.1201
 1188TIP3    H124979   5.574   0.958  15.373  0.0714 -1.8472 -0.8921
 1188TIP3    H224980   5.630   0.959  15.514 -1.2114 -0.3503 -0.3709
 1189TIP3   OH224981   6.644   6.738  12.377 -0.1192  0.0364 -0.4295
 1189TIP3    H124982   6.616   6.828  12.393 -0.8222 -0.1520 -0.5670
 1189TIP3    H224983   6.674   6.706  12.462 -0.1265  0.3154 -0.3210
 1190TIP3   OH224984   4.159   6.591   3.351 -0.3216  0.1696 -0.2047
 1190TIP3    H124985   4.215   6.607   3.427  1.2752 -2.8878 -0.6022
 1190TIP3    H224986   4.219   6.597   3.276 -0.6844 -2.1403 -0.7300
 1191TIP3   OH224987   2.001   2.823   5.089  0.1477 -0.5072 -0.0205
 1191TIP3    H124988   2.095   2.836   5.094  0.4609 -2.6300  0.4687
 1191TIP3    H224989   1.986   2.735   5.124 -2.0516 -0.1125  0.2259
 1192TIP3   OH224990   3.199   5.045   0.891 -0.0641 -0.1225 -0.1970
 1192TIP3    H124991   3.107   5.032   0.911 -0.1814  0.3360 -0.4280
 1192TIP3    H224992   3.246   4.999   0.961 -0.4503  1.7271  1.3573
 1193TIP3   OH224993   4.884   3.254   0.997  0.2680 -0.7128 -0.7662
 1193TIP3    H124994   4.947   3.183   1.010  1.1970  0.1298 -0.5570
 1193TIP3    H224995   4.932   3.320   0.948 -0.9347 -0.6960 -1.9836
 1194TIP3   OH224996   4.151   5.580  10.595  0.4284 -0.2465  0.5232
 1194TIP3    H124997   4.121   5.536  10.515  0.9432 -0.9564  0.7042
 1194TIP3    H224998   4.182   5.508  10.651 -0.1994  0.2125  1.4815
 1195TIP3   OH224999   3.059   6.590  13.541 -0.7736 -0.5635  0.1401
 1195TIP3    H125000   3.105   6.640  13.474 -1.1896 -0.5953 -0.1760
 1195TIP3    H225001   2.975   6.566  13.500 -0.4284 -1.8598  0.1431
 1196TIP3   OH225002   0.766   4.762   0.411 -0.3427 -0.5166  0.1929
 1196TIP3    H125003   0.701   4.785   0.345  1.6077 -0.2490 -1.7601
 1196TIP3    H225004   0.770   4.839   0.469 -1.2408 -0.2572 -0.0850
 1197TIP3   OH225005   1.218   2.738   1.153  0.0444  0.4227  0.4807
 1197TIP3    H125006   1.286   2.804   1.169 -0.3257  1.2852 -1.2270
 1197TIP3    H225007   1.136   2.784   1.167 -0.2206  0.3905 -0.7983
 1198TIP3   OH225008   0.875   2.856   3.567 -0.3970  0.4262 -0.1295
 1198TIP3    H125009   0.964   2.889   3.580 -0.2220  0.9304 -2.3340
 1198TIP3    H225010   0.884   2.786   3.502 -1.4939 -0.2988  0.4606
 1199TIP3   OH225011   3.498   3.224   6.423  0.7042  0.6299  0.4899
 1199TIP3    H125012   3.432   3.253   6.487  0.4001 -1.6427  1.3132
 1199TIP3    H225013   3.575   3.203   6.476  0.9639  0.1221 -0.0781
 1200TIP3   OH225014   5.369   4.535  14.833  0.0070 -0.6635 -0.2182
 1200TIP3    H125015   5.381   4.613  14.778 -0.6470 -0.0943  0.4336
 1200TIP3    H225016   5.293   4.555  14.887  0.6167 -1.2367  0.8771
 1201TIP3   OH225017   1.847   0.780  14.987 -0.1424  0.5760 -0.6655
 1201TIP3    H125018   1.816   0.712  15.046 -0.8647  1.1255 -0.3842
 1201TIP3    H225019   1.767   0.819  14.952  0.2699  0.6627 -1.5446
 1202TIP3   OH225020   3.577   2.668  11.415  0.3900  0.9717 -0.4918
 1202TIP3    H125021   3.519   2.655  11.340  0.9297  0.7543 -0.8844
 1202TIP3    H225022   3.618   2.753  11.399 -0.2575  1.4049  0.0927
 1203TIP3   OH225023   2.165   1.958  15.473  0.2725 -0.9646  0.0947
 1203TIP3    H125024   2.242   1.929  15.522  0.4519 -1.5687 -0.5404
 1203TIP3    H225025   2.133   1.879  15.430  0.5075 -0.3073 -1.3104
 1204TIP3   OH225026   2.205   5.293   3.124 -0.0505  0.4658 -0.1290
 1204TIP3    H125027   2.170   5.307   3.036 -0.4891  0.4196  0.0339
 1204TIP3    H225028   2.229   5.380   3.155  1.3508  0.3338 -0.7964
 1205TIP3   OH225029   3.599   2.244   1.211  0.2740  0.2660  0.9655
 1205TIP3    H125030   3.508   2.276   1.209  0.3189  0.3506 -0.7987
 1205TIP3    H225031   3.649   2.311   1.165  1.3000  0.3167  2.1047
 1206TIP3   OH225032   1.769   2.253  14.995  0.1725  0.4165 -0.2708
 1206TIP3    H125033   1.759   2.158  14.996  0.0952  0.4241  0.4489
 1206TIP3    H225034   1.680   2.286  14.982  0.2703  0.3914 -1.0663
 1207TIP3   OH225035   1.036   2.292   3.666 -0.4755  0.2509 -0.0064
 1207TIP3    H125036   1.049   2.238   3.744 -0.0580  0.9883  0.4330
 1207TIP3    H225037   1.084   2.245   3.597  1.6257  1.0847  0.8154
 1208TIP3   OH225038   5.003   6.406  13.479 -0.5299  0.0468 -0.2998
 1208TIP3    H125039   4.961   6.484  13.516 -0.0832  0.5813 -0.8832
 1208TIP3    H225040   5.038   6.436  13.395 -0.6815 -0.8857 -0.7068
 1209TIP3   OH225041   0.672   1.710   4.686  0.0670 -0.5200 -0.0660
 1209TIP3    H125042   0.660   1.660   4.767 -1.3432 -3.0035 -1.6553
 1209TIP3    H225043   0.726   1.652   4.631 -0.5698  0.2600 -1.5579
 1210TIP3   OH225044   2.746   4.835  16.616 -0.2088 -0.0191  0.0862
 1210TIP3    H125045   2.794   4.904  16.662  1.5798 -0.6804 -0.6871
 1210TIP3    H225046   2.807   4.762  16.613 -1.5505 -1.1639 -0.3512
 1211TIP3   OH225047   2.454   3.307  16.874  0.1108  0.4210  0.2782
 1211TIP3    H125048   2.396   3.376  16.906 -0.6933 -0.1071  0.0257
 1211TIP3    H225049   2.445   3.237  16.939 -0.5580 -0.1654 -0.4181
 1212TIP3   OH225050   5.786   1.643   5.356  0.2914  0.3432  0.5645
 1212TIP3    H125051   5.862   1.694   5.327 -0.7015  1.1153 -0.8083
 1212TIP3    H225052   5.711   1.690   5.319 -1.0368  0.7508  3.5504
 1213TIP3   OH225053   3.333   5.307  12.554 -0.1474 -0.0840 -0.3228
 1213TIP3    H125054   3.327   5.211  12.555  1.8426 -0.2334 -0.1634
 1213TIP3    H225055   3.381   5.328  12.475 -1.9502  0.9429 -1.2243
 1214TIP3   OH225056   5.580   4.394  13.496  0.2123  0.1710 -0.4225
 1214TIP3    H125057   5.668   4.432  13.495  0.5030 -0.4516 -2.2727
 1214TIP3    H225058   5.524   4.463  13.532  1.3054  0.9075 -0.0909
 1215TIP3   OH225059   1.526   5.754  12.810 -0.3800  0.3841 -0.0742
 1215TIP3    H125060   1.518   5.714  12.724  2.5206 -3.3213  1.0744
 1215TIP3    H225061   1.447   5.726  12.857 -0.8713  0.4410 -0.8601
 1216TIP3   OH225062   0.748   5.256  15.662 -0.3636 -0.0430  0.0934
 1216TIP3    H125063   0.700   5.239  15.581 -1.2569  1.5159  0.2649
 1216TIP3    H225064   0.787   5.171  15.684 -1.7953 -1.0100 -0.8686
 1217TIP3   OH225065   4.964   5.186  17.276 -0.5276 -0.1500  0.1525
 1217TIP3    H125066   4.992   5.099  17.306  0.3902 -0.6982 -2.0738
 1217TIP3    H225067   5.046   5.234  17.264 -0.9760  0.6649  0.3491
 1218TIP3   OH225068   5.017   3.598   4.075  0.4457 -0.5703 -0.2743
 1218TIP3    H125069   4.933   3.569   4.109  1.0120 -0.4584  1.3006
 1218TIP3    H225070   5.065   3.517   4.057  0.6269 -0.6459  0.4991
 1219TIP3   OH225071   2.408   6.716   2.392  0.0499  0.2928  0.0921
 1219TIP3    H125072   2.375   6.634   2.429  0.7878 -0.7359 -1.4245
 1219TIP3    H225073   2.502   6.714   2.407 -0.0014  1.2183  0.6533
 1220TIP3   OH225074   1.062   6.670  15.194  0.0896  0.8717  0.3390
 1220TIP3    H125075   0.989   6.611  15.217  0.9934  0.4005  2.1499
 1220TIP3    H225076   1.128   6.612  15.157 -0.0683  1.1770 -0.4509
 1221TIP3   OH225077   0.612   3.430   4.034 -0.2137 -0.7285 -0.1487
 1221TIP3    H125078   0.610   3.455   3.941 -3.1971  0.0986  0.0101
 1221TIP3    H225079   0.624   3.335   4.033  0.0315 -0.7032 -1.3639
 1222TIP3   OH225080   0.448   5.452   6.340 -0.0021 -0.4418 -0.4831
 1222TIP3    H125081   0.466   5.426   6.250 -1.2826 -2.5983 -0.1731
 1222TIP3    H225082   0.469   5.374   6.392  0.8298  0.7877  1.1372
 1223TIP3   OH225083   3.163   3.222   4.493 -0.3030  0.1254 -0.5442
 1223TIP3    H125084   3.183   3.308   4.530 -0.2877 -0.3285  0.5541
 1223TIP3    H225085   3.241   3.199   4.443  0.7855 -0.3308  1.2587
 1224TIP3   OH225086   3.123   1.575   0.264  0.0646  0.4049 -0.5860
 1224TIP3    H125087   3.078   1.539   0.341 -0.5919 -0.0029 -1.1533
 1224TIP3    H225088   3.208   1.603   0.298  0.6074 -1.6525 -0.1008
 1225TIP3   OH225089   0.841   1.903  16.573 -0.2301  0.0908 -0.3503
 1225TIP3    H125090   0.813   1.959  16.646 -0.9353 -1.1373  0.3668
 1225TIP3    H225091   0.847   1.815  16.612  3.7301  0.0340 -0.6653
 1226TIP3   OH225092   5.447   6.592   3.434 -0.0085 -0.0052  0.0618
 1226TIP3    H125093   5.512   6.524   3.418  1.6431  1.7288 -0.9964
 1226TIP3    H225094   5.498   6.672   3.446 -1.8701  1.0601  1.3717
 1227TIP3   OH225095   2.127   1.751  17.280  0.3679 -0.0087  0.4016
 1227TIP3    H125096   2.216   1.720  17.290  0.1421 -0.3246  1.6194
 1227TIP3    H225097   2.081   1.719  17.358 -0.6027  0.8461  0.2092
 1228TIP3   OH225098   2.253   2.455   3.185 -0.2023 -0.3561 -0.5944
 1228TIP3    H125099   2.199   2.485   3.112  1.0446 -0.1374 -1.4561
 1228TIP3    H225100   2.343   2.469   3.156  0.3256  0.2964  1.2194
 1229TIP3   OH225101   4.528   5.056   4.451 -0.1118 -0.2865  0.1594
 1229TIP3    H125102   4.477   4.975   4.454 -2.6169  1.1140 -1.2509
 1229TIP3    H225103   4.617   5.027   4.432 -0.7100 -2.7504  0.7315
 1230TIP3   OH225104   3.070   3.599  16.495  0.4471 -0.1974 -0.1610
 1230TIP3    H125105   3.136   3.659  16.530  0.2661  0.9026 -1.6258
 1230TIP3    H225106   3.013   3.579  16.569  0.9818  0.7973  0.5353
 1231TIP3   OH225107   4.119   2.971  14.416  0.2258 -0.0257  0.2385
 1231TIP3    H125108   4.098   3.010  14.331  0.5836  1.0732  0.6290
 1231TIP3    H225109   4.126   2.877  14.399  0.6525  0.2169 -1.0064
 1232TIP3   OH225110   6.236   5.115   1.766 -0.3244  0.2160  0.1086
 1232TIP3    H125111   6.201   5.181   1.825 -1.7709 -0.5287  0.1296
 1232TIP3    H225112   6.331   5.121   1.777 -0.5263 -0.1339  2.8135
 1233TIP3   OH225113   2.574   6.013  17.204 -0.5432 -0.0028  0.4568
 1233TIP3    H125114   2.654   6.059  17.226 -0.4365 -0.1515  0.3830
 1233TIP3    H225115   2.590   5.978  17.116 -0.6278 -0.1670  0.5063
 1234TIP3   OH225116   2.911   1.664   1.044  0.6890 -0.3308  0.1382
 1234TIP3    H125117   3.001   1.667   1.012  0.5501 -1.1011 -0.3399
 1234TIP3    H225118   2.905   1.738   1.105  1.5212 -0.0280 -0.1332
 1235TIP3   OH225119   4.781   2.882   3.035 -0.4196 -0.0244  0.4998
 1235TIP3    H125120   4.876   2.869   3.042  0.0870  2.0825 -1.2368
 1235TIP3    H225121   4.758   2.848   2.949 -1.0676  0.3138  0.5299
 1236TIP3   OH225122   0.183   6.148  15.863 -0.4701  0.0568 -0.2339
 1236TIP3    H125123   0.263   6.128  15.911 -1.0402  0.5517  0.9831
 1236TIP3    H225124   0.166   6.241  15.881 -1.7519 -0.2406  0.2445
 1237TIP3   OH225125   5.945   2.962   1.245  0.2442  0.0865  0.0510
 1237TIP3    H125126   6.004   2.907   1.297 -0.1000 -0.9250 -0.6109
 1237TIP3    H225127   5.975   2.952   1.155 -1.9615 -1.8733 -0.5693
 1238TIP3   OH225128   2.779   5.684  12.185  0.3810 -0.2205  0.0522
 1238TIP3    H125129   2.798   5.711  12.275  1.3713  0.0556 -0.2297
 1238TIP3    H225130   2.704   5.738  12.160  1.3379  1.1568  0.0401
 1239TIP3   OH225131   2.335   4.583  17.081  0.3959  0.5107 -0.0072
 1239TIP3    H125132   2.406   4.570  17.019  1.7010  2.1528  1.0599
 1239TIP3    H225133   2.378   4.604  17.164 -1.3016 -1.3720  1.4489
 1240TIP3   OH225134   0.943   3.471  12.943  0.5496 -0.7711  0.4298
 1240TIP3    H125135   0.904   3.408  12.882  0.1171  0.6659 -0.8328
 1240TIP3    H225136   0.950   3.423  13.025 -1.3903 -1.9349 -0.0215
 1241TIP3   OH225137   2.790   1.246   4.600 -0.3181 -0.3202  0.2700
 1241TIP3    H125138   2.736   1.167   4.598 -2.3387  1.0024 -0.8708
 1241TIP3    H225139   2.752   1.299   4.670  1.3444 -0.4818  1.3777
 1242TIP3   OH225140   2.082   4.326  12.995  0.7720 -0.2554  0.0191
 1242TIP3    H125141   2.038   4.409  12.975  1.4825  0.3895  1.0641
 1242TIP3    H225142   2.175   4.347  12.991  0.9849 -0.3785  2.6084
 1243TIP3   OH225143   0.637   5.913  15.859 -0.2009 -0.2683 -0.5023
 1243TIP3    H125144   0.695   5.935  15.932  1.6570  0.3986 -2.1044
 1243TIP3    H225145   0.673   5.832  15.823  0.2822  0.5909 -2.0228
 1244TIP3   OH225146   2.397   3.401  15.396 -1.0134 -0.4950  0.2337
 1244TIP3    H125147   2.434   3.454  15.466 -0.3093  1.4436 -1.5107
 1244TIP3    H225148   2.304   3.394  15.418 -0.5440 -1.3735  2.1724
 1245TIP3   OH225149   6.446   2.239  10.636  0.4910  0.6179 -0.4682
 1245TIP3    H125150   6.520   2.299  10.645  1.3015 -0.3887 -0.2464
 1245TIP3    H225151   6.369   2.294  10.651  1.1830  1.6846 -0.7109
 1246TIP3   OH225152   0.552   0.836   4.172 -0.4358 -0.1687 -0.0332
 1246TIP3    H125153   0.529   0.746   4.198  0.5877 -0.0792  1.3128
 1246TIP3    H225154   0.474   0.868   4.127 -1.3783 -1.2455  0.7528
 1247TIP3   OH225155   1.877   0.633  13.177  0.0901  0.5791 -0.0956
 1247TIP3    H125156   1.964   0.596  13.188  0.0164  0.3202 -0.3715
 1247TIP3    H225157   1.845   0.596  13.095 -1.8741 -2.5841  1.8872
 1248TIP3   OH225158   3.581   3.718   4.538  0.1129  0.3971  0.2675
 1248TIP3    H125159   3.521   3.793   4.536  0.9879  1.0962 -0.2373
 1248TIP3    H225160   3.667   3.755   4.519  0.4878 -0.8103 -0.5207
 1249TIP3   OH225161   0.103   4.467  14.855  0.0818  0.2075  0.8765
 1249TIP3    H125162   0.118   4.499  14.766 -0.2493 -0.0546  0.7254
 1249TIP3    H225163   0.010   4.446  14.858  0.2992 -0.7627  0.9615
 1250TIP3   OH225164   3.541   4.691  12.667  0.6012  0.1973  0.0482
 1250TIP3    H125165   3.469   4.654  12.718  1.1164  2.6879  2.8026
 1250TIP3    H225166   3.596   4.616  12.646 -0.4978 -1.1533  1.7412
 1251TIP3   OH225167   5.793   2.376  10.809 -0.2394 -0.3416  1.0051
 1251TIP3    H125168   5.827   2.363  10.720  0.3600 -1.6594  1.3914
 1251TIP3    H225169   5.739   2.299  10.825  1.3772 -1.2498  2.5148
 1252TIP3   OH225170   3.538   6.146  11.475  0.2005  0.4168  0.3772
 1252TIP3    H125171   3.451   6.177  11.501 -0.8808 -1.9208 -0.1684
 1252TIP3    H225172   3.546   6.173  11.383 -0.0933  0.3470  0.3302
 1253TIP3   OH225173   5.140   5.800  14.175  0.3439  0.0240 -0.0577
 1253TIP3    H125174   5.160   5.893  14.186 -0.7090  0.5362 -2.0168
 1253TIP3    H225175   5.084   5.796  14.097  1.5431 -2.3982 -0.9063
 1254TIP3   OH225176   2.188   2.725  16.044  0.4605  0.0378  0.6713
 1254TIP3    H125177   2.229   2.736  15.958  0.1780 -0.3002  0.4937
 1254TIP3    H225178   2.107   2.677  16.027  1.0470 -1.2231  1.2927
 1255TIP3   OH225179   6.357   1.921   5.644 -1.0511  0.1515 -0.0856
 1255TIP3    H125180   6.373   1.968   5.726  0.9098  0.4098 -0.5700
 1255TIP3    H225181   6.403   1.972   5.578  0.7218 -2.1029 -0.7185
 1256TIP3   OH225182   1.333   2.431   0.478  0.2588 -0.3380 -0.4874
 1256TIP3    H125183   1.242   2.400   0.471 -0.3825  1.1534  0.6408
 1256TIP3    H225184   1.375   2.368   0.537  0.0441 -1.1794 -1.2120
 1257TIP3   OH225185   5.096   1.795   3.245 -0.2103 -0.1516  0.1100
 1257TIP3    H125186   5.170   1.754   3.200  0.0882  0.5908 -0.0888
 1257TIP3    H225187   5.068   1.729   3.309  0.0051 -0.8165 -0.4611
 1258TIP3   OH225188   1.987   6.397  14.197  0.0817  0.4003  0.0110
 1258TIP3    H125189   1.971   6.464  14.263  0.2890 -0.0418  0.5205
 1258TIP3    H225190   1.919   6.411  14.131 -0.4788  0.4991  0.5991
 1259TIP3   OH225191   3.046   1.898  12.095  0.1469  0.0139  0.1952
 1259TIP3    H125192   3.069   1.866  12.008  1.7746  1.9252 -0.1349
 1259TIP3    H225193   3.120   1.952  12.122 -0.3162 -0.4928  2.7802
 1260TIP3   OH225194   1.387   5.811   5.008 -0.0902 -0.2601  0.2845
 1260TIP3    H125195   1.323   5.820   5.078 -0.6820  1.5632 -0.4480
 1260TIP3    H225196   1.445   5.886   5.019 -0.4481  0.3020 -1.4208
 1261TIP3   OH225197   1.173   4.008   2.944  0.1620 -0.2529 -0.2506
 1261TIP3    H125198   1.080   4.001   2.920  0.5629 -0.1226 -2.0025
 1261TIP3    H225199   1.194   4.100   2.931  0.1388  0.1070  1.8913
 1262TIP3   OH225200   1.466   0.384  10.583  0.2934  0.1011 -0.2914
 1262TIP3    H125201   1.486   0.311  10.525 -0.3657 -0.6578  0.4082
 1262TIP3    H225202   1.545   0.437  10.583  0.9354 -0.8309 -0.4837
 1263TIP3   OH225203   2.039   6.284   2.169 -0.3401 -0.1171 -0.0521
 1263TIP3    H125204   2.126   6.306   2.135  0.0520 -0.9828  0.3405
 1263TIP3    H225205   1.995   6.241   2.096 -0.9859  1.6036 -0.7120
 1264TIP3   OH225206   2.108   3.046  14.364 -0.0417  0.2601  0.6682
 1264TIP3    H125207   2.088   3.021  14.455 -0.0499  0.5274  0.7388
 1264TIP3    H225208   2.146   2.967  14.326 -0.6510 -0.0660  0.7159
 1265TIP3   OH225209   4.084   4.886   3.935  0.4730  0.5313  0.2570
 1265TIP3    H125210   4.140   4.834   3.876 -0.8126 -0.9212  0.2494
 1265TIP3    H225211   4.009   4.829   3.953  0.3214  1.3420  2.4870
 1266TIP3   OH225212   4.885   5.358   2.574 -0.1265 -0.4488  0.8369
 1266TIP3    H125213   4.947   5.416   2.531 -0.1226 -0.6952  0.5065
 1266TIP3    H225214   4.801   5.375   2.530 -0.3766  0.1400  1.5191
 1267TIP3   OH225215   6.004   0.883  16.036 -0.2067  0.2074  0.0813
 1267TIP3    H125216   5.990   0.899  15.943 -2.4769 -2.7090 -0.2132
 1267TIP3    H225217   5.918   0.896  16.076 -0.3959 -2.8603  0.9463
 1268TIP3   OH225218   6.736   6.297   3.877  0.7831  0.0415 -0.2276
 1268TIP3    H125219   6.713   6.357   3.948 -0.2031 -1.3923  0.7290
 1268TIP3    H225220   6.723   6.210   3.914  1.0309 -0.7665 -1.9294
 1269TIP3   OH225221   0.565   4.238   1.250  0.9511 -0.1103 -0.1111
 1269TIP3    H125222   0.619   4.274   1.180  1.6055 -2.3091 -0.8015
 1269TIP3    H225223   0.530   4.157   1.215  1.3321 -1.3219  2.1021
 1270TIP3   OH225224   4.555   5.147  17.278  0.1303  0.4760 -0.1083
 1270TIP3    H125225   4.600   5.086  17.220 -1.2056 -1.0654  0.3923
 1270TIP3    H225226   4.475   5.170  17.232 -0.3648  0.1842  0.5801
 1271TIP3   OH225227   1.403   5.790  11.032 -0.1447  0.0397  0.2808
 1271TIP3    H125228   1.333   5.753  10.978 -0.3524  1.2241 -0.2966
 1271TIP3    H225229   1.423   5.874  10.991 -0.1412  0.8653  1.9066
 1272TIP3   OH225230   0.744   1.094   5.928 -0.9067 -0.1608  0.5901
 1272TIP3    H125231   0.711   1.183   5.940  0.2754  0.3086  0.5224
 1272TIP3    H225232   0.793   1.076   6.008  1.5779  0.5282 -0.6644
 1273TIP3   OH225233   2.638   5.242   3.399  0.5879  0.1164 -0.2115
 1273TIP3    H125234   2.566   5.189   3.435  1.8211 -1.3271  0.2091
 1273TIP3    H225235   2.624   5.329   3.436 -0.9570 -0.1222 -0.1613
 1274TIP3   OH225236   1.642   4.942  15.503 -0.5360 -0.0097 -0.0056
 1274TIP3    H125237   1.664   4.996  15.579 -0.9725 -1.3340  1.1234
 1274TIP3    H225238   1.559   4.977  15.472 -2.2862 -1.6430  2.4422
 1275TIP3   OH225239   1.119   5.648   2.348  0.4839 -0.0351  0.1039
 1275TIP3    H125240   1.094   5.599   2.271 -0.1630 -0.8436  0.8104
 1275TIP3    H225241   1.167   5.724   2.314  2.3157 -1.5938 -0.9880
 1276TIP3   OH225242   6.062   3.143  11.082  0.6373 -0.6415 -0.3183
 1276TIP3    H125243   5.970   3.122  11.069 -0.0641  0.4957  2.2912
 1276TIP3    H225244   6.080   3.212  11.018 -0.9601  0.6797  0.5986
 1277TIP3   OH225245   4.984   4.023   1.896  0.0075 -0.0107  0.0610
 1277TIP3    H125246   5.078   4.033   1.914  0.0576 -1.1738  0.5346
 1277TIP3    H225247   4.967   3.930   1.910 -1.3141  0.2707  0.4478
 1278TIP3   OH225248   4.468   0.376  15.057  0.3859 -0.1862 -0.3037
 1278TIP3    H125249   4.389   0.429  15.064  1.2310  1.2677 -1.3579
 1278TIP3    H225250   4.512   0.388  15.141  0.4338  0.5802 -0.4331
 1279TIP3   OH225251   3.160   0.709   4.138 -0.0692  0.0532 -0.2920
 1279TIP3    H125252   3.212   0.645   4.088  0.8377  1.1445 -0.7781
 1279TIP3    H225253   3.195   0.794   4.112 -0.1037  0.6960  1.6202
 1280TIP3   OH225254   3.479   3.607   4.055  0.3174  0.3486  0.1792
 1280TIP3    H125255   3.424   3.530   4.045  0.0499  0.8422 -3.0408
 1280TIP3    H225256   3.426   3.668   4.107 -1.9373  0.5043 -2.1339
 1281TIP3   OH225257   3.299   5.962  15.516 -0.6059 -0.0457  0.3079
 1281TIP3    H125258   3.294   6.056  15.502  1.2998  0.0164 -0.2067
 1281TIP3    H225259   3.217   5.928  15.482 -1.1780  1.3888  0.2046
 1282TIP3   OH225260   5.797   3.107  14.421 -0.2561  0.3015  0.1580
 1282TIP3    H125261   5.884   3.138  14.398  0.8477 -2.8954 -0.5969
 1282TIP3    H225262   5.775   3.153  14.502  1.0785  2.8998 -0.8579
 1283TIP3   OH225263   5.309   5.083   0.370 -0.3305 -0.1926  1.1098
 1283TIP3    H125264   5.227   5.040   0.343 -0.0493 -0.1235  0.0876
 1283TIP3    H225265   5.291   5.118   0.457 -0.9792 -1.2837  1.4325
 1284TIP3   OH225266   4.394   0.352   2.084  0.4951 -0.3765 -0.7130
 1284TIP3    H125267   4.346   0.274   2.058 -0.4751 -0.7633  1.8836
 1284TIP3    H225268   4.471   0.318   2.131  0.1496  0.2043  0.2953
 1285TIP3   OH225269   5.437   6.380   1.449 -0.1675  0.3736  0.1361
 1285TIP3    H125270   5.460   6.367   1.357 -1.3191  0.9331 -0.2465
 1285TIP3    H225271   5.467   6.468   1.469  1.3083 -0.2283  0.7108
 1286TIP3   OH225272   6.769   6.761  14.486 -0.4132 -0.5434  0.2635
 1286TIP3    H125273   6.754   6.735  14.576 -0.2416  0.0836  0.4777
 1286TIP3    H225274   6.720   6.842  14.476  1.3650  0.5924  0.4643
 1287TIP3   OH225275   0.253   3.757  15.836  0.1769 -1.0053 -0.1797
 1287TIP3    H125276   0.190   3.693  15.801  0.1365 -2.3356  2.1414
 1287TIP3    H225277   0.237   3.836  15.785 -2.3157 -1.7489 -0.6976
 1288TIP3   OH225278   2.655   3.539  16.605  0.6816 -0.1302 -0.2829
 1288TIP3    H125279   2.684   3.626  16.634  1.4675 -0.1219 -1.0399
 1288TIP3    H225280   2.716   3.478  16.645  0.5270 -0.2848 -0.2792
 1289TIP3   OH225281   1.739   3.156  16.959 -0.3659  0.0824 -0.1465
 1289TIP3    H125282   1.771   3.099  16.889  1.9779  0.8548  0.1850
 1289TIP3    H225283   1.777   3.120  17.039 -0.7594  0.7627  0.3602
 1290TIP3   OH225284   0.853   2.209   2.552 -0.4032  0.6326 -0.5792
 1290TIP3    H125285   0.904   2.251   2.483  1.7002 -1.2529 -0.2847
 1290TIP3    H225286   0.816   2.131   2.512 -0.4133  0.3205  0.0176
 1291TIP3   OH225287   1.134   4.965   0.823 -0.1597 -0.1094 -0.2314
 1291TIP3    H125288   1.060   4.922   0.867 -0.2355 -0.3153 -0.5609
 1291TIP3    H225289   1.108   4.969   0.731 -0.1681  0.6700 -0.2032
 1292TIP3   OH225290   6.734   2.181  14.980  0.2242  0.5850  0.4208
 1292TIP3    H125291   6.795   2.248  14.949 -1.0956  2.3222  1.3684
 1292TIP3    H225292   6.648   2.212  14.951 -0.3344 -1.3583 -0.1566
 1293TIP3   OH225293   2.537   5.092  11.546  0.4815  0.1153 -0.0675
 1293TIP3    H125294   2.558   5.185  11.553  1.5362 -0.1277  0.1548
 1293TIP3    H225295   2.607   5.048  11.594  0.2589 -0.8227 -0.5856
 1294TIP3   OH225296   1.107   2.063   5.468 -0.7814 -0.3113  0.3547
 1294TIP3    H125297   1.185   2.118   5.463 -1.4252  0.5337 -0.7340
 1294TIP3    H225298   1.066   2.086   5.551  0.4318 -1.2232  1.2485
 1295TIP3   OH225299   0.516   5.746   4.367  0.1580  0.5141 -0.4615
 1295TIP3    H125300   0.587   5.805   4.340  1.8737 -0.3114  1.8907
 1295TIP3    H225301   0.555   5.659   4.361 -1.1819 -0.0924 -0.5568
 1296TIP3   OH225302   1.068   4.180  16.486  0.6028  0.1371  0.2513
 1296TIP3    H125303   1.113   4.103  16.521  1.5322 -0.1614 -1.5280
 1296TIP3    H225304   0.982   4.178  16.528  0.6508 -1.8022  0.3280
 1297TIP3   OH225305   5.186   4.482   3.543  0.0798 -0.3789  0.5688
 1297TIP3    H125306   5.218   4.521   3.625  3.3065 -3.4635  1.0082
 1297TIP3    H225307   5.251   4.506   3.478 -0.3345 -1.2128 -0.1739
 1298TIP3   OH225308   2.163   2.015  17.258 -1.0626 -0.0173 -0.1791
 1298TIP3    H125309   2.135   1.924  17.267  0.1558 -0.5529 -1.4287
 1298TIP3    H225310   2.082   2.065  17.253 -1.7769 -0.7750  2.4340
 1299TIP3   OH225311   0.811   1.464  14.816 -0.5506 -0.0169 -0.0922
 1299TIP3    H125312   0.864   1.386  14.830  1.3250  1.3544  0.9208
 1299TIP3    H225313   0.721   1.431  14.811  0.2831 -2.3363 -0.9981
 1300TIP3   OH225314   5.917   1.864  12.359  0.3165 -0.2340  0.1950
 1300TIP3    H125315   5.955   1.803  12.422  0.4984 -1.5701 -1.1611
 1300TIP3    H225316   5.942   1.830  12.274 -0.4080  1.2106 -0.6361
 1301TIP3   OH225317   6.700   3.556  11.485 -0.2864  0.3152  0.1449
 1301TIP3    H125318   6.619   3.549  11.435 -1.2601 -2.5163  1.9010
 1301TIP3    H225319   6.714   3.650  11.494 -2.5476  0.8894 -1.4528
 1302TIP3   OH225320   4.134   2.249   0.978 -0.1273  0.0846 -0.0097
 1302TIP3    H125321   4.187   2.295   0.913 -0.8508  0.0895 -0.6137
 1302TIP3    H225322   4.141   2.303   1.057 -1.1070  1.3652 -0.7593
 1303TIP3   OH225323   1.913   4.027  11.565  0.4179  0.0716 -0.6089
 1303TIP3    H125324   1.840   4.004  11.508  0.0905  1.8882 -0.9919
 1303TIP3    H225325   1.948   4.108  11.527 -1.6978  3.1830  3.2663
 1304TIP3   OH225326   0.662   3.081  13.015 -0.1775 -0.3891  0.0966
 1304TIP3    H125327   0.755   3.061  13.029  0.0293  0.4754 -0.0152
 1304TIP3    H225328   0.646   3.160  13.067 -0.6754 -0.1358 -0.4342
 1305TIP3   OH225329   3.136   0.889  12.998  0.0718 -0.8203 -0.1486
 1305TIP3    H125330   3.168   0.852  12.916 -0.3293  0.1569 -0.7690
 1305TIP3    H225331   3.171   0.978  13.000 -1.5471 -0.1410 -0.2543
 1306TIP3   OH225332   4.303   5.259  10.962 -0.3539  0.4480  0.5894
 1306TIP3    H125333   4.339   5.325  10.903  1.2182 -2.0794 -1.4621
 1306TIP3    H225334   4.244   5.207  10.907 -1.0671 -0.2619  1.9790
 1307TIP3   OH225335   1.081   4.430   5.439  0.3526 -0.7290  0.2659
 1307TIP3    H125336   1.060   4.508   5.387  0.2117 -0.5650  0.5702
 1307TIP3    H225337   1.161   4.396   5.398  0.6956 -0.1479  0.4365
 1308TIP3   OH225338   2.464   5.856  15.143  0.0384  0.5958  0.7661
 1308TIP3    H125339   2.504   5.880  15.226 -0.8625 -1.6344  1.9432
 1308TIP3    H225340   2.499   5.769  15.124  0.4219  1.1649 -1.3569
 1309TIP3   OH225341   1.058   2.745   3.772 -0.0623  0.5337  0.2820
 1309TIP3    H125342   1.124   2.694   3.726 -0.5141 -0.9295  1.1956
 1309TIP3    H225343   0.974   2.715   3.737 -0.3147  1.0142  0.4621
 1310TIP3   OH225344   2.132   0.335   2.553 -0.6061  0.1517  0.3446
 1310TIP3    H125345   2.167   0.422   2.533  0.3270  0.1854  1.9967
 1310TIP3    H225346   2.204   0.275   2.531 -1.0869 -0.1803 -0.3637
 1311TIP3   OH225347   6.684   3.481  13.054  0.1052  0.5843  0.1920
 1311TIP3    H125348   6.757   3.471  12.992 -0.4867  0.8919 -0.5690
 1311TIP3    H225349   6.717   3.540  13.121  1.3710 -1.1300  1.1510
 1312TIP3   OH225350   0.927   3.264  17.270  0.4106  0.1546 -0.6040
 1312TIP3    H125351   0.874   3.327  17.318  1.7169 -0.1986  1.4366
 1312TIP3    H225352   0.898   3.179  17.303  1.1880 -0.1161 -0.6076
 1313TIP3   OH225353   5.454   6.198   4.149 -0.1609 -0.0922 -0.3845
 1313TIP3    H125354   5.432   6.285   4.115  0.9419 -0.2178 -1.4961
 1313TIP3    H225355   5.447   6.140   4.073 -0.9545 -1.0081  0.3605
 1314TIP3   OH225356   0.845   1.970  14.040 -0.2260 -0.0953  0.2648
 1314TIP3    H125357   0.862   1.903  14.106  2.8930 -2.9485 -3.0018
 1314TIP3    H225358   0.758   1.950  14.007 -0.7841 -0.2057  1.7100
 1315TIP3   OH225359   1.954   1.611  15.708  0.1229  0.6631 -0.1869
 1315TIP3    H125360   2.038   1.608  15.663 -0.4879 -0.1538 -1.3294
 1315TIP3    H225361   1.908   1.685  15.669 -0.2138  0.2690 -0.5351
 1316TIP3   OH225362   6.064   0.232   2.596 -0.5056  0.3932 -0.3148
 1316TIP3    H125363   6.054   0.327   2.602 -0.5880  0.5893 -2.7207
 1316TIP3    H225364   6.147   0.219   2.549 -0.9735 -0.6964 -0.8898
 1317TIP3   OH225365   3.655   1.510   1.383  0.4086  0.4577  0.0385
 1317TIP3    H125366   3.642   1.544   1.472 -0.1585 -0.0438  0.1519
 1317TIP3    H225367   3.644   1.416   1.391 -0.4575  0.4774 -0.6933
 1318TIP3   OH225368   5.762   1.397  15.610 -0.2187 -0.2798 -0.0940
 1318TIP3    H125369   5.831   1.338  15.580 -0.6966 -1.3317  0.8088
 1318TIP3    H225370   5.809   1.474  15.642  0.4269 -0.2538 -1.0692
 1319TIP3   OH225371   4.819   0.526   1.742 -0.2931 -0.2743 -0.1021
 1319TIP3    H125372   4.900   0.496   1.700 -0.1868  1.2504 -1.0662
 1319TIP3    H225373   4.793   0.603   1.691 -1.7039 -0.0298  0.9363
 1320TIP3   OH225374   0.463   3.583   0.243  0.1237  0.8927 -0.3898
 1320TIP3    H125375   0.450   3.508   0.301  1.6260 -0.4804 -1.7334
 1320TIP3    H225376   0.376   3.603   0.208 -0.1216 -1.0542 -0.9671
 1321TIP3   OH225377   2.702   5.953  12.703 -0.4915  0.1228  0.0721
 1321TIP3    H125378   2.706   5.980  12.795  0.4171  1.9507 -0.4726
 1321TIP3    H225379   2.613   5.974  12.676 -0.3723  0.7940  0.1894
 1322TIP3   OH225380   4.030   6.032   1.008 -0.3818  0.0077 -0.8291
 1322TIP3    H125381   4.012   6.063   0.919  0.1267 -0.5543 -1.1359
 1322TIP3    H225382   4.098   5.966   0.997  0.1220  0.3645  0.0453
 1323TIP3   OH225383   4.558   3.203   6.108 -0.3261 -0.0175 -0.1218
 1323TIP3    H125384   4.559   3.148   6.186  0.5030 -1.9614 -1.4416
 1323TIP3    H225385   4.485   3.264   6.123 -0.5778 -0.7278  1.8691
 1324TIP3   OH225386   6.472   3.537   2.796 -0.4778 -0.4182  0.1319
 1324TIP3    H125387   6.500   3.628   2.805  0.0198 -0.6178  0.6435
 1324TIP3    H225388   6.460   3.507   2.886  1.4176 -1.4831  0.0901
 1325TIP3   OH225389   0.048   4.043   1.466  0.0534 -0.2068 -0.7824
 1325TIP3    H125390  -0.041   4.010   1.452 -0.2740  0.7542 -1.0388
 1325TIP3    H225391   0.105   3.975   1.430 -0.5328 -1.2976  0.2910
 1326TIP3   OH225392   0.694   3.502  13.601  0.1575 -0.3497 -0.2613
 1326TIP3    H125393   0.680   3.439  13.672  0.0008 -0.0910 -0.0598
 1326TIP3    H225394   0.617   3.559  13.604  1.6626  1.8463  1.6308
 1327TIP3   OH225395   5.320   2.570  14.388  0.1442 -0.1285 -0.1193
 1327TIP3    H125396   5.269   2.584  14.469  1.0721 -1.2761  0.7029
 1327TIP3    H225397   5.341   2.658  14.358  2.0847  0.4060  2.4278
 1328TIP3   OH225398   1.969   1.794  15.957  0.0122  0.4094  0.2874
 1328TIP3    H125399   2.051   1.762  15.921  0.0371 -0.0725  0.7716
 1328TIP3    H225400   1.916   1.817  15.880 -0.2678 -1.4221 -0.1043
 1329TIP3   OH225401   0.686   0.532   5.244  0.3648 -0.0357  0.7705
 1329TIP3    H125402   0.625   0.564   5.178  0.6704  1.3202  1.1238
 1329TIP3    H225403   0.712   0.446   5.212 -2.2790 -1.0015  0.9694
 1330TIP3   OH225404   5.303   3.254   5.426 -0.2556  0.3702  0.0372
 1330TIP3    H125405   5.221   3.211   5.449 -0.1224  0.7324  1.2683
 1330TIP3    H225406   5.276   3.337   5.386 -0.4888 -0.1142 -0.8388
 1331TIP3   OH225407   3.450   2.175  16.469  0.4158 -0.0427 -0.4011
 1331TIP3    H125408   3.488   2.088  16.478 -0.9239 -0.6173  0.1242
 1331TIP3    H225409   3.363   2.159  16.432 -0.1066  0.9942  0.3221
 1332TIP3   OH225410   5.159   5.982  13.740 -0.0924  0.2978  0.0239
 1332TIP3    H125411   5.168   5.977  13.645 -0.8760  0.7905 -0.0838
 1332TIP3    H225412   5.168   5.892  13.770 -0.6903  0.0259 -0.5969
 1333TIP3   OH225413   3.637   4.829  16.985  0.2824 -0.1734  0.4462
 1333TIP3    H125414   3.697   4.886  17.033  0.7397 -1.1289  1.0272
 1333TIP3    H225415   3.552   4.872  16.992  0.6373  0.4794  0.8012
 1334TIP3   OH225416   2.847   1.551  13.662 -0.5147  0.3276 -0.3316
 1334TIP3    H125417   2.779   1.618  13.651  1.6174  2.5664 -0.7912
 1334TIP3    H225418   2.884   1.541  13.574 -0.0618 -0.6723 -0.0321
 1335TIP3   OH225419   1.455   5.742   4.389  0.2374 -0.0174  0.3659
 1335TIP3    H125420   1.470   5.815   4.448  0.3513 -0.4277  0.8520
 1335TIP3    H225421   1.532   5.686   4.399 -0.0021 -0.3740  0.2486
 1336TIP3   OH225422   2.050   2.047  13.918 -0.3050  0.8547 -0.4950
 1336TIP3    H125423   2.089   1.995  13.989 -0.1715  0.0980 -1.1134
 1336TIP3    H225424   1.969   2.081  13.955  0.3413  1.4639  0.4197
 1337TIP3   OH225425   3.050   4.473   3.704  0.3688  0.1039 -0.1218
 1337TIP3    H125426   3.075   4.461   3.795 -0.3064 -0.8871 -0.0569
 1337TIP3    H225427   3.116   4.425   3.654 -1.1563 -2.3332  0.0398
 1338TIP3   OH225428   5.059   2.832   2.548  0.4141  0.4006 -0.5058
 1338TIP3    H125429   5.066   2.737   2.556  0.7741  0.4975  0.4886
 1338TIP3    H225430   4.988   2.845   2.485  0.6203 -0.5279 -0.9459
 1339TIP3   OH225431   3.783   3.275  11.800 -0.5812  0.1471  0.4952
 1339TIP3    H125432   3.744   3.224  11.728 -0.9465 -0.2481  0.9548
 1339TIP3    H225433   3.859   3.224  11.826 -0.4290  0.3087  0.3642
 1340TIP3   OH225434   2.133   5.693   1.079 -0.1541 -0.3344 -0.4497
 1340TIP3    H125435   2.192   5.621   1.100 -0.1032 -1.3552 -3.5498
 1340TIP3    H225436   2.059   5.682   1.139  1.9127 -0.0294  2.3612
 1341TIP3   OH225437   2.909   6.251   5.070  0.5749 -0.5095 -0.4821
 1341TIP3    H125438   3.000   6.265   5.048  1.3733 -2.9619  0.8299
 1341TIP3    H225439   2.912   6.202   5.152 -1.9835  0.8633  0.5472
 1342TIP3   OH225440   1.400   6.128  13.261  0.1366  0.3413  0.0398
 1342TIP3    H125441   1.468   6.147  13.196  0.7171  2.6773  1.2368
 1342TIP3    H225442   1.411   6.035  13.281  2.0360  0.3358 -0.8522
 1343TIP3   OH225443   5.879   5.976  16.689 -0.5438 -0.3609 -0.2613
 1343TIP3    H125444   5.817   5.999  16.620  0.1361 -0.2252 -0.8338
 1343TIP3    H225445   5.935   6.052  16.698 -0.0512 -0.7235 -0.2028
 1344TIP3   OH225446   6.612   3.869  11.470 -0.3815  0.0219  0.2975
 1344TIP3    H125447   6.700   3.900  11.489 -1.2659  2.8403  0.1674
 1344TIP3    H225448   6.570   3.859  11.555 -0.2182 -0.5165  0.3208
 1345TIP3   OH225449   5.906   5.573  12.179 -0.1651  0.2835 -0.2961
 1345TIP3    H125450   5.963   5.554  12.254  0.9442  1.6743 -0.7281
 1345TIP3    H225451   5.865   5.657  12.202 -0.1080  0.5311 -1.0677
 1346TIP3   OH225452   6.525   3.911  11.716  0.6357 -0.1610 -0.2843
 1346TIP3    H125453   6.563   3.921  11.803  1.2756  0.0898 -0.5855
 1346TIP3    H225454   6.446   3.858  11.730  1.4830 -1.3375  0.2687
 1347TIP3   OH225455   0.756   4.731   1.750  0.2225 -0.1231  0.2463
 1347TIP3    H125456   0.694   4.746   1.678  0.1497  1.7977  0.6460
 1347TIP3    H225457   0.840   4.719   1.707  0.0556  0.2447 -0.1988
 1348TIP3   OH225458   1.827   6.295   3.775 -0.5592  0.1997 -0.4475
 1348TIP3    H125459   1.856   6.367   3.718  2.5923  0.3085  1.0883
 1348TIP3    H225460   1.875   6.219   3.744  2.0769  0.4780  2.5189
 1349TIP3   OH225461   5.615   0.721  12.468  0.2623  0.5289 -0.3259
 1349TIP3    H125462   5.678   0.756  12.404  3.6475 -2.4278  1.0339
 1349TIP3    H225463   5.571   0.650  12.421  0.1933  0.6248 -0.4053
 1350TIP3   OH225464   3.251   1.391  16.863 -1.0384 -0.4672 -0.5156
 1350TIP3    H125465   3.256   1.486  16.853 -1.2247 -0.3429  0.5260
 1350TIP3    H225466   3.165   1.376  16.902 -1.3798 -1.1447 -1.4854
 1351TIP3   OH225467   6.608   5.564  12.955 -0.0967 -0.3577  0.4501
 1351TIP3    H125468   6.691   5.528  12.924  0.0314 -0.4321  0.8616
 1351TIP3    H225469   6.618   5.566  13.051 -0.5171 -0.2395  0.4930
 1352TIP3   OH225470   0.857   1.511  14.356  0.2524  0.2436  0.3288
 1352TIP3    H125471   0.861   1.488  14.263 -0.4383 -0.4136  0.4439
 1352TIP3    H225472   0.849   1.426  14.401 -1.2339  0.6432  0.8634
 1353TIP3   OH225473   4.628   5.232  13.046  0.2483 -0.1101  0.4126
 1353TIP3    H125474   4.572   5.214  12.970  1.1166 -1.6207  0.0951
 1353TIP3    H225475   4.712   5.258  13.007  0.2715  0.5334  0.8794
 1354TIP3   OH225476   0.786   1.895   3.927 -0.0143  0.1061 -0.3916
 1354TIP3    H125477   0.870   1.854   3.907 -0.7664 -1.3001 -0.8405
 1354TIP3    H225478   0.736   1.827   3.972 -1.0714  0.7530 -0.5421
 1355TIP3   OH225479   4.629   0.477  17.109  0.3098 -0.8956  0.3984
 1355TIP3    H125480   4.591   0.565  17.100 -0.9701 -1.1042  2.7960
 1355TIP3    H225481   4.723   0.493  17.118 -0.0267  0.4076  2.1806
 1356TIP3   OH225482   1.382   4.297   5.784  0.0876  0.0234 -0.0318
 1356TIP3    H125483   1.347   4.310   5.872 -0.3896  0.6554 -0.3062
 1356TIP3    H225484   1.426   4.379   5.764  1.5298 -0.6630  0.2034
 1357TIP3   OH225485   6.766   4.449  13.261 -0.4986  0.1232  0.0133
 1357TIP3    H125486   6.855   4.461  13.291 -1.0870  0.6843  1.6376
 1357TIP3    H225487   6.714   4.441  13.341 -1.8646 -0.5385 -0.8897
 1358TIP3   OH225488   1.219   4.232  11.369 -0.0542  0.5333 -0.4719
 1358TIP3    H125489   1.137   4.238  11.419  0.1791  1.5903 -0.1951
 1358TIP3    H225490   1.277   4.296  11.410  0.7200  0.2038 -1.0306
 1359TIP3   OH225491   4.956   5.949   4.784 -0.3416 -0.0910  0.6761
 1359TIP3    H125492   5.009   5.987   4.714  0.2378 -0.5830  0.8427
 1359TIP3    H225493   4.875   6.001   4.784 -0.4686 -0.2593 -0.5348
 1360TIP3   OH225494   0.856   3.082  10.741 -0.3138  0.2283 -0.1192
 1360TIP3    H125495   0.787   3.043  10.687 -2.2819 -0.2859  2.5467
 1360TIP3    H225496   0.818   3.165  10.772  1.1925  1.0453 -0.3820
 1361TIP3   OH225497   5.899   2.145   0.008 -0.0134  0.1452 -0.2030
 1361TIP3    H125498   5.951   2.175  -0.066  1.5769 -0.2198  0.7013
 1361TIP3    H225499   5.945   2.179   0.085 -0.1956 -1.5435  0.6980
 1362TIP3   OH225500   0.016   2.012   3.599 -0.1315 -0.9202 -0.1785
 1362TIP3    H125501   0.061   2.025   3.683 -2.5572 -1.1067  1.2604
 1362TIP3    H225502  -0.003   2.100   3.568 -1.3635 -0.8244  0.7621
 1363TIP3   OH225503   0.016   0.176  12.123 -0.3550  0.0140  0.0811
 1363TIP3    H125504   0.066   0.117  12.180  0.4399 -0.8676 -1.4430
 1363TIP3    H225505   0.024   0.262  12.164  0.9465 -0.4355  0.8363
 1364TIP3   OH225506   0.260   0.446   1.578 -0.1973 -0.4954 -1.3745
 1364TIP3    H125507   0.269   0.391   1.500 -2.9761 -2.1620 -0.6580
 1364TIP3    H225508   0.303   0.396   1.647 -1.0503 -0.8642 -1.1038
 1365TIP3   OH225509   0.864   3.253  16.999 -0.4215 -0.0763  0.5677
 1365TIP3    H125510   0.865   3.348  16.990  2.1489  0.0095  0.7388
 1365TIP3    H225511   0.879   3.238  17.093  0.4291 -0.5943  0.3674
 1366TIP3   OH225512   2.116   4.667   5.839 -0.0258  0.0125 -0.0860
 1366TIP3    H125513   2.040   4.687   5.785 -1.7099 -2.0442  1.3655
 1366TIP3    H225514   2.088   4.685   5.929  1.1735 -0.7867  0.4854
 1367TIP3   OH225515   6.235   3.919  12.640  0.2717 -0.2486 -0.4818
 1367TIP3    H125516   6.206   3.871  12.717  1.4098  0.7254  0.6025
 1367TIP3    H225517   6.170   3.988  12.628  0.1167 -0.3730 -0.3513
 1368TIP3   OH225518   1.848   4.109  15.703 -0.0089 -0.3236  0.0499
 1368TIP3    H125519   1.759   4.092  15.672  0.4889 -0.6553 -1.2353
 1368TIP3    H225520   1.904   4.087  15.629  1.3126 -2.2165  1.4964
 1369TIP3   OH225521   6.710   2.658  10.879  0.0231 -0.0964 -0.1925
 1369TIP3    H125522   6.641   2.592  10.887  1.5607 -1.5358  2.4878
 1369TIP3    H225523   6.791   2.612  10.900  1.5219  2.0992 -0.7694
 1370TIP3   OH225524   0.845   3.222  15.348  0.2323 -0.6665  0.1094
 1370TIP3    H125525   0.845   3.163  15.273 -2.3719  1.1101 -1.4251
 1370TIP3    H225526   0.886   3.302  15.317  0.9014 -0.5499  1.2213
 1371TIP3   OH225527   0.386   1.839  11.831 -0.1472  0.8982  0.2524
 1371TIP3    H125528   0.389   1.934  11.840  1.7800  0.9316 -0.3424
 1371TIP3    H225529   0.350   1.825  11.743 -1.4066  1.0125  0.7208
 1372TIP3   OH225530   5.049   0.538   4.869  0.4349 -0.5387 -0.0338
 1372TIP3    H125531   5.139   0.514   4.847  0.6035  0.0397  0.0103
 1372TIP3    H225532   5.058   0.614   4.926 -0.1084  0.3720 -1.1242
 1373TIP3   OH225533   3.247   4.701  16.249  0.3491  0.1309  0.2109
 1373TIP3    H125534   3.335   4.729  16.222  0.3044  1.7515  1.5396
 1373TIP3    H225535   3.261   4.658  16.333 -0.0259 -0.5599 -0.0762
 1374TIP3   OH225536   0.579   5.613  16.419  0.3810  0.0489 -0.1549
 1374TIP3    H125537   0.516   5.624  16.348  0.3270 -2.1671 -0.5236
 1374TIP3    H225538   0.661   5.592  16.375  0.3521 -1.3230  0.4053
 1375TIP3   OH225539   4.012   4.683   2.566  0.3199  0.8427  0.5439
 1375TIP3    H125540   3.969   4.762   2.534 -1.8735 -0.5107 -0.0936
 1375TIP3    H225541   4.065   4.653   2.492 -0.7257  0.4741 -0.0803
 1376TIP3   OH225542   6.545   2.581  15.445 -0.0739 -0.2908  0.2445
 1376TIP3    H125543   6.484   2.543  15.382  0.3651  0.3454 -0.5943
 1376TIP3    H225544   6.518   2.672  15.453  0.9318  0.0914 -0.4031
 1377TIP3   OH225545   3.000   4.715  12.673  0.2884 -0.0989 -0.3715
 1377TIP3    H125546   2.996   4.667  12.590  3.5112  2.5265 -2.2688
 1377TIP3    H225547   2.929   4.779  12.667  1.3392  0.9713 -1.7930
 1378TIP3   OH225548   3.780   3.939  13.205 -0.0730 -0.4634  0.0746
 1378TIP3    H125549   3.705   3.941  13.264 -1.0603 -1.4036 -1.0909
 1378TIP3    H225550   3.770   4.018  13.151  0.1976 -0.2012  0.4043
 1379TIP3   OH225551   3.340   6.485  16.985  0.3664  0.4687  0.1961
 1379TIP3    H125552   3.433   6.467  16.975  0.0627 -0.9750 -0.2018
 1379TIP3    H225553   3.297   6.400  16.973 -1.0646  1.2573 -0.5005
 1380TIP3   OH225554   1.515   1.777   5.317  0.0059  0.4935 -0.4215
 1380TIP3    H125555   1.461   1.773   5.396 -1.3589 -1.9479 -1.3628
 1380TIP3    H225556   1.453   1.785   5.246  1.1849  2.0622 -1.3338
 1381TIP3   OH225557   0.802   0.468  11.900  0.1951 -0.2365 -0.3706
 1381TIP3    H125558   0.763   0.524  11.967 -1.0367 -0.1065 -1.1688
 1381TIP3    H225559   0.833   0.529  11.833 -1.0180 -0.4625 -1.1753
 1382TIP3   OH225560   0.078   5.328   4.429  0.1312 -0.3181  0.4088
 1382TIP3    H125561  -0.016   5.309   4.433  0.2817 -0.9958  0.8593
 1382TIP3    H225562   0.120   5.249   4.463  0.9124 -0.4942 -0.8952
 1383TIP3   OH225563   3.809   5.079  10.876  0.2340 -0.6174 -0.6808
 1383TIP3    H125564   3.828   5.119  10.791 -0.1388  0.3970 -0.3017
 1383TIP3    H225565   3.883   5.021  10.892  0.9526  0.1426 -1.1178
 1384TIP3   OH225566   1.729   3.237  13.676  0.2701  0.4939  0.7074
 1384TIP3    H125567   1.765   3.156  13.641  2.0936  2.2728 -1.9033
 1384TIP3    H225568   1.804   3.296  13.684 -1.2882  2.7182  0.0705
 1385TIP3   OH225569   5.437   5.797   1.336  0.2108  0.6802 -0.3778
 1385TIP3    H125570   5.370   5.805   1.268 -0.7306  0.5480  0.5172
 1385TIP3    H225571   5.396   5.831   1.415  1.1846  0.5382  0.2085
 1386TIP3   OH225572   2.843   5.516   5.675  0.6718 -0.0331  0.6804
 1386TIP3    H125573   2.922   5.463   5.662  0.1398 -0.8221  0.6677
 1386TIP3    H225574   2.837   5.528   5.770 -0.5885 -2.1283  0.9033
 1387TIP3   OH225575   6.629   2.369  15.588  0.0726  0.0159 -0.0968
 1387TIP3    H125576   6.592   2.401  15.670  0.9152  0.5863  0.0733
 1387TIP3    H225577   6.608   2.437  15.524  0.6922  0.2876 -0.0243
 1388TIP3   OH225578   6.081   5.512  14.610 -0.2454  0.1413  0.1172
 1388TIP3    H125579   6.164   5.493  14.653  0.5975  0.2752 -1.3890
 1388TIP3    H225580   6.067   5.606  14.625 -0.3983  0.0071  0.8271
 1389TIP3   OH225581   1.296   1.704  11.041  0.2745  0.6498  0.0029
 1389TIP3    H125582   1.357   1.778  11.036  0.5927  0.3062 -3.1763
 1389TIP3    H225583   1.210   1.744  11.036  0.3256  0.9027  0.8349
 1390TIP3   OH225584   6.702   3.561  14.093 -0.0734  0.0606 -0.3312
 1390TIP3    H125585   6.746   3.515  14.164 -1.2415 -0.1489  0.2812
 1390TIP3    H225586   6.747   3.533  14.014  1.2779  0.3343  0.3205
 1391TIP3   OH225587   3.019   6.165  13.682  0.4270 -0.1385  0.0566
 1391TIP3    H125588   3.025   6.236  13.747 -1.2844  1.0243 -0.9415
 1391TIP3    H225589   2.949   6.109  13.715 -0.1376  0.2084 -0.5135
 1392TIP3   OH225590   2.787   1.141  14.442 -0.0004 -0.2183  0.2755
 1392TIP3    H125591   2.771   1.130  14.348  0.1721 -0.9669  0.3236
 1392TIP3    H225592   2.699   1.140  14.481 -0.0215 -1.8077  0.2882
 1393TIP3   OH225593   3.694   3.938  11.363 -0.1956  0.1457 -0.4199
 1393TIP3    H125594   3.609   3.977  11.341 -0.3594 -0.5723 -1.1244
 1393TIP3    H225595   3.758   4.003  11.335 -0.4867  0.2287 -0.9143
 1394TIP3   OH225596   2.904   5.997  14.737  0.1918  0.2030 -0.6645
 1394TIP3    H125597   2.821   6.036  14.708 -0.4469 -0.6617 -0.0295
 1394TIP3    H225598   2.883   5.906  14.755  1.7433 -0.5770 -2.4813
 1395TIP3   OH225599   3.244   3.214   4.166 -0.0107 -0.0465  0.0341
 1395TIP3    H125600   3.266   3.296   4.123 -2.2626 -0.3322 -1.8513
 1395TIP3    H225601   3.290   3.218   4.250 -0.5626  3.4058  0.3004
 1396TIP3   OH225602   4.558   3.779  14.517 -0.0390 -0.0677  0.0284
 1396TIP3    H125603   4.463   3.785  14.516 -0.6693 -4.6021 -3.6178
 1396TIP3    H225604   4.577   3.716  14.587 -0.0630 -1.1136 -0.8842
 1397TIP3   OH225605   3.059   1.542   4.647 -0.3290 -0.3428  0.2432
 1397TIP3    H125606   3.068   1.482   4.721  1.7118 -1.1755 -0.6119
 1397TIP3    H225607   2.970   1.576   4.655  0.0169  0.0979  3.4059
 1398TIP3   OH225608   4.425   5.247  11.412 -1.1970  0.1846  0.1319
 1398TIP3    H125609   4.506   5.196  11.417 -0.4646  1.2159 -0.7599
 1398TIP3    H225610   4.355   5.182  11.415 -0.3477 -0.7160  1.1053
 1399TIP3   OH225611   3.263   2.282   0.885  0.1506 -0.7126  0.0916
 1399TIP3    H125612   3.336   2.255   0.830  1.1299  1.6794  0.1375
 1399TIP3    H225613   3.186   2.274   0.829  0.9262  0.1301 -1.1220
 1400TIP3   OH225614   5.838   2.318   5.364  0.3821 -0.1479 -0.0446
 1400TIP3    H125615   5.794   2.346   5.284  0.4193  0.0547  0.0061
 1400TIP3    H225616   5.914   2.375   5.372 -0.5450  1.0102  1.0365
 1401TIP3   OH225617   1.776   0.186  16.051 -0.1899  0.0356 -0.7396
 1401TIP3    H125618   1.844   0.121  16.034  0.9448  1.3568 -1.5936
 1401TIP3    H225619   1.781   0.203  16.145 -1.1409 -1.7375 -0.3371
 1402TIP3   OH225620   3.563   5.806  10.443  0.2995 -0.0352 -0.2295
 1402TIP3    H125621   3.478   5.849  10.446  0.2695 -0.1590  0.9464
 1402TIP3    H225622   3.605   5.844  10.365 -0.4390  0.7592 -0.2620
 1403TIP3   OH225623   4.099   3.181   2.605 -0.1973  0.1678  0.2794
 1403TIP3    H125624   4.068   3.212   2.689  1.1447  1.1020  0.4643
 1403TIP3    H225625   4.026   3.194   2.545 -1.1150 -0.3834  1.2586
 1404TIP3   OH225626   0.178   0.357  11.928  0.3298  0.3956 -0.3914
 1404TIP3    H125627   0.147   0.304  12.002 -0.0706 -0.9504 -1.4930
 1404TIP3    H225628   0.269   0.376  11.950  0.2660 -0.1121  0.3787
 1405TIP3   OH225629   6.128   3.204   1.386 -0.9557  0.0994  0.1650
 1405TIP3    H125630   6.035   3.201   1.366 -1.2374 -0.3413  1.4242
 1405TIP3    H225631   6.154   3.113   1.396 -0.8296  0.2651  1.5914
 1406TIP3   OH225632   4.289   2.203  16.893 -0.1511  0.2783 -0.4437
 1406TIP3    H125633   4.357   2.213  16.827 -1.5157  0.8222 -1.8244
 1406TIP3    H225634   4.336   2.176  16.972  1.8342  1.9152 -0.9636
 1407TIP3   OH225635   4.539   0.576   4.368 -0.2754  0.0560  0.2369
 1407TIP3    H125636   4.623   0.620   4.379  0.2424 -1.0571  0.9297
 1407TIP3    H225637   4.475   0.636   4.407  0.3612  0.3704  0.8120
 1408TIP3   OH225638   2.751   2.723  15.014  0.1573  0.3397  0.3237
 1408TIP3    H125639   2.774   2.656  15.078  0.9962  0.2217 -0.0955
 1408TIP3    H225640   2.806   2.798  15.037 -0.7029  0.8651  0.7290
 1409TIP3   OH225641   1.903   4.903   2.603  1.1804  0.3613  0.7453
 1409TIP3    H125642   1.842   4.861   2.663 -0.7358  3.1474  0.9268
 1409TIP3    H225643   1.983   4.916   2.654  0.0869  1.3480  2.2827
 1410TIP3   OH225644   1.251   4.123   1.618 -0.1119 -0.6489  0.2657
 1410TIP3    H125645   1.198   4.172   1.680  0.6556 -0.2030  0.5856
 1410TIP3    H225646   1.256   4.179   1.540  0.7377 -0.2205  0.6189
 1411TIP3   OH225647   6.651   4.333   4.015 -0.6666 -0.4487 -0.4002
 1411TIP3    H125648   6.678   4.294   3.931 -0.3865 -0.3948 -0.3342
 1411TIP3    H225649   6.674   4.267   4.080  1.0693  0.3881 -0.1399
 1412TIP3   OH225650   5.772   2.599  12.165 -0.1778  0.0811  0.1333
 1412TIP3    H125651   5.764   2.649  12.246  0.4030  0.3755  0.0104
 1412TIP3    H225652   5.714   2.644  12.103  0.5578  0.7875 -0.0605
 1413TIP3   OH225653   1.133   2.865   5.951  0.2305 -0.1166 -0.3784
 1413TIP3    H125654   1.061   2.876   6.014  0.4581  1.6805 -0.4056
 1413TIP3    H225655   1.201   2.820   6.002 -0.8930 -1.9197 -0.3762
 1414TIP3   OH225656   6.396   2.905   5.351 -0.2103 -0.2780  0.1480
 1414TIP3    H125657   6.487   2.901   5.324 -0.1975 -1.2852  0.2932
 1414TIP3    H225658   6.366   2.992   5.323  0.3656 -0.5103 -1.3084
 1415TIP3   OH225659   0.000   5.926  14.038 -0.2274  0.0696 -0.2355
 1415TIP3    H125660  -0.037   5.870  13.969 -0.9333 -1.4156  1.2862
 1415TIP3    H225661  -0.044   5.898  14.118  0.8740  1.4660  0.9099
 1416TIP3   OH225662   3.998   3.809   2.772  0.7768 -0.1340  0.4212
 1416TIP3    H125663   3.934   3.879   2.784 -1.5726 -2.1087  0.1711
 1416TIP3    H225664   4.052   3.838   2.698 -2.0009  0.2212 -1.6210
 1417TIP3   OH225665   3.604   5.236  10.460  0.2288 -0.4807  0.1502
 1417TIP3    H125666   3.525   5.254  10.510  0.4333 -1.2158  0.7646
 1417TIP3    H225667   3.649   5.320  10.454 -0.4028 -0.1408  0.1429
 1418TIP3   OH225668   1.790   3.298  13.314  0.6342  0.6788 -0.2247
 1418TIP3    H125669   1.801   3.324  13.223  2.6719 -0.0435 -0.2434
 1418TIP3    H225670   1.830   3.370  13.364  1.5282  0.0647 -0.0303
 1419TIP3   OH225671   3.745   6.615   0.635  0.6525 -0.8746  0.3613
 1419TIP3    H125672   3.664   6.663   0.648  0.4409 -1.4129  1.0683
 1419TIP3    H225673   3.814   6.678   0.655  0.4457 -0.1486 -1.1050
 1420TIP3   OH225674   1.948   5.592  16.306  0.2977  0.0903 -0.0729
 1420TIP3    H125675   1.925   5.516  16.360  1.0127  1.5061  2.3974
 1420TIP3    H225676   1.903   5.578  16.223 -1.9497 -1.6138  1.3351
 1421TIP3   OH225677   1.643   6.564  14.831  0.4778 -0.3203  0.2032
 1421TIP3    H125678   1.578   6.514  14.881  0.0322  0.0495 -0.0009
 1421TIP3    H225679   1.641   6.524  14.744 -0.1190  0.2547 -0.0562
 1422TIP3   OH225680   5.526   4.868  16.586 -0.1650  0.5039  0.4181
 1422TIP3    H125681   5.573   4.951  16.581  1.0351 -0.1853 -0.3381
 1422TIP3    H225682   5.514   4.852  16.680 -0.2227  1.4300  0.5701
 1423TIP3   OH225683   2.816   1.422   1.570  0.2805  0.1613  0.1331
 1423TIP3    H125684   2.736   1.381   1.536 -0.6600  0.9849  1.2669
 1423TIP3    H225685   2.836   1.492   1.508 -0.2796  0.3915  0.2089
 1424TIP3   OH225686   5.053   2.352  17.062 -0.2027 -0.2605 -0.8838
 1424TIP3    H125687   5.007   2.292  17.003 -0.1896  0.1178 -1.2848
 1424TIP3    H225688   5.138   2.367  17.021 -0.5892  0.8331 -1.3260
 1425TIP3   OH225689   6.343   5.568  14.688 -0.3689  0.2692  0.1420
 1425TIP3    H125690   6.438   5.576  14.678  0.0219 -0.9267  2.3534
 1425TIP3    H225691   6.319   5.641  14.745 -0.7119  0.2513  0.0226
 1426TIP3   OH225692   5.927   6.625   3.593  0.5740  0.3101 -0.8366
 1426TIP3    H125693   5.946   6.680   3.518  0.7337  0.9677 -0.3249
 1426TIP3    H225694   5.982   6.547   3.581  0.8238  0.5505 -1.2422
 1427TIP3   OH225695   0.770   3.250  13.848 -0.0865  0.1510  0.5881
 1427TIP3    H125696   0.772   3.184  13.917 -1.1724 -0.6389 -0.0985
 1427TIP3    H225697   0.686   3.235  13.803 -0.2796  1.8890  0.3035
 1428TIP3   OH225698   6.517   2.703  16.587 -0.1551  0.3618 -0.5135
 1428TIP3    H125699   6.549   2.772  16.529 -1.3637  0.0407 -1.6003
 1428TIP3    H225700   6.427   2.729  16.609 -0.7219 -0.9720 -1.1521
 1429TIP3   OH225701   4.431   6.316  13.626 -0.0228 -0.3881 -0.5873
 1429TIP3    H125702   4.393   6.325  13.713 -2.2202 -0.0655 -1.5122
 1429TIP3    H225703   4.504   6.377  13.625 -1.0890  0.9755  0.4682
 1430TIP3   OH225704   1.558   3.035  15.420 -0.3413 -0.0505 -0.3685
 1430TIP3    H125705   1.609   3.109  15.385  0.9353 -1.3311 -1.3117
 1430TIP3    H225706   1.623   2.981  15.466 -1.2606 -0.5889  0.3271
 1431TIP3   OH225707   3.206   5.734   4.449 -0.1455 -0.0762  0.6637
 1431TIP3    H125708   3.167   5.648   4.442 -1.0271  0.4024 -0.4360
 1431TIP3    H225709   3.268   5.726   4.522  1.3074 -2.2005 -0.7076
 1432TIP3   OH225710   5.788   3.519  10.358  0.2929  0.0904  0.4729
 1432TIP3    H125711   5.879   3.499  10.383  0.2299  0.4629  1.0076
 1432TIP3    H225712   5.751   3.561  10.435 -0.5587 -0.7362  0.5265
 1433TIP3   OH225713   4.672   6.411  14.284  0.2910 -0.6745  0.2072
 1433TIP3    H125714   4.736   6.480  14.303  0.3260 -1.2888  2.7283
 1433TIP3    H225715   4.722   6.343  14.240  1.3549 -0.9788  1.8011
 1434TIP3   OH225716   1.078   1.857   0.497  0.0220  0.2968 -0.5157
 1434TIP3    H125717   1.018   1.843   0.424 -1.9727  0.3935  1.0020
 1434TIP3    H225718   1.070   1.777   0.549  0.9264  0.4880 -0.0608
 1435TIP3   OH225719   1.805   3.952   3.725 -0.0552 -0.2027  0.5935
 1435TIP3    H125720   1.743   3.955   3.797  0.5977 -1.7578  1.2678
 1435TIP3    H225721   1.763   3.896   3.660 -0.2463  0.4602  0.1303
 1436TIP3   OH225722   3.616   2.969   0.316 -0.0540  0.7498 -0.3338
 1436TIP3    H125723   3.536   2.975   0.368  0.1332 -0.6984  0.1775
 1436TIP3    H225724   3.687   2.976   0.380  0.1809 -0.8761 -0.3656
 1437TIP3   OH225725   1.571   5.853   4.625  0.6237  0.0043 -0.4433
 1437TIP3    H125726   1.548   5.942   4.599  1.5540  0.1189 -0.9149
 1437TIP3    H225727   1.643   5.864   4.687 -0.2842 -0.3617  0.7144
 1438TIP3   OH225728   6.650   6.257  14.327  0.0396  0.0778 -0.3569
 1438TIP3    H125729   6.632   6.202  14.403  0.6300 -1.1721 -1.0895
 1438TIP3    H225730   6.726   6.216  14.285  0.7822  1.7370 -0.6802
 1439TIP3   OH225731   0.703   3.460   1.417 -0.0958 -0.4543 -0.4536
 1439TIP3    H125732   0.719   3.549   1.386  0.0959 -0.2272  0.2706
 1439TIP3    H225733   0.616   3.438   1.383 -0.2350  0.0884 -0.4588
 1440TIP3   OH225734   5.291   4.888   4.933  0.4082 -0.4918 -0.4563
 1440TIP3    H125735   5.319   4.964   4.881 -1.0611 -0.0291 -0.6146
 1440TIP3    H225736   5.270   4.821   4.868 -1.9194  0.2541 -0.5690
 1441TIP3   OH225737   1.056   2.124  14.391  0.3645 -0.5607 -0.0382
 1441TIP3    H125738   1.064   2.065  14.465 -1.8693 -2.4230 -1.1547
 1441TIP3    H225739   1.094   2.076  14.317 -1.2351 -0.5411 -0.9120
 1442TIP3   OH225740   5.407   2.978   3.127 -0.3333 -0.1563  0.2078
 1442TIP3    H125741   5.353   2.967   3.206 -0.4352  3.6836  0.8740
 1442TIP3    H225742   5.343   2.983   3.055 -0.6069  0.7274  0.5038
 1443TIP3   OH225743   5.913   1.825   2.335 -0.1236  0.4097 -0.1893
 1443TIP3    H125744   5.847   1.832   2.404  0.4609  0.2044  0.3942
 1443TIP3    H225745   5.946   1.735   2.341 -0.6245  0.1323 -1.2579
 1444TIP3   OH225746   3.627   2.458   3.580 -0.1021 -0.4620  0.4067
 1444TIP3    H125747   3.705   2.498   3.619 -0.5961  0.4069  0.5121
 1444TIP3    H225748   3.584   2.413   3.653 -1.0627  1.2220  0.9151
 1445TIP3   OH225749   4.901   6.514  12.595 -0.0022 -0.2521 -0.0626
 1445TIP3    H125750   4.920   6.420  12.595 -0.1320 -0.2810  1.0400
 1445TIP3    H225751   4.916   6.541  12.504  2.5786 -0.8433  0.0949
 1446TIP3   OH225752   4.592   0.666  15.540  0.3005 -0.3352 -0.0047
 1446TIP3    H125753   4.510   0.675  15.589  0.9657  0.3945  1.0281
 1446TIP3    H225754   4.580   0.587  15.487 -0.2004 -1.6083  1.9033
 1447TIP3   OH225755   2.773   4.791  13.726 -0.1636 -0.6043  0.3086
 1447TIP3    H125756   2.683   4.765  13.742  0.0218 -1.8297 -0.4744
 1447TIP3    H225757   2.802   4.831  13.808 -1.8853  1.3139  0.0749
 1448TIP3   OH225758   0.536   5.301  11.656 -0.4037  0.0727 -0.5693
 1448TIP3    H125759   0.603   5.244  11.618  2.2720  2.0519  0.9006
 1448TIP3    H225760   0.498   5.347  11.580 -0.1331 -1.0621 -1.4254
 1449TIP3   OH225761   5.089   0.980   4.526  0.2439 -0.4199 -0.4033
 1449TIP3    H125762   5.163   1.004   4.582 -0.4965  0.4542  0.2237
 1449TIP3    H225763   5.127   0.920   4.461  1.5175  0.0752 -0.1507
 1450TIP3   OH225764   3.242   5.809  14.146 -0.4006 -0.3218  0.4241
 1450TIP3    H125765   3.281   5.892  14.117 -2.1342  0.8132  1.2291
 1450TIP3    H225766   3.223   5.762  14.065 -0.5569  0.6231 -0.0980
 1451TIP3   OH225767   6.749   6.463   1.404 -0.3340  0.2585  0.2363
 1451TIP3    H125768   6.826   6.519   1.408 -0.6089  0.8592 -1.8544
 1451TIP3    H225769   6.676   6.522   1.387 -0.8606 -0.5509 -0.4329
 1452TIP3   OH225770   5.960   5.241  11.047 -0.4129  0.3499 -0.0083
 1452TIP3    H125771   6.048   5.274  11.066  0.4995 -0.7620 -1.9784
 1452TIP3    H225772   5.915   5.244  11.131  1.6470  0.5276  1.1772
 1453TIP3   OH225773   3.940   3.794  16.804 -0.0885 -0.3176 -0.3497
 1453TIP3    H125774   3.945   3.705  16.837 -0.1321 -0.3361 -0.3943
 1453TIP3    H225775   4.030   3.815  16.779 -0.2310 -0.6648 -1.1669
 1454TIP3   OH225776   0.628   5.392   0.945 -0.0535  0.1498  0.6065
 1454TIP3    H125777   0.666   5.318   0.898  3.5985  2.1394  0.0591
 1454TIP3    H225778   0.671   5.393   1.030 -3.7671 -1.1174  2.7505
 1455TIP3   OH225779   6.750   4.054   5.328  0.1516  0.0156 -0.1553
 1455TIP3    H125780   6.686   4.044   5.258 -0.9354 -0.3861  0.8436
 1455TIP3    H225781   6.829   4.088   5.286  0.0502 -1.6762 -1.8041
 1456TIP3   OH225782   3.387   2.987  16.691 -0.2682  0.0845 -0.3465
 1456TIP3    H125783   3.443   2.920  16.730  1.2702  0.6083 -1.5561
 1456TIP3    H225784   3.316   2.998  16.754  1.6211  0.2691  1.8883
 1457TIP3   OH225785   1.166   3.758  11.869 -0.3678  0.1462  0.1644
 1457TIP3    H125786   1.121   3.813  11.931 -0.1202 -0.5940  1.0233
 1457TIP3    H225787   1.201   3.818  11.803 -3.4392  0.6859 -1.1550
 1458TIP3   OH225788   6.657   4.492  15.993 -0.4497  0.4801 -0.1800
 1458TIP3    H125789   6.576   4.529  15.958 -1.2408 -0.0033  1.0690
 1458TIP3    H225790   6.646   4.496  16.088  0.9441  0.2754  0.0101
 1459TIP3   OH225791   6.656   5.858  12.764  0.4139  0.0386  0.1069
 1459TIP3    H125792   6.748   5.859  12.737  0.0525  0.0716 -1.2116
 1459TIP3    H225793   6.656   5.815  12.850  1.7413  0.7718  0.4949
 1460TIP3   OH225794   5.124   4.125   2.576  0.6579 -0.3423  0.3027
 1460TIP3    H125795   5.215   4.130   2.546  1.2662 -0.9335  1.9678
 1460TIP3    H225796   5.097   4.036   2.555  0.8710 -0.5536  0.9237
 1461TIP3   OH225797   5.768   4.403   5.169 -0.3773  0.5830 -0.0933
 1461TIP3    H125798   5.860   4.423   5.183 -0.2973  0.3442 -0.2741
 1461TIP3    H225799   5.764   4.307   5.167 -0.8115  0.5504  1.1550
 1462TIP3   OH225800   6.336   2.354   0.983  0.1386  0.2122  0.0049
 1462TIP3    H125801   6.294   2.276   1.020  1.6254  0.0770  1.5146
 1462TIP3    H225802   6.314   2.350   0.890 -1.1943 -1.1019  0.3251
 1463TIP3   OH225803   4.247   3.443   5.602  0.3381  0.2348  0.3312
 1463TIP3    H125804   4.183   3.488   5.657  0.4528  1.7640 -0.7494
 1463TIP3    H225805   4.281   3.373   5.658 -0.5878  0.8413  1.7042
 1464TIP3   OH225806   2.685   6.480  16.247  0.4248  0.6378 -0.7150
 1464TIP3    H125807   2.615   6.482  16.182  0.0682  1.8527 -0.3331
 1464TIP3    H225808   2.659   6.545  16.313  0.4296 -1.0226  1.0213
 1465TIP3   OH225809   2.810   2.836   4.459  0.1779  0.9632 -0.0505
 1465TIP3    H125810   2.764   2.752   4.463  1.0540  0.3564 -1.5782
 1465TIP3    H225811   2.898   2.813   4.429  0.4479  2.4351 -0.4712
 1466TIP3   OH225812   1.619   3.491  13.694 -0.2562 -0.5199  0.5433
 1466TIP3    H125813   1.636   3.403  13.729  1.1687 -0.8317 -0.8051
 1466TIP3    H225814   1.600   3.544  13.772  0.3091 -1.7078  1.5355
 1467TIP3   OH225815   3.160   4.664  11.083  0.0855 -0.7203  0.5452
 1467TIP3    H125816   3.249   4.655  11.048  0.3562  3.4733 -0.3725
 1467TIP3    H225817   3.103   4.635  11.012  0.7013 -0.3952 -0.0896
 1468TIP3   OH225818   1.950   3.713  13.324 -0.3211  0.2045 -0.0946
 1468TIP3    H125819   1.969   3.806  13.317  0.4426 -0.0836 -2.6955
 1468TIP3    H225820   1.868   3.701  13.276  0.4952 -0.6852 -1.3194
 1469TIP3   OH225821   4.536   0.737   1.116 -0.5960  0.5097 -0.1510
 1469TIP3    H125822   4.504   0.650   1.138 -1.2286  1.2889  2.2942
 1469TIP3    H225823   4.466   0.776   1.063 -1.4816  0.4155  0.9196
 1470TIP3   OH225824   3.789   1.717  17.037  0.1399  0.1460  0.1751
 1470TIP3    H125825   3.797   1.698  17.130 -1.4123 -2.3650 -0.1130
 1470TIP3    H225826   3.765   1.810  17.034  0.2475  0.2970  2.2490
 1471TIP3   OH225827   1.647   1.572   1.139  0.1472  0.4771  0.0112
 1471TIP3    H125828   1.681   1.514   1.071 -0.3419  0.5353 -0.2871
 1471TIP3    H225829   1.670   1.660   1.109  0.9600  0.4490  0.5025
 1472TIP3   OH225830   6.197   0.798  14.725  0.1203 -0.1669 -0.2759
 1472TIP3    H125831   6.247   0.746  14.663 -1.2912 -1.3525 -0.4874
 1472TIP3    H225832   6.107   0.767  14.715 -0.6536  1.7319  0.2156
 1473TIP3   OH225833   1.820   0.686   5.519 -0.1657  0.5835  0.1958
 1473TIP3    H125834   1.831   0.692   5.613 -0.0210 -1.5003  0.3691
 1473TIP3    H225835   1.871   0.759   5.484  1.5716  0.1481  1.6553
 1474TIP3   OH225836   4.359   5.503   1.648 -0.1732  0.1935  0.1447
 1474TIP3    H125837   4.390   5.515   1.738 -2.7143 -0.3283  1.1909
 1474TIP3    H225838   4.272   5.542   1.648 -0.7785 -1.0284 -1.7115
 1475TIP3   OH225839   5.333   6.146  16.458 -0.1032  0.6450 -0.0231
 1475TIP3    H125840   5.341   6.108  16.370 -0.3925  0.3979  0.0567
 1475TIP3    H225841   5.284   6.081  16.508  0.4696  0.5726  0.4551
 1476TIP3   OH225842   4.524   4.531  10.568 -0.0068 -0.0825  0.0942
 1476TIP3    H125843   4.611   4.570  10.582 -0.8220  1.9480 -0.1716
 1476TIP3    H225844   4.512   4.533  10.473 -0.3282 -0.4090  0.1272
 1477TIP3   OH225845   4.423   5.671   0.985  0.4383 -0.4993  0.6343
 1477TIP3    H125846   4.489   5.717   0.934 -0.1383 -0.7903 -0.4079
 1477TIP3    H225847   4.437   5.700   1.075  0.7195  0.9353  0.1494
 1478TIP3   OH225848   2.755   5.932  16.331 -0.0659  0.3633  0.0114
 1478TIP3    H125849   2.692   5.884  16.278 -1.2139  2.2770 -0.4797
 1478TIP3    H225850   2.827   5.951  16.271 -0.3323  0.5872 -0.2426
 1479TIP3   OH225851   2.195   0.116  12.464  0.2215 -0.5818 -0.8753
 1479TIP3    H125852   2.241   0.198  12.478  0.8015 -0.9129 -0.7778
 1479TIP3    H225853   2.218   0.090  12.375  1.0558 -1.2494 -0.4803
 1480TIP3   OH225854   1.747   4.204  16.337  0.3492 -0.2920  0.0709
 1480TIP3    H125855   1.730   4.110  16.338 -0.0646 -0.2151  0.3178
 1480TIP3    H225856   1.661   4.244  16.341  0.5343  0.1006  0.1914
 1481TIP3   OH225857   5.641   5.936   1.551  0.2307 -0.4129  0.3910
 1481TIP3    H125858   5.595   5.852   1.552  0.6630 -0.7829  4.5134
 1481TIP3    H225859   5.573   6.000   1.530 -0.5094 -1.5684 -0.9108
 1482TIP3   OH225860   1.218   3.281   5.904  0.3380  0.0640  0.4629
 1482TIP3    H125861   1.278   3.212   5.876 -0.6201 -0.3169 -0.7141
 1482TIP3    H225862   1.204   3.334   5.826 -0.7126  0.2672  0.7761
 1483TIP3   OH225863   5.449   6.688  13.063 -0.1278 -0.2763 -0.0132
 1483TIP3    H125864   5.390   6.615  13.045 -2.2796  1.5728 -0.9933
 1483TIP3    H225865   5.404   6.765  13.028  2.2630  1.4821  0.4732
 1484TIP3   OH225866   3.663   5.420   4.687  0.7085 -0.2178  0.0515
 1484TIP3    H125867   3.740   5.411   4.631  1.8042  0.1038  1.4235
 1484TIP3    H225868   3.690   5.483   4.754 -0.6108 -0.4167  0.8091
 1485TIP3   OH225869   1.130   0.567  17.139  0.1955 -0.3319  0.4498
 1485TIP3    H125870   1.171   0.506  17.077  0.3288  0.1241  0.0855
 1485TIP3    H225871   1.187   0.643  17.139 -1.2383  0.8281 -0.9782
 1486TIP3   OH225872   4.666   1.000   3.238 -0.1147  0.3315  0.3655
 1486TIP3    H125873   4.667   1.087   3.277 -1.8983  0.1977  0.7658
 1486TIP3    H225874   4.702   1.013   3.150 -0.1130  1.4244  0.5180
 1487TIP3   OH225875   5.962   2.971  17.198  0.5232 -0.0620 -0.4140
 1487TIP3    H125876   5.928   2.927  17.276 -1.6678 -0.7213 -1.6338
 1487TIP3    H225877   6.031   3.028  17.231 -1.2679  0.7965  2.2670
 1488TIP3   OH225878   1.351   5.549   3.550  0.4313  0.1551  0.0569
 1488TIP3    H125879   1.289   5.535   3.622 -1.1187 -4.1503 -1.7498
 1488TIP3    H225880   1.302   5.602   3.487 -0.0238  0.0019  0.2733
 1489TIP3   OH225881   5.722   6.448   2.531  1.0520 -0.4938  0.2584
 1489TIP3    H125882   5.641   6.480   2.493  0.7612 -1.0204  0.4143
 1489TIP3    H225883   5.761   6.525   2.573  0.0993 -0.4453  1.1063
 1490TIP3   OH225884   6.118   2.835  12.201  0.3907  0.6621  0.0823
 1490TIP3    H125885   6.200   2.865  12.162  0.4620  0.1061 -0.2065
 1490TIP3    H225886   6.121   2.740  12.193 -0.1835  0.6253  0.2684
 1491TIP3   OH225887   5.367   0.824  12.602  0.5667 -0.2440 -0.1503
 1491TIP3    H125888   5.450   0.818  12.556  1.1124  1.3186  0.5729
 1491TIP3    H225889   5.363   0.744  12.655  1.3423 -0.5947 -0.6063
 1492TIP3   OH225890   4.158   1.037  13.155  0.3651  0.5804 -0.7126
 1492TIP3    H125891   4.071   1.006  13.179  1.1067 -0.5585  0.6556
 1492TIP3    H225892   4.155   1.043  13.059 -1.8504  2.6575 -0.6254
 1493TIP3   OH225893   4.421   5.359   4.176  0.5504 -0.0283  0.2863
 1493TIP3    H125894   4.408   5.264   4.169 -2.6156  0.2691  0.9071
 1493TIP3    H225895   4.335   5.394   4.199  1.8410  2.9348  1.0598
 1494TIP3   OH225896   5.035   1.798  13.086 -0.8040  0.3745  0.0505
 1494TIP3    H125897   4.997   1.880  13.054 -0.4754  0.8128  0.7760
 1494TIP3    H225898   5.018   1.735  13.015  0.6889  1.5143 -1.3909
 1495TIP3   OH225899   1.295   3.319   6.597  0.2363 -0.2305 -0.3597
 1495TIP3    H125900   1.262   3.391   6.651 -1.7866  0.0145 -1.8036
 1495TIP3    H225901   1.257   3.241   6.636  1.8233 -0.4942  0.7542
 1496TIP3   OH225902   3.170   4.102  17.228  0.0552  0.4003  0.1703
 1496TIP3    H125903   3.131   4.021  17.261  2.7656 -1.3552 -0.5661
 1496TIP3    H225904   3.126   4.119  17.146  0.0417 -0.8796 -0.1111
 1497TIP3   OH225905   3.306   1.280  16.260  0.0270  0.1780 -0.0176
 1497TIP3    H125906   3.319   1.231  16.341  1.6766 -1.0862 -0.9880
 1497TIP3    H225907   3.387   1.328  16.248 -0.8320  1.6778 -0.1179
 1498TIP3   OH225908   3.836   5.050  12.228  0.1822 -0.3245 -0.1597
 1498TIP3    H125909   3.895   5.054  12.303 -0.0444  2.0422 -0.0209
 1498TIP3    H225910   3.758   5.004  12.262  1.1208 -1.6882  0.2239
 1499TIP3   OH225911   4.694   4.423  14.600  0.0720 -0.0876  0.1093
 1499TIP3    H125912   4.750   4.496  14.575 -0.5191 -0.1661 -1.5572
 1499TIP3    H225913   4.724   4.350  14.546 -2.1181  0.0747 -1.4477
 1500TIP3   OH225914   6.068   1.559  13.241  0.0273 -0.0330  0.1862
 1500TIP3    H125915   6.089   1.473  13.206  0.6513 -0.2100  0.9589
 1500TIP3    H225916   6.144   1.614  13.217  0.2711 -0.0564  0.8867
 1501TIP3   OH225917   5.627   4.325  15.073  0.5374  0.0228  0.2212
 1501TIP3    H125918   5.568   4.400  15.067  1.1015  0.4520 -0.0723
 1501TIP3    H225919   5.633   4.307  15.167 -0.5080 -0.3902  0.2158
 1502TIP3   OH225920   2.951   1.608   6.557  0.7883  0.0949 -0.1152
 1502TIP3    H125921   2.899   1.570   6.628 -3.0973  2.4469 -1.3554
 1502TIP3    H225922   2.971   1.697   6.586 -0.0570  0.7825 -1.5140
 1503TIP3   OH225923   6.613   0.526   1.162 -0.2927 -0.5113 -0.4953
 1503TIP3    H125924   6.570   0.486   1.238  1.1702 -0.2832  0.4840
 1503TIP3    H225925   6.647   0.609   1.195  2.8014 -1.6350 -0.5679
 1504TIP3   OH225926   3.357   5.019  10.696  0.0781  0.4380 -0.2348
 1504TIP3    H125927   3.416   5.094  10.685  0.2059  0.4862  0.6451
 1504TIP3    H225928   3.397   4.948  10.647  1.0519  0.3825  0.6042
 1505TIP3   OH225929   2.916   3.227  13.612 -0.3333  0.1290 -0.2777
 1505TIP3    H125930   2.939   3.134  13.618 -0.1160  0.1024 -1.3465
 1505TIP3    H225931   2.834   3.234  13.661  0.1630 -0.4267  0.6688
 1506TIP3   OH225932   2.735   3.968   3.149  0.2392  0.1257  0.7718
 1506TIP3    H125933   2.797   4.035   3.119  0.4732 -0.2689  0.3548
 1506TIP3    H225934   2.658   4.017   3.177  0.2333  0.5445  0.0442
 1507TIP3   OH225935   2.001   3.739  10.515  0.3263  0.3314  0.3979
 1507TIP3    H125936   2.084   3.736  10.561 -0.7172  0.7206  2.3981
 1507TIP3    H225937   1.955   3.815  10.552 -0.9108  0.1692 -0.6959
 1508TIP3   OH225938   0.943   6.427   1.915 -0.2690 -0.0484 -0.1506
 1508TIP3    H125939   0.952   6.344   1.962  3.3430 -0.9343 -2.0434
 1508TIP3    H225940   1.012   6.482   1.951 -2.0141  1.8896  0.4149
 1509TIP3   OH225941   4.948   0.574   3.713 -0.9191 -0.0267  0.7108
 1509TIP3    H125942   4.872   0.617   3.751 -1.9049 -0.9517 -0.1451
 1509TIP3    H225943   4.958   0.615   3.627  0.1424  0.7359  1.1701
 1510TIP3   OH225944   5.478   5.012   0.152  0.1682 -0.1753  0.9439
 1510TIP3    H125945   5.459   4.919   0.157  0.5428 -0.2341  1.3609
 1510TIP3    H225946   5.441   5.049   0.232  0.0282  0.0342  0.7846
 1511TIP3   OH225947   5.612   0.800   3.440 -0.2369 -0.0643 -0.5590
 1511TIP3    H125948   5.589   0.713   3.408 -0.0624 -0.1313 -0.5087
 1511TIP3    H225949   5.680   0.784   3.506 -1.0846  0.0161  0.3579
 1512TIP3   OH225950   0.579   2.327   3.161 -0.5017  0.2373  0.0218
 1512TIP3    H125951   0.491   2.346   3.192  0.4496  1.2606  2.3069
 1512TIP3    H225952   0.611   2.257   3.217  0.0751 -0.2721 -0.9182
 1513TIP3   OH225953   0.989   3.811  12.377  0.0528 -0.7150 -0.3759
 1513TIP3    H125954   1.025   3.809  12.466 -0.3196  0.6545 -0.1606
 1513TIP3    H225955   1.029   3.736  12.333  0.1490 -1.4987  0.9750
 1514TIP3   OH225956   3.981   5.097  12.462  0.1786 -0.2268  0.4033
 1514TIP3    H125957   4.059   5.114  12.515 -0.1539 -1.4357  1.3559
 1514TIP3    H225958   3.912   5.082  12.527 -0.6453 -0.0261 -0.4143
 1515TIP3   OH225959   2.610   0.361  16.971 -1.1116 -0.3371 -0.0149
 1515TIP3    H125960   2.662   0.348  17.051  0.1827  1.3090 -0.5218
 1515TIP3    H225961   2.664   0.324  16.902 -1.1750  0.2728 -0.3974
 1516TIP3   OH225962   2.350   0.614   3.530  0.0007 -0.5060  0.1956
 1516TIP3    H125963   2.409   0.576   3.595 -0.9464 -0.7469  0.9484
 1516TIP3    H225964   2.333   0.542   3.469 -0.3589 -0.7721  0.5981
 1517TIP3   OH225965   2.356   0.275   3.607 -0.3577 -0.1812  0.3737
 1517TIP3    H125966   2.410   0.205   3.644  3.2478  0.0316 -3.7226
 1517TIP3    H225967   2.387   0.355   3.649  0.2150 -0.4030  0.3775
 1518TIP3   OH225968   3.319   0.524  10.774  0.5183  0.1506 -0.4338
 1518TIP3    H125969   3.375   0.514  10.697 -0.1936 -0.5795 -0.8743
 1518TIP3    H225970   3.233   0.494  10.745  0.6729 -2.1198  1.1807
 1519TIP3   OH225971   4.781   3.304  12.489  0.3923 -0.0855 -0.4393
 1519TIP3    H125972   4.772   3.397  12.508  3.6455  0.2310  0.1419
 1519TIP3    H225973   4.829   3.301  12.406  2.9621 -1.0581  0.9483
 1520TIP3   OH225974   4.062   2.741   5.347 -0.6436  0.8885  0.4382
 1520TIP3    H125975   4.063   2.742   5.443 -0.2580  0.7870  0.4382
 1520TIP3    H225976   4.017   2.660   5.324 -2.6006  1.9080  0.5205
 1521TIP3   OH225977   4.221   6.326  15.020  0.0864  0.4026 -0.2241
 1521TIP3    H125978   4.176   6.397  14.975  0.3949  0.7970  0.0775
 1521TIP3    H225979   4.192   6.246  14.975 -0.9798  0.6376  0.0476
 1522TIP3   OH225980   6.766   6.273   0.658  0.1388  0.1354 -0.4115
 1522TIP3    H125981   6.780   6.249   0.749  1.5876  0.8181 -0.4157
 1522TIP3    H225982   6.777   6.191   0.609  0.0934 -0.0997 -0.0265
 1523TIP3   OH225983   1.490   3.673  10.490  0.3832  0.2218  0.6864
 1523TIP3    H125984   1.421   3.609  10.508  1.8040 -1.5501  0.1574
 1523TIP3    H225985   1.460   3.753  10.533 -1.7837 -0.5949  0.8159
 1524TIP3   OH225986   1.984   4.181  15.961  0.4461 -0.2675 -0.0276
 1524TIP3    H125987   1.938   4.178  15.877 -0.3239  0.2448  0.3626
 1524TIP3    H225988   2.071   4.214  15.940 -0.2495  1.4315 -0.4465
 1525TIP3   OH225989   6.475   2.403   4.024  0.1629  0.0980 -0.7819
 1525TIP3    H125990   6.422   2.325   4.007  1.1856 -0.9279  0.5550
 1525TIP3    H225991   6.505   2.392   4.114  2.3359  0.8422 -1.3706
 1526TIP3   OH225992   1.926   2.252  12.336  0.2635 -0.1721 -0.1107
 1526TIP3    H125993   2.021   2.259  12.333  0.5960 -3.4535 -1.9997
 1526TIP3    H225994   1.895   2.299  12.259  0.7582 -2.1561 -1.6030
 1527TIP3   OH225995   4.191   2.072  14.961 -0.0391  0.2089 -0.3878
 1527TIP3    H125996   4.113   2.053  15.014  0.0616 -0.5578 -0.5058
 1527TIP3    H225997   4.259   2.094  15.025  0.3277 -1.5621 -0.0988
 1528TIP3   OH225998   4.519   4.181   1.876 -0.0918  0.1013  0.4890
 1528TIP3    H125999   4.583   4.186   1.947 -0.9510  1.1118  1.2344
 1528TIP3    H226000   4.438   4.154   1.919 -0.3245 -0.5550 -0.3345
 1529TIP3   OH226001   3.047   0.522   5.819 -0.0622  0.5266  0.0351
 1529TIP3    H126002   3.137   0.550   5.805  0.5177 -0.6454  1.1332
 1529TIP3    H226003   3.007   0.523   5.732  1.5695 -0.7156 -0.7915
 1530TIP3   OH226004   6.274   3.200  13.730  0.3908 -0.3400  0.0269
 1530TIP3    H126005   6.226   3.136  13.783  1.9101 -0.7357  0.9827
 1530TIP3    H226006   6.243   3.185  13.641 -1.4231 -0.3967  0.6417
 1531TIP3   OH226007   5.930   1.215   2.916  0.1827 -0.0878  0.4245
 1531TIP3    H126008   5.974   1.299   2.926 -0.0561 -0.1549  2.4419
 1531TIP3    H226009   5.863   1.214   2.984 -1.5026 -0.9137 -1.1372
 1532TIP3   OH226010   3.727   3.927   5.011 -1.1112  0.3758  0.8696
 1532TIP3    H126011   3.769   3.922   4.926  0.4283  1.9747  1.4942
 1532TIP3    H226012   3.649   3.981   4.997 -1.9559 -0.9711  0.1227
 1533TIP3   OH226013   1.176   5.691  12.382 -0.1856 -0.2818 -0.2533
 1533TIP3    H126014   1.129   5.665  12.462 -0.7286  0.5890 -0.2640
 1533TIP3    H226015   1.195   5.609  12.337 -2.1891 -0.6822 -0.4994
 1534TIP3   OH226016   5.589   2.575  17.025 -0.0138  0.5239 -0.1996
 1534TIP3    H126017   5.664   2.570  16.966  0.3902 -0.2849  0.3544
 1534TIP3    H226018   5.623   2.616  17.104  0.3777 -1.5790  0.7882
 1535TIP3   OH226019   1.297   4.116  15.839  0.3187  0.3372 -0.6580
 1535TIP3    H126020   1.297   4.024  15.813  2.3125  0.2038 -0.3335
 1535TIP3    H226021   1.293   4.114  15.934  0.2961  0.5871 -0.6529
 1536TIP3   OH226022   4.443   3.219  13.831 -0.1073 -0.1227 -0.3175
 1536TIP3    H126023   4.508   3.202  13.899 -1.3506 -1.4027  0.6125
 1536TIP3    H226024   4.428   3.313  13.835 -0.1559 -0.1749  1.1952
 1537TIP3   OH226025   6.571   5.278  15.097 -0.5356  0.0726  0.2168
 1537TIP3    H126026   6.524   5.279  15.180  0.1697 -0.4009  0.6422
 1537TIP3    H226027   6.597   5.369  15.082 -0.3262  0.1002  0.7236
 1538TIP3   OH226028   3.559   5.647  11.520 -0.2241  0.2225 -0.4015
 1538TIP3    H126029   3.534   5.705  11.449  1.8609  0.6110 -0.8947
 1538TIP3    H226030   3.536   5.559  11.490 -0.0706  0.4602 -1.2323
 1539TIP3   OH226031   5.485   1.080   2.989  0.0157 -0.1038 -0.1178
 1539TIP3    H126032   5.524   1.129   3.061  1.5321 -0.5043 -0.6177
 1539TIP3    H226033   5.519   1.124   2.910  0.4835 -1.2346 -0.5700
 1540TIP3   OH226034   1.058   4.807  16.944  0.7193 -0.1801  0.4892
 1540TIP3    H126035   1.068   4.877  17.008  0.3086  0.5046 -0.1811
 1540TIP3    H226036   1.044   4.853  16.861  6.2356 -0.7559 -1.1587
 1541TIP3   OH226037   5.711   5.301   1.093  0.1766  0.2168 -0.2568
 1541TIP3    H126038   5.665   5.383   1.072  0.2532  0.7522  1.4961
 1541TIP3    H226039   5.645   5.246   1.135  0.5268  0.0155  0.0358
 1542TIP3   OH226040   2.095   6.588  10.488  0.4361 -0.1566 -0.0320
 1542TIP3    H126041   2.018   6.533  10.480  1.0100 -0.8534 -0.9807
 1542TIP3    H226042   2.112   6.620  10.399 -0.7451  2.8242  0.6810
 1543TIP3   OH226043   4.211   2.357  11.186 -0.2592 -0.3817  0.8775
 1543TIP3    H126044   4.164   2.430  11.146 -0.7846 -0.3897  1.4542
 1543TIP3    H226045   4.198   2.284  11.126 -0.6930 -0.2907  0.8540
 1544TIP3   OH226046   0.139   2.796   5.139 -0.3429  0.3304 -0.5918
 1544TIP3    H126047   0.127   2.713   5.094 -0.2481 -0.2453  0.3994
 1544TIP3    H226048   0.051   2.822   5.166 -0.1580 -0.6615  1.1295
 1545TIP3   OH226049   5.424   0.046  12.444  0.1285  0.0648 -0.4500
 1545TIP3    H126050   5.428   0.136  12.411  1.4213  0.8414  1.5912
 1545TIP3    H226051   5.516   0.024  12.462 -0.3100 -1.1083  0.4366
 1546TIP3   OH226052   1.868   5.112   4.757 -0.3702 -0.1970  0.2577
 1546TIP3    H126053   1.879   5.102   4.662 -1.8338 -2.6055  0.2839
 1546TIP3    H226054   1.803   5.181   4.767  0.8441  1.1029 -0.3878
 1547TIP3   OH226055   1.998   1.799   4.525 -0.1092  0.1622  0.0364
 1547TIP3    H126056   1.955   1.715   4.541 -1.6411  0.7512 -0.8261
 1547TIP3    H226057   2.067   1.779   4.462  0.1398 -0.5901  0.5315
 1548TIP3   OH226058   5.793   5.679   5.145 -0.4191  0.2902 -0.2954
 1548TIP3    H126059   5.797   5.675   5.241  1.3480  1.3590 -0.2940
 1548TIP3    H226060   5.704   5.710   5.127 -1.1827 -1.0515  0.9228
 1549TIP3   OH226061   3.342   6.611   1.884 -0.5936  0.1420 -0.2337
 1549TIP3    H126062   3.391   6.690   1.861 -0.7620 -0.0909 -1.4227
 1549TIP3    H226063   3.372   6.545   1.821 -3.4888  0.3620 -2.0320
 1550TIP3   OH226064   2.123   0.671   1.967  0.9432 -0.0700 -0.0872
 1550TIP3    H126065   2.122   0.756   2.010  0.2763 -0.0005 -0.2201
 1550TIP3    H226066   2.212   0.661   1.934  1.0279  0.5732 -0.0657
 1551TIP3   OH226067   1.765   4.908  15.256  0.3276 -0.2686  0.4198
 1551TIP3    H126068   1.696   4.894  15.321 -0.2979 -3.9124 -0.7671
 1551TIP3    H226069   1.842   4.867  15.294  0.7543  0.1755  0.0489
 1552TIP3   OH226070   3.216   1.352   3.357 -0.4117 -0.2809 -0.2804
 1552TIP3    H126071   3.127   1.352   3.321 -0.4915  1.3998 -0.1770
 1552TIP3    H226072   3.231   1.262   3.385 -1.7699 -0.7755 -1.0512
 1553TIP3   OH226073   0.088   2.372   0.992  0.3719  0.4055  0.5981
 1553TIP3    H126074   0.049   2.450   1.033 -0.6187 -0.4143  1.2531
 1553TIP3    H226075   0.179   2.372   1.024  0.3523  1.2091  0.6905
 1554TIP3   OH226076   0.714   1.396  12.886  0.1993 -0.2757  0.1681
 1554TIP3    H126077   0.651   1.430  12.950 -3.0780 -0.5930 -2.6365
 1554TIP3    H226078   0.743   1.474  12.839  0.9794 -0.2801  0.6235
 1555TIP3   OH226079   6.333   0.202   0.479 -0.1362 -0.1481 -0.3274
 1555TIP3    H126080   6.310   0.114   0.508 -1.2734  1.0873  3.0143
 1555TIP3    H226081   6.253   0.253   0.491  0.7535  1.5745 -1.2936
 1556TIP3   OH226082   5.712   4.343   1.151 -0.1192  0.2106  0.1520
 1556TIP3    H126083   5.659   4.341   1.072 -1.4370 -2.0551  1.0049
 1556TIP3    H226084   5.651   4.320   1.222  1.2707  0.9852  1.6745
 1557TIP3   OH226085   1.858   4.368   0.283 -0.2295 -0.0476 -0.7320
 1557TIP3    H126086   1.916   4.422   0.230  1.5577 -1.8136 -0.6813
 1557TIP3    H226087   1.808   4.317   0.219  0.1489 -0.3937 -0.7538
 1558TIP3   OH226088   5.776   4.981  14.405 -0.2634 -0.3733  0.1235
 1558TIP3    H126089   5.762   4.894  14.368  1.7790 -0.3209 -0.9092
 1558TIP3    H226090   5.802   4.964  14.496  0.0096 -0.8249 -0.0381
 1559TIP3   OH226091   3.836   2.252  15.213  0.2062 -0.0987  0.4473
 1559TIP3    H126092   3.794   2.208  15.287 -0.0600 -0.0094  0.3511
 1559TIP3    H226093   3.918   2.286  15.248  0.4259 -0.6875  0.5211
 1560TIP3   OH226094   4.003   6.389   2.484  0.2436  0.2212  0.5623
 1560TIP3    H126095   4.012   6.415   2.576 -0.4055 -1.2056  1.0446
 1560TIP3    H226096   4.094   6.386   2.452  0.4713  0.8147  1.1104
 1561TIP3   OH226097   4.800   3.704  15.028  0.0334  0.4691 -0.0081
 1561TIP3    H126098   4.761   3.642  15.090  0.0376  0.2732 -0.1984
 1561TIP3    H226099   4.751   3.691  14.947  0.0179  0.7350 -0.0415
 1562TIP3   OH226100   0.690   1.021  13.394 -0.1185  0.3394 -0.0732
 1562TIP3    H126101   0.615   1.053  13.345 -0.4168 -0.3146 -0.0605
 1562TIP3    H226102   0.665   0.932  13.420  1.1745 -0.3901 -1.2053
 1563TIP3   OH226103   6.165   1.376  16.735  0.6187 -0.6047  0.8603
 1563TIP3    H126104   6.254   1.348  16.757  2.0649  0.5015 -2.7212
 1563TIP3    H226105   6.177   1.438  16.662 -3.1155 -0.7484 -0.0887
 1564TIP3   OH226106   6.149   1.526   5.997 -0.2078 -0.0329 -0.1165
 1564TIP3    H126107   6.131   1.436   5.969 -2.2141  0.7289 -1.4819
 1564TIP3    H226108   6.080   1.547   6.059  0.2235  0.5886  0.1689
 1565TIP3   OH226109   5.302   2.369  13.800  0.0833  0.2743  0.6921
 1565TIP3    H126110   5.358   2.295  13.777 -1.8826 -1.2280  0.4447
 1565TIP3    H226111   5.333   2.396  13.886  0.6758 -1.0342  0.9181
 1566TIP3   OH226112   1.812   6.540   0.643 -0.0674 -0.0309 -0.3048
 1566TIP3    H126113   1.801   6.577   0.731  0.2794  1.0077 -0.6873
 1566TIP3    H226114   1.722   6.522   0.614 -0.1370 -1.3715  0.6559
 1567TIP3   OH226115   6.166   0.242  15.779 -0.9038  0.3495 -0.4040
 1567TIP3    H126116   6.222   0.172  15.813  0.4860 -0.2008 -3.4748
 1567TIP3    H226117   6.077   0.212  15.797 -0.2964 -0.3047  1.7806
 1568TIP3   OH226118   4.624   3.745  11.701 -0.1110 -0.3452 -0.0277
 1568TIP3    H126119   4.636   3.754  11.795  0.2781 -0.3498 -0.0760
 1568TIP3    H226120   4.689   3.804  11.663 -0.0310 -0.6048 -0.2977
 1569TIP3   OH226121   0.594   6.659  12.994  0.6795  0.1941 -0.0190
 1569TIP3    H126122   0.558   6.658  12.905  0.7510  1.2466 -0.0759
 1569TIP3    H226123   0.521   6.687  13.049  0.4421 -1.1240  0.3627
 1570TIP3   OH226124   3.489   0.600   4.363  0.2049 -0.8789  0.0505
 1570TIP3    H126125   3.482   0.681   4.313 -2.0644 -1.2339 -0.3312
 1570TIP3    H226126   3.401   0.586   4.399  0.6877 -2.8535  0.6226
 1571TIP3   OH226127   0.482   0.841  15.757  0.1363 -0.8991  0.1503
 1571TIP3    H126128   0.558   0.885  15.719 -0.3739 -1.2488 -1.3288
 1571TIP3    H226129   0.519   0.782  15.823  1.0525 -0.3227  0.1721
 1572TIP3   OH226130   5.835   6.534  17.204 -0.1978  0.1880 -0.0710
 1572TIP3    H126131   5.818   6.592  17.130 -1.5211  0.8622  0.7204
 1572TIP3    H226132   5.800   6.581  17.280 -3.1996 -2.4127  0.3749
 1573TIP3   OH226133   2.712   3.807   0.423  0.3271 -0.1862 -0.1604
 1573TIP3    H126134   2.711   3.782   0.330  1.3990  3.0005 -1.1643
 1573TIP3    H226135   2.640   3.871   0.430  0.0846 -0.6024  1.2992
 1574TIP3   OH226136   3.950   2.872  14.672  0.5778 -0.1346 -0.4771
 1574TIP3    H126137   4.011   2.852  14.602 -0.0177  0.8300 -1.2995
 1574TIP3    H226138   3.871   2.902  14.627  0.4392  1.2165  0.5983
 1575TIP3   OH226139   2.617   0.904  16.027  0.2307  0.1584 -1.2277
 1575TIP3    H126140   2.658   0.948  15.952 -1.4013  2.4680 -0.8683
 1575TIP3    H226141   2.629   0.966  16.100 -2.2518  0.1089 -0.7075
 1576TIP3   OH226142   3.591   2.512   1.907  0.0810  0.1995 -0.0742
 1576TIP3    H126143   3.658   2.534   1.972 -0.9065  1.7579  0.4526
 1576TIP3    H226144   3.638   2.516   1.823  0.4810  2.1653  0.2036
 1577TIP3   OH226145   0.181   2.146   6.202  0.0151  0.2888 -0.3328
 1577TIP3    H126146   0.274   2.155   6.223 -0.1279  0.8110  0.0855
 1577TIP3    H226147   0.159   2.229   6.158 -0.5490  0.6906  0.6833
 1578TIP3   OH226148   0.540   5.923  16.832 -0.2735  0.1708 -0.1913
 1578TIP3    H126149   0.581   6.009  16.823  0.1214  0.3639  2.6193
 1578TIP3    H226150   0.489   5.912  16.751 -0.0965  2.8833 -0.7669
 1579TIP3   OH226151   6.337   1.327  14.586 -0.3395  0.0710  0.4731
 1579TIP3    H126152   6.432   1.331  14.573  0.0669  0.3554  3.0538
 1579TIP3    H226153   6.325   1.261  14.654 -1.8167  1.2965  1.4649
 1580TIP3   OH226154   3.443   0.412  13.019 -0.0989 -0.1906 -0.0096
 1580TIP3    H126155   3.356   0.452  13.012  0.4494  0.9739 -0.4553
 1580TIP3    H226156   3.430   0.336  13.075 -0.8834  1.6139  2.4200
 1581TIP3   OH226157   0.966   0.013  14.269  0.3651 -0.2384  0.6628
 1581TIP3    H126158   0.935  -0.060  14.324 -0.4168 -0.1695  0.3195
 1581TIP3    H226159   1.032  -0.027  14.212 -0.1032 -0.7030  0.4327
 1582TIP3   OH226160   6.023   3.654  17.115 -0.1183  0.3150  0.1127
 1582TIP3    H126161   6.085   3.712  17.160 -1.1243  0.9011  0.7647
 1582TIP3    H226162   6.054   3.651  17.024  1.2218  0.1003  0.5481
 1583TIP3   OH226163   5.795   4.311   1.909  0.2913 -0.2182  0.3819
 1583TIP3    H126164   5.853   4.237   1.924 -0.6899 -1.1552 -0.2537
 1583TIP3    H226165   5.753   4.325   1.994  1.7226  0.7385  0.9532
 1584TIP3   OH226166   1.218   6.653   4.654  0.2997  0.2226  0.4536
 1584TIP3    H126167   1.149   6.625   4.594  0.8032  0.3587 -0.2121
 1584TIP3    H226168   1.253   6.572   4.690  2.0648 -0.1329 -1.8181
 1585TIP3   OH226169   0.950   1.125   0.465  0.1995  0.3904  0.0950
 1585TIP3    H126170   0.946   1.195   0.529  0.5896  1.2738 -0.8216
 1585TIP3    H226171   1.042   1.123   0.437 -0.3618  1.5397 -2.0379
 1586TIP3   OH226172   3.884   2.284  16.563 -0.1582  0.2488 -0.0146
 1586TIP3    H126173   3.794   2.309  16.541 -0.2371 -0.9126 -1.1431
 1586TIP3    H226174   3.877   2.193  16.591  0.6240  0.2681  0.2603
 1587TIP3   OH226175   6.255   4.160  15.108  0.0851 -0.0544  0.0622
 1587TIP3    H126176   6.208   4.122  15.034  0.1410 -0.2464  0.1256
 1587TIP3    H226177   6.312   4.090  15.139  1.3446  0.5609 -0.7968
 1588TIP3   OH226178   3.105   1.168   3.690 -0.2092 -0.4843 -0.0994
 1588TIP3    H126179   3.159   1.170   3.611  0.4095  0.7830  0.3294
 1588TIP3    H226180   3.018   1.142   3.658  0.6781 -2.8383 -0.7494
 1589TIP3   OH226181   3.131   0.190   6.337 -0.2752  1.0234 -0.1121
 1589TIP3    H126182   3.052   0.155   6.378  0.0541  0.1052 -0.2211
 1589TIP3    H226183   3.202   0.164   6.396 -0.0873  2.2160  0.2079
 1590TIP3   OH226184   1.615   0.379  10.900 -0.9236 -0.4659 -0.0055
 1590TIP3    H126185   1.539   0.405  10.952 -1.9427 -0.7967 -1.2764
 1590TIP3    H226186   1.608   0.429  10.819  1.7332  1.5699  0.8716
 1591TIP3   OH226187   3.741   3.138   2.740  0.4922  0.0675  0.1158
 1591TIP3    H126188   3.732   3.052   2.782  0.2050 -0.8906 -1.7746
 1591TIP3    H226189   3.750   3.117   2.647  1.2072  2.0736 -0.3043
 1592TIP3   OH226190   2.674   5.881   1.298  0.0569  0.3826 -0.2750
 1592TIP3    H126191   2.691   5.787   1.306 -0.4860  0.3300  0.3711
 1592TIP3    H226192   2.755   5.917   1.263  0.4844 -0.2506  0.0346
 1593TIP3   OH226193   4.935   1.834  12.434 -0.0933  0.0141  0.0044
 1593TIP3    H126194   4.863   1.817  12.495 -0.1132  0.2362  0.0416
 1593TIP3    H226195   5.011   1.847  12.490 -0.2412  0.8944  0.0200
 1594TIP3   OH226196   0.557   0.071  14.506  0.0643  0.4617 -0.0590
 1594TIP3    H126197   0.561   0.137  14.437 -1.2162  0.9690  0.3301
 1594TIP3    H226198   0.608   0.109  14.578 -0.4602  0.9231  0.0739
 1595TIP3   OH226199   4.157   3.306  16.774  0.3927  0.5970  0.0268
 1595TIP3    H126200   4.211   3.276  16.848  0.7981  2.3929  0.5390
 1595TIP3    H226201   4.198   3.389  16.747 -0.5743  0.6780 -1.3144
 1596TIP3   OH226202   6.476   4.226  11.179 -0.4935  0.9690  0.1431
 1596TIP3    H126203   6.462   4.269  11.264 -2.2665  1.2823 -0.2686
 1596TIP3    H226204   6.425   4.145  11.185  1.2294 -0.1572  0.1879
 1597TIP3   OH226205   5.218   4.452  17.054 -0.0354 -0.0336  0.2541
 1597TIP3    H126206   5.182   4.541  17.055 -1.8579 -0.7276  1.6613
 1597TIP3    H226207   5.297   4.459  17.107 -1.1215  0.4345  1.8872
 1598TIP3   OH226208   0.207   3.413   1.887 -0.3782 -0.4685 -0.0816
 1598TIP3    H126209   0.220   3.505   1.866 -1.7849 -0.4274 -0.8653
 1598TIP3    H226210   0.133   3.413   1.948 -1.4506 -1.1794 -1.3450
 1599TIP3   OH226211   1.356   2.575  11.927 -0.8930 -0.2880  0.2033
 1599TIP3    H126212   1.366   2.499  11.984 -1.0152 -0.6572 -0.2648
 1599TIP3    H226213   1.335   2.647  11.987 -0.0492 -0.4613  0.7196
 1600TIP3   OH226214   0.361   2.947   4.035  0.0293 -0.2314  0.1377
 1600TIP3    H126215   0.423   3.018   4.017 -0.0905 -0.3803 -0.8816
 1600TIP3    H226216   0.355   2.946   4.131  2.1165 -0.6445  0.3214
 1601TIP3   OH226217   6.343   5.046  15.977  0.4221  0.3607 -0.5164
 1601TIP3    H126218   6.298   5.097  15.910  1.8428  0.6999 -1.2411
 1601TIP3    H226219   6.400   4.987  15.928 -0.5840 -1.3918  0.3272
 1602TIP3   OH226220   2.122   1.016  15.341  0.6049 -0.5453  0.2203
 1602TIP3    H126221   2.040   1.040  15.384  1.1147  1.9521 -0.0240
 1602TIP3    H226222   2.190   1.062  15.390  1.5427 -0.2501 -1.2763
 1603TIP3   OH226223   2.691   0.853   6.708  0.0016 -0.3920  0.4827
 1603TIP3    H126224   2.639   0.863   6.628  1.7598  0.9983 -0.5800
 1603TIP3    H226225   2.674   0.934   6.757  1.2291  0.1650  0.0360
 1604TIP3   OH226226   6.177   4.857  11.810 -0.0388 -0.8290 -0.3530
 1604TIP3    H126227   6.231   4.802  11.868 -0.0581 -1.6842 -1.1137
 1604TIP3    H226228   6.111   4.797  11.776 -0.5980 -0.1181 -0.5430
 1605TIP3   OH226229   5.679   3.211  12.944 -0.9652 -1.1237 -0.8319
 1605TIP3    H126230   5.689   3.211  13.039 -0.1482  0.4422 -0.8725
 1605TIP3    H226231   5.724   3.132  12.915 -1.5836 -1.8366  0.0986
 1606TIP3   OH226232   6.708   6.667   5.034 -0.0503 -0.3775  0.2072
 1606TIP3    H126233   6.650   6.716   4.976 -0.0679 -1.4662 -0.7452
 1606TIP3    H226234   6.733   6.729   5.102  1.1726  1.4183 -1.7709
 1607TIP3   OH226235   4.576   6.244  12.727  0.1879 -0.2940  0.5765
 1607TIP3    H126236   4.487   6.226  12.758 -0.2949 -2.1771 -1.6108
 1607TIP3    H226237   4.581   6.339  12.722 -2.1328 -0.1525 -0.3291
 1608TIP3   OH226238   3.583   3.674  15.582 -0.5162  0.2510 -0.0168
 1608TIP3    H126239   3.677   3.673  15.600 -0.8744 -0.4019  2.1638
 1608TIP3    H226240   3.567   3.758  15.540  1.1646 -0.0368 -1.3225
 1609TIP3   OH226241   6.718   3.467   2.062  0.2910  0.0722  0.1321
 1609TIP3    H126242   6.702   3.486   1.970 -2.3481 -0.1543  0.4674
 1609TIP3    H226243   6.682   3.379   2.076  0.6922  0.0802  1.3642
 1610TIP3   OH226244   1.775   3.616  15.706  0.5130  0.3917 -0.4123
 1610TIP3    H126245   1.816   3.561  15.639  1.0313  1.5253 -1.0449
 1610TIP3    H226246   1.682   3.613  15.686  0.5127 -0.3999 -0.3209
 1611TIP3   OH226247   6.621   3.085   3.874 -0.0751  0.1872  0.0544
 1611TIP3    H126248   6.689   3.022   3.851  0.0079  1.1484 -2.6902
 1611TIP3    H226249   6.622   3.087   3.970  2.0439 -1.6305  0.1622
 1612TIP3   OH226250   3.968   4.725   2.982  0.6151  0.4266 -0.5090
 1612TIP3    H126251   4.035   4.715   2.914 -1.1451  0.0973 -2.2718
 1612TIP3    H226252   3.993   4.662   3.049  1.3475 -0.6474 -1.7446
 1613TIP3   OH226253   5.733   1.627  12.498  0.4231  0.1230 -0.3117
 1613TIP3    H126254   5.693   1.651  12.581  1.1066  3.0179 -0.7314
 1613TIP3    H226255   5.827   1.631  12.514  0.5677 -0.7307 -0.8692
 1614TIP3   OH226256   4.356   5.639  16.622 -0.2452 -0.0073 -0.2732
 1614TIP3    H126257   4.272   5.661  16.662  0.4525  0.2419  1.1033
 1614TIP3    H226258   4.360   5.694  16.544 -2.4679 -1.8694 -1.8514
 1615TIP3   OH226259   6.231   2.604   4.264 -0.1011  0.6921 -0.0749
 1615TIP3    H126260   6.179   2.612   4.183 -0.2615  0.1556 -0.0281
 1615TIP3    H226261   6.320   2.625   4.237 -0.4750  2.6973  0.0492
 1616TIP3   OH226262   0.103   2.209   0.452 -0.0413 -0.5888  0.1809
 1616TIP3    H126263   0.092   2.118   0.423 -0.4780 -0.1659 -1.0430
 1616TIP3    H226264   0.132   2.202   0.543  0.8035 -1.9645 -0.1666
 1617TIP3   OH226265   0.719   6.527   1.743  0.1948  0.2990  0.0238
 1617TIP3    H126266   0.783   6.494   1.807 -0.2212 -2.2143 -0.7229
 1617TIP3    H226267   0.634   6.499   1.777  0.0786 -2.9227 -2.4254
 1618TIP3   OH226268   4.363   1.021   5.774  0.0786 -0.2459  0.2585
 1618TIP3    H126269   4.277   1.035   5.815 -0.4466 -2.0773 -0.1522
 1618TIP3    H226270   4.361   1.076   5.695  0.1778  1.4448  1.3876
 1619TIP3   OH226271   6.005   2.916   4.786  0.4183 -0.9147  0.0121
 1619TIP3    H126272   6.052   2.843   4.826 -0.8443 -1.7073  0.1031
 1619TIP3    H226273   5.914   2.887   4.783 -0.0672  0.5525 -0.2058
 1620TIP3   OH226274   1.640   1.383   4.771 -0.3392  0.1018 -0.3629
 1620TIP3    H126275   1.698   1.364   4.697  0.3266  1.9773 -0.4011
 1620TIP3    H226276   1.591   1.302   4.786 -0.1554 -0.4659 -2.5401
 1621TIP3   OH226277   1.204   1.463  14.835 -0.8227  0.0887 -0.1546
 1621TIP3    H126278   1.220   1.411  14.914 -1.1737 -0.0321 -0.1639
 1621TIP3    H226279   1.178   1.399  14.769 -0.3134  0.1623 -0.4324
 1622TIP3   OH226280   6.550   5.724   0.523  0.7655 -0.3967  0.0817
 1622TIP3    H126281   6.495   5.645   0.523  0.8132 -0.4880 -2.3509
 1622TIP3    H226282   6.613   5.708   0.594 -0.4558 -1.6210  0.9650
 1623TIP3   OH226283   1.432   3.353   3.139 -0.3827  0.1001 -0.8419
 1623TIP3    H126284   1.350   3.353   3.188 -0.3260  1.2745 -0.7169
 1623TIP3    H226285   1.490   3.408   3.190  0.7998 -1.4533 -0.4528
 1624TIP3   OH226286   1.780   2.919   1.400  0.1715 -0.2961 -0.2923
 1624TIP3    H126287   1.855   2.965   1.436  1.2132 -0.4825 -2.0877
 1624TIP3    H226288   1.707   2.980   1.410  1.2603  1.2995 -1.4978
 1625TIP3   OH226289   5.120   0.657  13.289 -0.6768 -0.1539 -0.4643
 1625TIP3    H126290   5.096   0.565  13.277 -2.6126  0.1137  0.9520
 1625TIP3    H226291   5.117   0.671  13.384  0.3568  1.1968 -0.5932
 1626TIP3   OH226292   6.314   3.605  15.933 -0.7039 -0.4040 -0.5519
 1626TIP3    H126293   6.258   3.681  15.924 -0.5321 -0.3672 -1.4821
 1626TIP3    H226294   6.315   3.586  16.026  0.2633  1.4887 -0.1340
 1627TIP3   OH226295   1.148   2.120   1.096  0.4304 -0.0662 -0.0168
 1627TIP3    H126296   1.066   2.072   1.110  0.8279 -0.9788 -0.7903
 1627TIP3    H226297   1.163   2.164   1.180 -1.4983  1.1540 -0.2299
 1628TIP3   OH226298   1.056   1.714   2.555 -0.3832  0.5283 -0.0126
 1628TIP3    H126299   1.126   1.665   2.596 -1.3520 -0.5131  0.4377
 1628TIP3    H226300   0.978   1.693   2.606 -1.2129  0.9064 -1.0802
 1629TIP3   OH226301   0.077   3.720   4.044  0.2387  0.0940  0.3987
 1629TIP3    H126302   0.002   3.663   4.060  1.4686 -1.6013  0.3958
 1629TIP3    H226303   0.078   3.732   3.949 -0.3193  0.5546  0.4484
 1630TIP3   OH226304   0.355   6.123  13.835 -0.0489  0.0280 -0.0337
 1630TIP3    H126305   0.391   6.154  13.918 -1.2241 -0.7422  0.7949
 1630TIP3    H226306   0.337   6.203  13.785  1.7851  0.4608 -0.0721
 1631TIP3   OH226307   3.811   4.713   0.048 -0.4960  0.8465 -0.0219
 1631TIP3    H126308   3.852   4.792   0.012 -0.7660  0.7045 -0.6361
 1631TIP3    H226309   3.880   4.673   0.102 -0.0269  0.9463 -0.5418
 1632TIP3   OH226310   3.763   6.093  15.057 -0.1279 -0.6530 -0.6628
 1632TIP3    H126311   3.840   6.049  15.022  0.0898 -1.1005  0.3673
 1632TIP3    H226312   3.691   6.061  15.002  0.4674  0.2648 -2.0614
 1633TIP3   OH226313   6.342   2.785   5.075  0.3733  0.1016  0.3541
 1633TIP3    H126314   6.264   2.766   5.024  0.4916  0.7487 -0.0792
 1633TIP3    H226315   6.311   2.839   5.148  0.3974  0.2738  0.2382
 1634TIP3   OH226316   4.039   3.086  14.185  0.2124 -0.1400 -0.7290
 1634TIP3    H126317   4.078   3.080  14.097 -0.2552 -2.1426 -0.8577
 1634TIP3    H226318   3.964   3.144  14.174  0.7365  0.4276 -1.4252
 1635TIP3   OH226319   5.675   4.060   0.731 -0.0870  0.5526  0.4214
 1635TIP3    H126320   5.768   4.041   0.742 -0.3650 -0.3311  1.3496
 1635TIP3    H226321   5.669   4.155   0.739  0.5494  0.4945  1.7872
 1636TIP3   OH226322   2.147   1.498  15.981  0.1698 -0.7506 -0.5187
 1636TIP3    H126323   2.054   1.478  15.975 -0.1171 -0.3062  1.6505
 1636TIP3    H226324   2.187   1.419  16.018  0.6167 -0.8550 -1.2163
 1637TIP3   OH226325   2.877   5.194  17.127  0.0880 -0.3641 -0.4360
 1637TIP3    H126326   2.904   5.278  17.090 -2.0527  0.8454  0.5411
 1637TIP3    H226327   2.785   5.185  17.103 -0.7914 -0.5774  2.5065
 1638TIP3   OH226328   5.046   4.227  11.183  0.8974 -0.0382 -0.2202
 1638TIP3    H126329   4.992   4.158  11.143 -0.5249  0.1940  1.2153
 1638TIP3    H226330   5.090   4.183  11.255  0.4937  0.3973  0.2958
 1639TIP3   OH226331   2.659   4.299  14.304  0.2315  0.0894 -0.0541
 1639TIP3    H126332   2.572   4.261  14.301 -0.2714  1.2354 -0.4427
 1639TIP3    H226333   2.680   4.318  14.212  0.1529  1.4269  0.1864
 1640TIP3   OH226334   4.963   3.696  16.845  0.0986 -0.3334 -0.0523
 1640TIP3    H126335   5.028   3.664  16.907  0.9543 -1.6746 -1.5429
 1640TIP3    H226336   4.885   3.643  16.863  0.3366 -0.7000 -0.0829
 1641TIP3   OH226337   5.954   5.581   2.152 -0.0805  0.1938  0.0231
 1641TIP3    H126338   6.037   5.566   2.197  0.1545  1.5264  0.0852
 1641TIP3    H226339   5.921   5.663   2.189 -0.5695  0.5956 -1.2404
 1642TIP3   OH226340   2.880   0.356   0.183  0.1686 -0.4062 -0.4808
 1642TIP3    H126341   2.857   0.391   0.269 -0.1203 -1.3174 -0.1736
 1642TIP3    H226342   2.952   0.295   0.200  1.3559  0.7579 -1.1427
 1643TIP3   OH226343   6.327   2.628  14.583  0.4470 -0.1636 -0.0795
 1643TIP3    H126344   6.398   2.629  14.518  0.1018  1.2336 -0.4716
 1643TIP3    H226345   6.247   2.631  14.530  0.1651  1.3557  0.3914
 1644TIP3   OH226346   4.360   2.551  11.288 -0.4078  0.7711 -0.7508
 1644TIP3    H126347   4.299   2.488  11.251  1.1853 -0.2969 -1.7040
 1644TIP3    H226348   4.359   2.534  11.382  2.0867 -2.8356 -1.1662
 1645TIP3   OH226349   2.648   1.299   1.374  0.3923  0.0959  0.1957
 1645TIP3    H126350   2.611   1.248   1.302  0.5359  0.3038 -0.0300
 1645TIP3    H226351   2.601   1.383   1.371  1.2856  0.5901 -0.4748
 1646TIP3   OH226352   4.407   5.247   1.578 -0.6110  0.2599  0.1964
 1646TIP3    H126353   4.325   5.207   1.609 -1.7803  0.4499 -2.4085
 1646TIP3    H226354   4.394   5.341   1.593  0.3977  0.1152  2.4161
 1647TIP3   OH226355   2.132   4.814   3.903  0.6349  0.2146 -0.1478
 1647TIP3    H126356   2.188   4.859   3.966  1.6783  0.5172 -1.2453
 1647TIP3    H226357   2.065   4.878   3.880  1.5656  0.9068 -1.0008
 1648TIP3   OH226358   0.115   2.949   3.900 -0.0617  0.3467 -0.7902
 1648TIP3    H126359   0.189   2.974   3.956 -0.5767 -1.1230  0.6229
 1648TIP3    H226360   0.127   2.856   3.884 -2.9834 -0.6516  1.8155
 1649TIP3   OH226361   5.932   5.564  17.249 -0.4197 -0.1440  0.2605
 1649TIP3    H126362   6.007   5.614  17.280 -0.3643 -0.1376  0.1109
 1649TIP3    H226363   5.875   5.628  17.208 -1.0043  0.0317  1.3053
 1650TIP3   OH226364   0.627   6.660  11.999 -0.4109 -0.2225  0.8223
 1650TIP3    H126365   0.635   6.566  11.984  1.0277 -0.0235  0.1652
 1650TIP3    H226366   0.715   6.694  11.986 -0.3904  0.9276  3.3987
 1651TIP3   OH226367   0.042   0.805   6.402  0.1001  0.1168 -0.1073
 1651TIP3    H126368   0.073   0.886   6.362 -1.0851  1.0211  0.7569
 1651TIP3    H226369   0.118   0.747   6.401  1.4887  1.8565  0.9256
 1652TIP3   OH226370   5.559   4.041   2.913  0.0305 -0.1377  0.3455
 1652TIP3    H126371   5.604   4.063   2.995 -1.1643 -2.2026  1.6526
 1652TIP3    H226372   5.602   3.961   2.883 -0.2078  0.0531 -0.5335
 1653TIP3   OH226373   0.902   1.109   4.594 -0.5807  0.5037 -0.3269
 1653TIP3    H126374   0.956   1.044   4.550 -0.0129 -0.7556  2.0472
 1653TIP3    H226375   0.817   1.104   4.551 -0.0234 -0.5267 -1.3380
 1654TIP3   OH226376   5.717   6.674  17.028 -0.4794  0.0159  0.1011
 1654TIP3    H126377   5.656   6.666  16.954 -0.2018 -0.4691 -0.0727
 1654TIP3    H226378   5.695   6.759  17.067  0.0282  0.7415 -1.1316
 1655TIP3   OH226379   2.349   0.161   0.174  0.1300  0.2880 -0.0793
 1655TIP3    H126380   2.262   0.170   0.135  0.3597  1.0063 -0.4406
 1655TIP3    H226381   2.377   0.072   0.151  0.3226  0.7432 -1.7137
 1656TIP3   OH226382   0.616   4.761  11.815 -0.0073  0.0988  0.0588
 1656TIP3    H126383   0.578   4.820  11.750 -0.6303 -2.1007 -1.6531
 1656TIP3    H226384   0.558   4.770  11.891  0.6351  2.5776  0.3695
 1657TIP3   OH226385   6.216   0.427  15.423 -0.4524 -0.4562  0.5075
 1657TIP3    H126386   6.296   0.375  15.436  0.8737  1.2293 -0.4987
 1657TIP3    H226387   6.202   0.470  15.507  0.0679 -0.2737  0.5050
 1658TIP3   OH226388   1.725   1.821   2.107 -0.2920  0.4770  0.4053
 1658TIP3    H126389   1.727   1.850   2.198  1.1981 -0.0131  0.5501
 1658TIP3    H226390   1.681   1.736   2.110 -0.3629  0.5205  0.6385
 1659TIP3   OH226391   4.093   5.632   1.682  0.0215  0.6832 -0.0463
 1659TIP3    H126392   4.090   5.723   1.653 -4.2013  0.8933  0.3592
 1659TIP3    H226393   4.013   5.592   1.645  0.7990 -2.3934  1.2370
 1660TIP3   OH226394   3.467   1.891  14.722 -0.3270  0.1962 -0.3156
 1660TIP3    H126395   3.556   1.888  14.688 -0.1264 -0.1843  0.2386
 1660TIP3    H226396   3.477   1.908  14.815 -0.8258 -0.1056 -0.2031
 1661TIP3   OH226397   3.042   4.149   2.751  0.6012  0.1756 -0.1215
 1661TIP3    H126398   3.112   4.185   2.696  1.1353  0.7506  0.9147
 1661TIP3    H226399   2.964   4.199   2.728  0.9730  0.8660  0.1125
 1662TIP3   OH226400   0.332   4.868   1.706  0.0249 -0.2234 -0.0707
 1662TIP3    H126401   0.325   4.913   1.790 -3.6214 -3.0427  1.3742
 1662TIP3    H226402   0.289   4.927   1.644 -1.0078  0.0904  0.9160
 1663TIP3   OH226403   2.753   0.375   3.476  0.0768 -0.6994 -0.1836
 1663TIP3    H126404   2.720   0.307   3.417  0.3541 -0.4291 -0.6588
 1663TIP3    H226405   2.831   0.336   3.516 -0.3449 -1.0328  0.3114
 1664TIP3   OH226406   5.427   1.962   4.920 -0.0856 -0.2057  0.0528
 1664TIP3    H126407   5.350   1.907   4.934  0.6952 -1.9104 -1.8711
 1664TIP3    H226408   5.488   1.906   4.872  1.0467  2.1304 -1.4094
 1665TIP3   OH226409   2.073   1.331  16.324 -0.2164 -0.1627 -0.1653
 1665TIP3    H126410   2.035   1.315  16.411  0.6762  0.7244  0.4134
 1665TIP3    H226411   2.077   1.426  16.317  2.0087 -0.2054 -0.1300
 1666TIP3   OH226412   2.075   4.156   1.310  0.2769 -0.2550 -0.3945
 1666TIP3    H126413   2.147   4.190   1.257 -0.3393 -0.0040 -1.0877
 1666TIP3    H226414   2.083   4.201   1.394  0.1441  0.7786 -0.9232
 1667TIP3   OH226415   4.379   2.762  16.402 -0.5128 -0.2683 -0.4899
 1667TIP3    H126416   4.311   2.822  16.433 -3.0769 -3.2806  0.2106
 1667TIP3    H226417   4.379   2.773  16.307 -0.8876  0.8351 -0.3728
 1668TIP3   OH226418   5.842   1.110  11.752 -0.4747  0.6750  0.2752
 1668TIP3    H126419   5.860   1.118  11.846  1.8035  1.5103 -0.1781
 1668TIP3    H226420   5.907   1.167  11.710 -1.2065  0.0344 -1.8286
 1669TIP3   OH226421   4.301   3.272   4.919  0.2337  0.0823 -0.3193
 1669TIP3    H126422   4.318   3.178   4.916 -1.1227 -0.2050  0.2652
 1669TIP3    H226423   4.343   3.306   4.840 -1.7776 -1.4659 -2.1886
 1670TIP3   OH226424   2.648   6.486  15.567 -0.1821  0.2289 -0.2327
 1670TIP3    H126425   2.725   6.435  15.540 -0.5778  0.1853 -1.3008
 1670TIP3    H226426   2.597   6.425  15.620  0.0158 -0.0636 -0.3731
 1671TIP3   OH226427   1.102   3.496  16.836 -0.1919 -0.4577  0.3883
 1671TIP3    H126428   1.130   3.447  16.914 -3.4455 -1.9164  0.8048
 1671TIP3    H226429   1.008   3.506  16.847 -0.0935  3.6196 -1.0762
 1672TIP3   OH226430   5.609   2.649  12.753  0.4864  0.2256  0.0323
 1672TIP3    H126431   5.654   2.575  12.713  0.1358  0.7859 -1.4772
 1672TIP3    H226432   5.544   2.609  12.810  0.4181 -0.6470 -0.6252
 1673TIP3   OH226433   2.594   6.340   2.009  0.3828  0.2850 -0.4942
 1673TIP3    H126434   2.661   6.276   2.031 -0.1845 -0.1363  0.0373
 1673TIP3    H226435   2.634   6.425   2.028  0.3233 -0.0125  1.0762
 1674TIP3   OH226436   0.741   5.460  13.816 -0.0813 -0.0654 -0.2154
 1674TIP3    H126437   0.679   5.482  13.747 -1.8556  0.3903  1.4521
 1674TIP3    H226438   0.687   5.443  13.893  1.8803  0.7493  1.4363
 1675TIP3   OH226439   0.620   2.639  10.552 -0.5040  0.0405 -0.0608
 1675TIP3    H126440   0.529   2.668  10.553  0.0561  1.8872  1.0699
 1675TIP3    H226441   0.621   2.558  10.603 -1.3380  0.5979  0.8471
 1676TIP3   OH226442   1.208   3.175   5.284 -0.0178  0.1075  0.1639
 1676TIP3    H126443   1.270   3.184   5.356 -0.9560 -3.1677  1.6034
 1676TIP3    H226444   1.243   3.103   5.231 -2.2614 -1.6539  0.8640
 1677TIP3   OH226445   1.281   6.044   2.690  0.2490  0.1706 -0.2977
 1677TIP3    H126446   1.236   5.960   2.681  0.7035 -0.4208  2.3291
 1677TIP3    H226447   1.221   6.098   2.740  0.7638  0.7790 -0.3340
 1678TIP3   OH226448   6.046   4.988   4.588  0.3901 -0.1760  0.0456
 1678TIP3    H126449   6.118   4.929   4.612  1.1468  0.3465 -0.8993
 1678TIP3    H226450   5.972   4.929   4.574  0.4783 -0.6830  1.4917
 1679TIP3   OH226451   1.629   0.925   4.279  0.4977  0.8215  0.5049
 1679TIP3    H126452   1.551   0.871   4.297 -0.3552  0.5847 -3.0068
 1679TIP3    H226453   1.598   1.015   4.286 -0.5372  0.7371 -1.9549
 1680TIP3   OH226454   3.287   1.043  13.980  0.0385  0.1640  0.1197
 1680TIP3    H126455   3.218   1.047  13.913  0.8142 -1.0171 -0.7920
 1680TIP3    H226456   3.297   1.134  14.009 -1.0173  0.5497 -0.6349
 1681TIP3   OH226457   2.895   6.291   0.248  0.6077  0.2948  0.8574
 1681TIP3    H126458   2.973   6.343   0.269 -0.0948  1.0481  1.6493
 1681TIP3    H226459   2.835   6.308   0.320 -0.3606 -0.1628  0.1706
 1682TIP3   OH226460   3.649   1.039  15.218  0.3394  0.4439  0.7881
 1682TIP3    H126461   3.741   1.034  15.194  0.2210 -0.1861  0.4314
 1682TIP3    H226462   3.602   1.011  15.139 -0.1361  0.2796  1.1238
 1683TIP3   OH226463   0.374   4.529   2.071  0.0529  0.5350 -0.3286
 1683TIP3    H126464   0.383   4.535   1.976 -0.7354 -0.7674 -0.5137
 1683TIP3    H226465   0.282   4.550   2.088 -0.0984 -0.3378  0.0070
 1684TIP3   OH226466   6.346   3.963  13.036  0.1553 -0.1917 -0.5527
 1684TIP3    H126467   6.313   4.043  13.077  0.9511  0.1686 -0.5910
 1684TIP3    H226468   6.273   3.930  12.984 -0.4636  0.0278  0.1621
 1685TIP3   OH226469   0.521   5.169   5.932 -0.0382 -0.8219  0.2781
 1685TIP3    H126470   0.528   5.194   5.840 -1.4647 -1.6331 -0.0971
 1685TIP3    H226471   0.449   5.105   5.934  1.0454 -2.0755  1.7115
 1686TIP3   OH226472   3.519   0.477   4.847  0.2453  0.1104  0.3037
 1686TIP3    H126473   3.494   0.519   4.929 -0.2486 -0.5199  0.4911
 1686TIP3    H226474   3.466   0.397   4.845  1.1633 -0.5072 -0.0279
 1687TIP3   OH226475   5.179   6.707  14.513 -0.3731  0.5820 -0.0240
 1687TIP3    H126476   5.142   6.625  14.546 -2.0205  0.6066 -1.6774
 1687TIP3    H226477   5.241   6.734  14.581 -2.5530 -0.0797  2.3977
 1688TIP3   OH226478   2.378   2.356   6.067 -0.2279 -0.3127  0.1356
 1688TIP3    H126479   2.440   2.410   6.019 -0.5777 -0.0591 -0.0414
 1688TIP3    H226480   2.356   2.407   6.144 -1.0103  0.0752 -0.3273
 1689TIP3   OH226481   1.996   2.619  15.285  0.4386  0.2109 -0.1188
 1689TIP3    H126482   2.066   2.617  15.350  1.7282  0.8113 -1.4435
 1689TIP3    H226483   1.973   2.527  15.271  1.3915 -0.0387 -0.1005
 1690TIP3   OH226484   2.591   0.499  14.618  0.3767 -0.4661  0.1360
 1690TIP3    H126485   2.549   0.432  14.563  2.9896 -1.7749 -0.4311
 1690TIP3    H226486   2.658   0.451  14.667  2.2217  1.6575 -0.1261
 1691TIP3   OH226487   0.626   6.547   0.433 -0.0262  0.2073  0.5502
 1691TIP3    H126488   0.646   6.518   0.523 -0.0867  0.4784  0.6520
 1691TIP3    H226489   0.595   6.636   0.444 -1.7563 -0.3550  0.4507
 1692TIP3   OH226490   1.055   2.206   0.111  0.2096 -0.6417 -0.0323
 1692TIP3    H126491   1.129   2.265   0.124 -0.7645  0.6508 -0.1836
 1692TIP3    H226492   1.012   2.202   0.196  0.1654 -0.9917 -0.0693
 1693TIP3   OH226493   3.470   4.654  14.148 -0.1274 -0.4291  0.2882
 1693TIP3    H126494   3.454   4.666  14.055  1.5910  0.4714  0.0641
 1693TIP3    H226495   3.546   4.596  14.152  0.4078  0.2936  1.0759
 1694TIP3   OH226496   4.214   5.035   3.626 -0.0440  0.0178  0.0723
 1694TIP3    H126497   4.227   5.104   3.692  1.1202 -1.0191  0.9797
 1694TIP3    H226498   4.257   4.958   3.664 -1.4610 -1.2651 -0.8277
 1695TIP3   OH226499   1.863   4.760  15.908  0.5581  0.1070 -0.0371
 1695TIP3    H126500   1.789   4.703  15.888 -1.1171  1.7846  1.0461
 1695TIP3    H226501   1.933   4.730  15.850 -1.6608 -0.1051 -2.8007
 1696TIP3   OH226502   2.902   2.718   1.413  0.5820 -0.9776 -0.2692
 1696TIP3    H126503   2.922   2.681   1.327  1.3623 -1.3775  0.0732
 1696TIP3    H226504   2.949   2.801   1.416  0.4117 -0.8789 -0.2908
 1697TIP3   OH226505   5.820   5.542   2.878 -0.5878 -0.7663  0.1402
 1697TIP3    H126506   5.837   5.503   2.964  1.4293  0.5035  0.3778
 1697TIP3    H226507   5.857   5.480   2.816  1.4422  0.0633  0.4484
 1698TIP3   OH226508   1.491   5.040   4.240 -0.2178  0.6295 -0.2732
 1698TIP3    H126509   1.575   5.068   4.276 -1.3020  3.5844  0.2172
 1698TIP3    H226510   1.483   5.087   4.157 -1.3792  0.3828 -0.3216
 1699TIP3   OH226511   3.503   1.127  15.844 -0.0915 -0.5159  0.0260
 1699TIP3    H126512   3.440   1.194  15.870 -0.3857 -0.7020 -0.1934
 1699TIP3    H226513   3.508   1.068  15.920 -1.5333 -1.4899 -0.5831
 1700TIP3   OH226514   3.610   1.373  10.806  0.2963  0.1463 -0.0499
 1700TIP3    H126515   3.519   1.370  10.779  0.4786 -1.1222 -0.5883
 1700TIP3    H226516   3.619   1.456  10.853 -1.0760  0.3630 -0.1515
 1701TIP3   OH226517   0.463   3.481  11.772 -0.2153 -0.9617 -0.1561
 1701TIP3    H126518   0.382   3.530  11.788 -1.0833 -2.1323 -0.8365
 1701TIP3    H226519   0.527   3.548  11.750 -1.3485 -0.1116 -0.9484
 1702TIP3   OH226520   5.929   0.648  16.684  0.7363  0.0390  0.3814
 1702TIP3    H126521   5.927   0.553  16.685  1.4640 -0.0257  2.6739
 1702TIP3    H226522   5.837   0.674  16.673  0.6214 -0.8809 -1.0547
 1703TIP3   OH226523   0.218   0.007  12.227  0.3060  0.5292 -0.0053
 1703TIP3    H126524   0.231   0.019  12.321  0.6643 -1.4075  0.2331
 1703TIP3    H226525   0.307  -0.007  12.192  0.0788  0.0879 -0.4304
 1704TIP3   OH226526   5.494   0.518   1.558 -0.7150  0.0362 -0.2608
 1704TIP3    H126527   5.471   0.426   1.547  1.6104 -0.5357 -0.9053
 1704TIP3    H226528   5.554   0.519   1.632  1.4526  0.5514 -1.9211
 1705TIP3   OH226529   2.977   3.296  15.294  0.1793 -0.3963  0.3008
 1705TIP3    H126530   3.036   3.361  15.330  0.4976  0.7288 -2.0717
 1705TIP3    H226531   3.018   3.212  15.313  1.7012  0.2945  0.1663
 1706TIP3   OH226532   2.469   0.705   3.308  0.0816 -0.3026  0.0422
 1706TIP3    H126533   2.450   0.799   3.303 -0.2050 -0.3708 -0.0915
 1706TIP3    H226534   2.408   0.671   3.373  1.4041 -0.0676  1.4850
 1707TIP3   OH226535   3.013   2.017   2.812  0.7066  0.0860 -0.3603
 1707TIP3    H126536   3.023   2.103   2.770  0.6929  0.1249 -0.2855
 1707TIP3    H226537   3.099   1.977   2.806  0.6931  0.0730 -0.4659
 1708TIP3   OH226538   1.668   3.722  14.925  0.2610  0.1067  0.1917
 1708TIP3    H126539   1.758   3.727  14.956  0.3160  1.1531 -0.0951
 1708TIP3    H226540   1.632   3.644  14.968  1.1921 -0.1319  0.5690
 1709TIP3   OH226541   4.794   1.255   4.917  0.2577 -0.4496 -0.2828
 1709TIP3    H126542   4.728   1.256   4.848 -0.8445  0.5738  0.7196
 1709TIP3    H226543   4.847   1.334   4.902 -0.9629  0.6580  0.8588
 1710TIP3   OH226544   1.934   4.920   0.054  0.2553 -0.1814  0.0858
 1710TIP3    H126545   2.023   4.955   0.047 -0.4247  1.3701 -2.0099
 1710TIP3    H226546   1.889   4.982   0.112 -0.3398  1.2314 -1.7752
 1711TIP3   OH226547   6.748   3.895   3.814 -0.3130  0.3700 -0.4848
 1711TIP3    H126548   6.802   3.959   3.767  1.1314 -0.4764 -0.0681
 1711TIP3    H226549   6.765   3.812   3.769 -0.9139 -0.0041 -0.0373
 1712TIP3   OH226550   3.493   5.486  13.534 -0.2533 -0.1522 -0.0463
 1712TIP3    H126551   3.435   5.562  13.543 -0.6526 -0.5608  0.8537
 1712TIP3    H226552   3.580   5.520  13.555 -0.0925  0.5102 -1.5915
 1713TIP3   OH226553   4.747   5.350  17.220  0.1829  0.1123 -0.0673
 1713TIP3    H126554   4.670   5.337  17.276  0.6708  0.1932  0.6384
 1713TIP3    H226555   4.816   5.298  17.262  0.5384  0.1079 -0.6459
 1714TIP3   OH226556   3.940   0.818  16.683  0.0261 -0.0501 -0.0141
 1714TIP3    H126557   3.911   0.843  16.595 -1.7937 -0.4786  0.4173
 1714TIP3    H226558   3.921   0.894  16.738 -1.0731 -0.6282  0.4280
 1715TIP3   OH226559   5.176   3.858   5.368  0.3294 -1.2306  0.0239
 1715TIP3    H126560   5.083   3.857   5.346  0.1666 -0.3928  0.6390
 1715TIP3    H226561   5.219   3.886   5.288 -0.0579 -0.4859  0.0634
 1716TIP3   OH226562   6.183   0.747   3.099 -0.1080 -0.0419  0.2123
 1716TIP3    H126563   6.167   0.681   3.167 -0.0754 -0.3987 -0.1277
 1716TIP3    H226564   6.258   0.714   3.050  1.6050  1.5047  1.6513
 1717TIP3   OH226565   4.463   1.993   2.973  0.4434 -0.0879  0.6157
 1717TIP3    H126566   4.518   2.015   3.048  1.2605  0.8959 -0.2334
 1717TIP3    H226567   4.379   2.035   2.991  0.4599 -0.2978  1.2078
 1718TIP3   OH226568   2.677   5.041  13.894  0.5777 -0.1545 -0.0700
 1718TIP3    H126569   2.725   5.123  13.900  1.2664 -0.3651 -1.9797
 1718TIP3    H226570   2.740   4.974  13.921  0.6656 -0.2288 -0.4519
 1719TIP3   OH226571   4.815   2.153   4.813  0.0583 -0.4332  0.3254
 1719TIP3    H126572   4.891   2.110   4.774 -0.2952 -2.5625  1.7895
 1719TIP3    H226573   4.743   2.130   4.755  0.3225  0.6159 -0.4364
 1720TIP3   OH226574   2.351   6.625   3.041 -0.2843  0.2251  0.3355
 1720TIP3    H126575   2.406   6.656   3.113 -0.8705  0.7639  0.5593
 1720TIP3    H226576   2.307   6.704   3.010 -1.5545 -0.3255  0.6941
 1721TIP3   OH226577   5.493   2.377   6.542 -0.8731 -0.3788 -0.0776
 1721TIP3    H126578   5.581   2.401   6.570 -1.4104  1.9336 -0.1494
 1721TIP3    H226579   5.464   2.311   6.606  0.6037 -0.6062  0.3893
 1722TIP3   OH226580   2.305   1.821  13.665 -0.4917  0.3566 -0.1583
 1722TIP3    H126581   2.321   1.912  13.690  1.4659  0.0064  0.0484
 1722TIP3    H226582   2.356   1.769  13.728 -1.8160 -0.9124 -0.0758
 1723TIP3   OH226583   5.074   3.717  11.634  0.4126  0.5780  0.1358
 1723TIP3    H126584   5.163   3.688  11.656  0.3419  0.1474 -0.1401
 1723TIP3    H226585   5.076   3.732  11.540 -0.1019 -0.5192 -0.0696
 1724TIP3   OH226586   0.526   2.517  15.142 -0.0002  0.7468 -0.2125
 1724TIP3    H126587   0.545   2.471  15.224 -0.9391 -1.1072 -0.9740
 1724TIP3    H226588   0.480   2.596  15.169  1.7908  1.3945  1.1569
 1725TIP3   OH226589   1.024   2.270   0.451 -0.1262  0.1713 -0.3984
 1725TIP3    H126590   0.955   2.246   0.512  0.2490 -3.1984 -1.1386
 1725TIP3    H226591   0.983   2.333   0.392 -1.6503  0.4847  0.9357
 1726TIP3   OH226592   2.820   2.958  15.246 -0.4499 -0.4055 -0.1770
 1726TIP3    H126593   2.890   2.907  15.204 -1.5404 -0.9586 -1.3895
 1726TIP3    H226594   2.799   2.911  15.326 -0.9675 -1.5064 -0.9408
 1727TIP3   OH226595   5.010   2.140  14.972  0.0305 -0.2331 -0.1037
 1727TIP3    H126596   5.105   2.140  14.977  0.0225  0.3762  0.1467
 1727TIP3    H226597   4.988   2.219  14.923 -0.4631  1.9098  3.2109
 1728TIP3   OH226598   1.105   0.070   4.798 -0.0555 -0.2313  0.6941
 1728TIP3    H126599   1.141   0.022   4.723  0.4680 -0.8070  1.3154
 1728TIP3    H226600   1.030   0.117   4.761  0.6420  0.0926 -0.3613
 1729TIP3   OH226601   4.788   0.203   3.158 -0.0663  0.3285 -0.0650
 1729TIP3    H126602   4.727   0.173   3.091 -0.5878  1.3370 -0.0642
 1729TIP3    H226603   4.869   0.155   3.141 -1.4070 -2.5647  1.1503
 1730TIP3   OH226604   1.510   6.042   3.454 -0.2811 -0.8953  0.1959
 1730TIP3    H126605   1.605   6.040   3.449 -0.2242  0.1317  0.6818
 1730TIP3    H226606   1.483   5.952   3.435  0.7238 -0.9538 -1.0785
 1731TIP3   OH226607   1.831   1.557   4.445 -0.1258 -0.6560 -0.3377
 1731TIP3    H126608   1.827   1.586   4.354  0.7121  0.4416 -0.0412
 1731TIP3    H226609   1.747   1.584   4.483  0.2764  0.6205 -0.3037
 1732TIP3   OH226610   4.471   5.916   2.983 -0.4267 -0.0194 -0.4823
 1732TIP3    H126611   4.427   5.831   2.985  1.0015 -0.8021 -0.9100
 1732TIP3    H226612   4.455   5.954   3.069  1.0626 -1.8824  0.6928
 1733TIP3   OH226613   1.461   1.094   0.802 -0.2576  0.0941 -0.2745
 1733TIP3    H126614   1.473   1.131   0.714  0.6773 -0.4905 -0.4159
 1733TIP3    H226615   1.543   1.048   0.819 -1.4818 -2.2505 -0.2956
 1734TIP3   OH226616   2.104   3.725  13.552 -0.2045 -0.0977 -0.6663
 1734TIP3    H126617   2.146   3.641  13.530  1.6998  0.2708  1.2685
 1734TIP3    H226618   2.017   3.718  13.513  0.4439 -2.3204 -1.9386
 1735TIP3   OH226619   6.625   4.687  13.832 -0.7373  0.0373 -0.4031
 1735TIP3    H126620   6.625   4.754  13.900 -3.2148  0.7462 -0.9862
 1735TIP3    H226621   6.689   4.718  13.768 -1.3302  1.5142 -0.3151
 1736TIP3   OH226622   5.971   0.839   4.834  0.0801  0.5069  0.4225
 1736TIP3    H126623   6.051   0.880   4.866 -0.2409  1.7088 -0.2670
 1736TIP3    H226624   5.952   0.883   4.751 -0.4996 -0.7753 -0.1666
 1737TIP3   OH226625   0.248   2.709  13.815 -0.4646  0.3749  0.0009
 1737TIP3    H126626   0.315   2.719  13.747 -0.2563 -0.1933  0.1133
 1737TIP3    H226627   0.275   2.769  13.885  1.6198 -1.9314  1.3430
 1738TIP3   OH226628   0.845   5.595  16.332  0.2206  0.2143 -0.2010
 1738TIP3    H126629   0.866   5.515  16.284  2.1808  0.8403 -0.4685
 1738TIP3    H226630   0.900   5.592  16.410 -0.5680  0.7437  0.3959
 1739TIP3   OH226631   2.388   4.746  11.242  0.1866 -0.1745  0.4040
 1739TIP3    H126632   2.419   4.775  11.156  0.1334 -3.0815 -0.7143
 1739TIP3    H226633   2.431   4.805  11.304 -0.5171  2.6640 -1.5659
 1740TIP3   OH226634   4.689   4.089  12.399 -0.7688  0.2494 -0.8744
 1740TIP3    H126635   4.603   4.130  12.396 -0.7211  0.5364  0.6059
 1740TIP3    H226636   4.750   4.163  12.406 -0.7047  0.0329  2.1786
 1741TIP3   OH226637   0.831   3.522  16.947  0.1195 -0.0760 -0.0756
 1741TIP3    H126638   0.860   3.598  16.896 -0.9546  1.1832  1.1213
 1741TIP3    H226639   0.760   3.555  17.002 -0.5650 -2.0180  0.3048
 1742TIP3   OH226640   2.684   1.069  16.238  0.0093 -0.7960 -0.0779
 1742TIP3    H126641   2.730   1.132  16.294  0.9589 -1.7120  0.2117
 1742TIP3    H226642   2.602   1.051  16.285 -0.0729 -0.1260  0.0539
 1743TIP3   OH226643   6.613   6.725   1.716 -0.1247 -0.5115 -0.4920
 1743TIP3    H126644   6.643   6.635   1.706  1.7920  0.1513 -1.2890
 1743TIP3    H226645   6.690   6.778   1.695 -1.1378  1.3169  0.1666
 1744TIP3   OH226646   3.688   3.252  14.973  0.2536  0.3537 -0.4072
 1744TIP3    H126647   3.620   3.319  14.981 -0.0333  0.1914 -1.2845
 1744TIP3    H226648   3.758   3.281  15.030  0.3167  1.6366 -1.0900
 1745TIP3   OH226649   4.796   5.540   2.975 -1.0276  0.0046  0.1391
 1745TIP3    H126650   4.826   5.619   3.020 -0.7751  0.3971 -0.7050
 1745TIP3    H226651   4.858   5.472   3.002 -2.1384 -0.3035  2.0999
 1746TIP3   OH226652   2.998   2.473   1.902 -0.3567 -0.2854 -1.0037
 1746TIP3    H126653   2.911   2.434   1.901 -0.2802 -0.4761 -0.5994
 1746TIP3    H226654   3.058   2.398   1.909 -0.2359 -0.0870  0.5053
 1747TIP3   OH226655   5.421   5.664   2.346  0.2504  0.0492 -0.2849
 1747TIP3    H126656   5.413   5.613   2.265  2.2307  0.4017 -0.7517
 1747TIP3    H226657   5.501   5.632   2.387  0.7924  1.7947  0.1165
 1748TIP3   OH226658   2.894   3.263  12.246 -0.2657 -0.3560  0.5603
 1748TIP3    H126659   2.819   3.279  12.302 -1.2719 -0.1212 -0.8102
 1748TIP3    H226660   2.876   3.179  12.205  0.7605 -0.8249  1.0371
 1749TIP3   OH226661   4.710   3.350   3.785  0.1554  0.6596  0.1496
 1749TIP3    H126662   4.736   3.442   3.783 -1.9435  1.2995 -1.2781
 1749TIP3    H226663   4.723   3.321   3.694 -0.2353 -0.1466  0.3511
 1750TIP3   OH226664   2.335   5.519   0.101 -0.3314  0.0030  0.0243
 1750TIP3    H126665   2.369   5.552   0.184  0.1417  1.8365 -0.8448
 1750TIP3    H226666   2.244   5.550   0.098 -0.6613 -0.9135  0.2832
 1751TIP3   OH226667   6.523   5.210   3.321  0.0167 -0.2127 -0.1451
 1751TIP3    H126668   6.497   5.302   3.326 -0.2569 -0.2622 -0.5979
 1751TIP3    H226669   6.485   5.171   3.400  1.4962  0.3730  0.9177
 1752TIP3   OH226670   2.385   4.602  12.806  0.3508  0.4773  0.8573
 1752TIP3    H126671   2.307   4.656  12.814 -0.6095 -0.7080 -0.1282
 1752TIP3    H226672   2.436   4.644  12.736 -0.7695 -0.2702 -0.4662
 1753TIP3   OH226673   3.459   0.168   4.769  0.1674  0.4926 -0.2576
 1753TIP3    H126674   3.367   0.189   4.784 -0.1388 -0.5792 -0.5643
 1753TIP3    H226675   3.477   0.202   4.682  0.0713  0.7084 -0.1957
 1754TIP3   OH226676   0.208   6.042   1.844 -0.3065 -0.0296 -0.3386
 1754TIP3    H126677   0.268   5.968   1.836  0.4578  0.5230  0.2087
 1754TIP3    H226678   0.254   6.105   1.899 -1.9378 -0.1502  1.2445
 1755TIP3   OH226679   4.545   4.738   5.513 -0.4513 -0.2595 -0.1883
 1755TIP3    H126680   4.516   4.808   5.455 -1.4801 -0.7288 -0.2668
 1755TIP3    H226681   4.613   4.778   5.568 -0.2125  0.4741 -0.9944
 1756TIP3   OH226682   5.573   3.866   3.478  0.5416 -0.0140 -0.3388
 1756TIP3    H126683   5.631   3.811   3.530  1.1068  0.2171 -0.7168
 1756TIP3    H226684   5.618   3.951   3.472 -0.7036  0.7862  0.9595
 1757TIP3   OH226685   0.515   4.073   1.609  0.2614  0.3113 -0.3046
 1757TIP3    H126686   0.538   4.125   1.532  1.5368  0.0191 -0.1408
 1757TIP3    H226687   0.421   4.084   1.618  0.3332  1.6322 -0.9729
 1758TIP3   OH226688   2.479   5.607   2.709  0.1193  1.0510 -0.4155
 1758TIP3    H126689   2.554   5.651   2.668  0.2447  0.4095 -0.8887
 1758TIP3    H226690   2.415   5.677   2.723  0.1291  1.3165 -1.5905
 1759TIP3   OH226691   6.265   0.411  16.877  0.6553 -0.2500 -0.1991
 1759TIP3    H126692   6.300   0.500  16.865 -1.8800  0.5780 -2.4010
 1759TIP3    H226693   6.213   0.395  16.799 -1.7701 -2.3595  1.6826
 1760TIP3   OH226694   5.149   3.757  11.369  0.3186 -0.1580  0.2993
 1760TIP3    H126695   5.105   3.696  11.310 -0.2473  0.5423 -0.0237
 1760TIP3    H226696   5.242   3.747  11.351  0.1091  1.1751 -1.8801
 1761TIP3   OH226697   0.774   3.085   0.549  0.2380 -0.5355  0.0737
 1761TIP3    H126698   0.835   3.115   0.482  0.9309 -0.9670  0.4884
 1761TIP3    H226699   0.814   3.114   0.632 -1.2703  1.1562  0.2559
 1762TIP3   OH226700   3.118   1.487  12.431 -0.1480 -0.5606 -0.1437
 1762TIP3    H126701   3.168   1.540  12.370 -2.0758  0.9389 -0.5136
 1762TIP3    H226702   3.059   1.435  12.376 -1.3837  0.2591  0.3697
 1763TIP3   OH226703   3.438   3.341  16.682 -0.1250 -0.0890  0.1825
 1763TIP3    H126704   3.428   3.278  16.610  1.8049 -2.3228  1.7524
 1763TIP3    H226705   3.531   3.364  16.681  0.2284 -1.2018  2.7425
 1764TIP3   OH226706   3.312   4.186  15.714 -0.7071  0.6949  0.3176
 1764TIP3    H126707   3.387   4.215  15.662 -1.5668 -0.1133 -1.4491
 1764TIP3    H226708   3.344   4.108  15.760  0.0290  1.3423  0.9225
 1765TIP3   OH226709   0.046   4.894  15.156  0.4782  0.4303  0.4446
 1765TIP3    H126710  -0.040   4.890  15.114  0.4187  1.0722  0.4850
 1765TIP3    H226711   0.056   4.986  15.179  1.0360  0.2971  0.7410
 1766TIP3   OH226712   6.566   3.488  15.609 -0.3091  0.3337  0.1338
 1766TIP3    H126713   6.508   3.436  15.666  0.8903  1.6474  2.6980
 1766TIP3    H226714   6.647   3.437  15.605 -0.7938 -0.3771 -1.5569
 1767TIP3   OH226715   5.552   6.632   4.002 -0.4117 -0.1586 -0.5314
 1767TIP3    H126716   5.560   6.633   3.906 -2.8400  0.9801 -0.7932
 1767TIP3    H226717   5.498   6.556   4.021 -1.5955  0.7113 -0.2886
 1768TIP3   OH226718   2.344   6.755  11.597  0.5788  0.3101  0.1864
 1768TIP3    H126719   2.369   6.769  11.506  0.6906  0.4535  0.2389
 1768TIP3    H226720   2.403   6.812  11.647  1.6864 -1.0313  0.4732
 1769TIP3   OH226721   0.252   4.960  15.381 -0.1246  0.7591  0.0266
 1769TIP3    H126722   0.227   4.981  15.471  2.1201  2.5181  0.3449
 1769TIP3    H226723   0.209   5.026  15.328 -1.2888 -0.1594 -0.2087
 1770TIP3   OH226724   1.913   1.232  12.937 -0.2486  0.3196  0.4013
 1770TIP3    H126725   1.986   1.276  12.893  0.2428 -1.1481 -0.3297
 1770TIP3    H226726   1.950   1.203  13.021 -0.0186 -0.3285  0.0782
 1771TIP3   OH226727   5.842   0.746  14.163 -0.1652  0.3533 -0.5973
 1771TIP3    H126728   5.767   0.687  14.163  1.0333 -1.2488 -0.3060
 1771TIP3    H226729   5.874   0.743  14.073  1.4372 -1.5739 -0.0297
 1772TIP3   OH226730   1.444   3.331   0.074  0.1453 -0.0307 -0.5129
 1772TIP3    H126731   1.447   3.346  -0.021  0.7609 -0.2371 -0.5301
 1772TIP3    H226732   1.494   3.250   0.087  1.6102  0.9403  0.1794
 1773TIP3   OH226733   4.799   3.093  15.458  0.7062 -0.2358  0.0125
 1773TIP3    H126734   4.753   3.087  15.374  0.5618  1.6825 -0.0841
 1773TIP3    H226735   4.883   3.134  15.436  0.8943 -0.2338  0.7169
 1774TIP3   OH226736   5.962   1.190   4.720  0.9292 -0.1186  0.4151
 1774TIP3    H126737   5.874   1.156   4.706  0.5229  0.6347  1.0356
 1774TIP3    H226738   5.977   1.249   4.646  0.1326  1.2191  1.2567
 1775TIP3   OH226739   3.208   1.831   5.216  0.6352  0.9175  0.2044
 1775TIP3    H126740   3.142   1.809   5.151 -0.0913  0.5221  1.0543
 1775TIP3    H226741   3.182   1.916   5.249  0.9847  1.1036  0.0060
 1776TIP3   OH226742   1.285   5.459  13.327  0.3768  0.1324 -0.0425
 1776TIP3    H126743   1.288   5.545  13.368  1.3243 -0.5791  1.4577
 1776TIP3    H226744   1.374   5.425  13.336  0.4511 -0.3632 -2.1104
 1777TIP3   OH226745   6.112   6.174  16.202  0.3093 -0.0759  0.1891
 1777TIP3    H126746   6.046   6.183  16.270  0.0797  1.3119 -0.1766
 1777TIP3    H226747   6.184   6.232  16.229  1.3710 -1.4856  0.5332
 1778TIP3   OH226748   0.651   1.277  11.681  0.1259  0.3242  0.6822
 1778TIP3    H126749   0.648   1.351  11.742 -2.3379 -0.4795  1.6569
 1778TIP3    H226750   0.573   1.225  11.702  0.1028 -0.9147 -2.0234
 1779TIP3   OH226751   3.881   3.508   2.578 -0.4979  0.4689 -0.0708
 1779TIP3    H126752   3.884   3.521   2.673 -1.5473 -0.4099  0.1098
 1779TIP3    H226753   3.834   3.584   2.545  0.0868  0.9003  0.0917
 1780TIP3   OH226754   2.588   4.144  14.614  0.2227  0.0647  0.5359
 1780TIP3    H126755   2.604   4.050  14.626 -1.2966 -0.0256  2.3539
 1780TIP3    H226756   2.675   4.182  14.602  1.0104 -1.3858  1.3427
 1781TIP3   OH226757   2.925   5.924  11.962 -0.5426  0.5084 -0.0090
 1781TIP3    H126758   2.830   5.919  11.948 -0.6251  0.2629  0.6105
 1781TIP3    H226759   2.957   5.980  11.891 -1.2636  1.2849  0.2636
 1782TIP3   OH226760   5.607   1.361  12.618  0.6325 -0.5099  0.3254
 1782TIP3    H126761   5.674   1.299  12.648  0.2716 -1.0269  0.0871
 1782TIP3    H226762   5.534   1.349  12.680  1.1914  0.9082  1.3164
 1783TIP3   OH226763   6.584   2.470   0.930  0.6042 -0.4707  0.5327
 1783TIP3    H126764   6.647   2.423   0.985  0.2318  0.1710  1.5291
 1783TIP3    H226765   6.501   2.425   0.944  0.5364 -0.3881  0.3926
 1784TIP3   OH226766   2.984   4.674   5.141  0.2322 -0.3142  0.1384
 1784TIP3    H126767   2.931   4.706   5.214  1.4013 -0.0118  0.8999
 1784TIP3    H226768   3.019   4.590   5.171  1.1279  0.0473  0.1525
 1785TIP3   OH226769   2.493   0.615  17.278  0.2530 -0.6688 -0.5381
 1785TIP3    H126770   2.473   0.527  17.309 -0.6913 -0.4286 -0.4386
 1785TIP3    H226771   2.528   0.660  17.354  1.6273 -1.2157 -0.8154
 1786TIP3   OH226772   5.042   3.614  10.254 -0.8357 -0.3327  0.1728
 1786TIP3    H126773   4.964   3.645  10.207 -2.1645 -0.3461  2.2530
 1786TIP3    H226774   5.034   3.652  10.341  1.9216  0.2839  0.2482
 1787TIP3   OH226775   3.399   6.536   4.010  0.6737  0.2180  0.4415
 1787TIP3    H126776   3.339   6.532   3.936  2.6302  1.9162 -1.3723
 1787TIP3    H226777   3.352   6.585   4.077 -0.8249 -0.6120  0.0413
 1788TIP3   OH226778   3.065   0.982  12.544 -0.8667 -0.5117 -0.8451
 1788TIP3    H126779   2.979   0.943  12.557 -0.6129 -0.6674  0.5883
 1788TIP3    H226780   3.049   1.076  12.543 -1.3275 -0.5676 -3.0685
 1789TIP3   OH226781   6.416   2.495  15.197  0.8323 -0.0043  0.0658
 1789TIP3    H126782   6.363   2.572  15.179  1.2450  1.2630  3.5680
 1789TIP3    H226783   6.436   2.459  15.111 -0.1257  3.2601 -1.6832
 1790TIP3   OH226784   3.300   4.064   3.046 -0.1051  0.0835 -0.1251
 1790TIP3    H126785   3.242   4.107   3.109 -0.4968 -0.6502  0.0242
 1790TIP3    H226786   3.320   4.132   2.982 -1.0542  0.3825 -0.1222
 1791TIP3   OH226787   3.445   6.296   3.133  0.0500 -0.1886  0.5191
 1791TIP3    H126788   3.529   6.334   3.106  0.6325 -1.8193 -0.0825
 1791TIP3    H226789   3.466   6.248   3.213 -0.0350 -1.5545 -0.2525
 1792TIP3   OH226790   5.750   5.207   5.010 -0.4132  0.6809  0.2793
 1792TIP3    H126791   5.659   5.218   4.982 -0.2879 -0.0515 -0.4577
 1792TIP3    H226792   5.750   5.234   5.102 -1.1832  1.5411  0.0481
 1793TIP3   OH226793   0.057   3.535   3.395  0.3241  0.0057  0.1977
 1793TIP3    H126794   0.088   3.478   3.465 -1.1153  0.1277  0.9779
 1793TIP3    H226795  -0.036   3.512   3.385  0.4142  0.2084 -1.4709
 1794TIP3   OH226796   2.014   0.702  16.697  0.1350  0.3591  0.0931
 1794TIP3    H126797   1.957   0.707  16.620  0.4500  0.8319 -0.1114
 1794TIP3    H226798   2.102   0.699  16.661  0.2501 -0.2626  0.4180
 1795TIP3   OH226799   1.005   4.843   2.587 -0.5139 -0.1012 -0.5421
 1795TIP3    H126800   0.967   4.776   2.644 -0.7132  1.2164  0.9485
 1795TIP3    H226801   0.959   4.833   2.504 -1.0582 -1.3193 -0.1268
 1796TIP3   OH226802   0.662   6.063  12.736 -0.0680  0.3037 -0.0632
 1796TIP3    H126803   0.752   6.089  12.718 -0.4709  0.1360 -2.6109
 1796TIP3    H226804   0.653   5.978  12.693 -0.2157 -1.9644  3.9418
 1797TIP3   OH226805   4.000   1.612  13.514  0.3443  0.0282  0.1684
 1797TIP3    H126806   3.911   1.609  13.480 -0.0718 -0.1316  1.2360
 1797TIP3    H226807   4.004   1.692  13.566  1.3838  0.9906 -1.3043
 1798TIP3   OH226808   1.360   3.910   0.500 -0.5748 -0.0376 -0.2966
 1798TIP3    H126809   1.381   3.967   0.574  1.4155 -0.5584 -0.4012
 1798TIP3    H226810   1.375   3.964   0.423  0.1140 -0.3205 -0.3675
 1799TIP3   OH226811   4.726   4.379  14.873 -0.3271 -0.8119 -0.2396
 1799TIP3    H126812   4.816   4.347  14.874  0.9836  2.5120 -0.1132
 1799TIP3    H226813   4.704   4.387  14.781 -0.7565 -2.1150 -0.2773
 1800TIP3   OH226814   6.215   4.783   1.220  0.3966 -0.4380 -0.0822
 1800TIP3    H126815   6.143   4.838   1.189  1.6220  0.4219 -1.5398
 1800TIP3    H226816   6.179   4.694   1.219 -1.5656  0.2498  2.1619
 1801TIP3   OH226817   2.224   5.978   5.321  0.3356  0.6111  0.9514
 1801TIP3    H126818   2.308   5.931   5.321  0.5575  1.0064  1.1690
 1801TIP3    H226819   2.179   5.946   5.243  0.7350  0.4738  0.7752
 1802TIP3   OH226820   4.434   5.065   5.997  0.1295  0.8900  0.6059
 1802TIP3    H126821   4.395   5.150   5.977 -1.4588  0.6144  2.2260
 1802TIP3    H226822   4.403   5.045   6.085  1.1426 -1.0042  0.5822
 1803TIP3   OH226823   5.566   6.344   0.632  0.1189  0.0529  0.5452
 1803TIP3    H126824   5.494   6.358   0.693  0.0988 -1.4460  0.9078
 1803TIP3    H226825   5.635   6.404   0.662 -0.1265 -0.2016  1.6642
 1804TIP3   OH226826   3.207   3.449   5.224  0.1269 -0.1711  0.4521
 1804TIP3    H126827   3.164   3.495   5.152 -2.3537 -1.8216  0.7360
 1804TIP3    H226828   3.230   3.363   5.188  0.5185 -0.3606  1.1327
 1805TIP3   OH226829   2.510   1.790  11.216 -0.3660 -0.1261  0.2229
 1805TIP3    H126830   2.495   1.695  11.207 -0.7905 -0.1683  1.2245
 1805TIP3    H226831   2.592   1.796  11.266 -0.3588  0.0289  0.1903
 1806TIP3   OH226832   4.859   2.407   5.694 -0.4625 -0.2105 -0.4367
 1806TIP3    H126833   4.924   2.440   5.755 -0.1264 -0.9265 -0.3955
 1806TIP3    H226834   4.802   2.351   5.747  0.5835 -1.8549 -0.9894
 1807TIP3   OH226835   1.128   3.259   1.205 -0.2206  0.2626  0.4265
 1807TIP3    H126836   1.184   3.332   1.178 -0.2985  0.1855  0.0624
 1807TIP3    H226837   1.057   3.300   1.254 -0.4435  0.4608 -0.0603
 1808TIP3   OH226838   3.040   4.269  12.673 -0.1700  0.0485 -0.1248
 1808TIP3    H126839   3.000   4.185  12.694  2.5180 -1.1230  0.8943
 1808TIP3    H226840   3.046   4.271  12.578  0.1043 -1.1226 -0.1400
 1809TIP3   OH226841   0.024   5.392   3.049  0.0435  0.0521  0.5402
 1809TIP3    H126842   0.070   5.451   2.988  1.7747  0.4858  2.1877
 1809TIP3    H226843  -0.069   5.415   3.039  0.4396  1.2051 -0.7717
 1810TIP3   OH226844   4.805   6.655  16.140  0.1403 -0.0624 -0.5095
 1810TIP3    H126845   4.749   6.712  16.191 -2.0112 -1.8033 -0.7368
 1810TIP3    H226846   4.744   6.600  16.090  2.0941 -0.8260 -2.2378
 1811TIP3   OH226847   0.786   0.542  15.563 -0.0707  0.1535 -1.0748
 1811TIP3    H126848   0.876   0.516  15.546  0.5080  0.7064  0.8126
 1811TIP3    H226849   0.735   0.462  15.552  1.2115 -1.1446  1.4373
 1812TIP3   OH226850   6.435   2.883  10.621  0.2960 -0.1890  0.4538
 1812TIP3    H126851   6.382   2.874  10.542  1.0978 -1.2352  0.0208
 1812TIP3    H226852   6.517   2.838  10.601  1.3879  1.4164  1.0856
 1813TIP3   OH226853   1.594   1.070  11.319 -0.7274  0.4182 -0.5361
 1813TIP3    H126854   1.512   1.063  11.269 -0.3750  3.5676 -1.7958
 1813TIP3    H226855   1.657   1.101  11.255  0.8544  0.4588  0.9918
 1814TIP3   OH226856   6.442   4.369   5.944  0.1885 -0.2155  0.5121
 1814TIP3    H126857   6.461   4.461   5.964 -0.1170 -0.1123  0.3378
 1814TIP3    H226858   6.454   4.362   5.850 -2.3620  0.3028  0.0660
 1815TIP3   OH226859   3.263   0.541   0.434  0.0776  0.2242  0.3269
 1815TIP3    H126860   3.334   0.595   0.469  0.1835  0.3507 -0.0830
 1815TIP3    H226861   3.306   0.471   0.386 -0.0725  0.1596  0.2847
 1816TIP3   OH226862   4.478   5.907   0.565 -0.1349 -0.3872  0.1639
 1816TIP3    H126863   4.457   5.889   0.473 -1.2427 -0.1794  0.3622
 1816TIP3    H226864   4.539   5.981   0.561 -0.3515 -0.2312 -0.3986
 1817TIP3   OH226865   0.384   2.697   3.870  0.0420 -0.4446 -0.0850
 1817TIP3    H126866   0.289   2.686   3.872 -0.1096  0.7418 -0.2140
 1817TIP3    H226867   0.401   2.767   3.933  0.8404 -0.6428 -0.0732
 1818TIP3   OH226868   2.608   5.715   4.812  0.6588 -0.2170 -0.1696
 1818TIP3    H126869   2.518   5.686   4.795  0.7501 -0.1638 -0.7791
 1818TIP3    H226870   2.602   5.769   4.890 -0.2014  1.5859 -1.4110
 1819TIP3   OH226871   2.290   3.293   3.157  0.5870 -0.1934  0.5907
 1819TIP3    H126872   2.244   3.348   3.093 -2.0663 -1.5112  1.2114
 1819TIP3    H226873   2.365   3.258   3.109  0.3746  1.1801 -0.8498
 1820TIP3   OH226874   1.280   4.354  13.108  0.6377  0.4014  0.2378
 1820TIP3    H126875   1.335   4.417  13.061 -1.1278  0.4355 -1.9476
 1820TIP3    H226876   1.192   4.391  13.104 -0.1905 -1.4479  0.2928
 1821TIP3   OH226877   6.675   3.893  11.959  0.8346 -0.4294  0.4873
 1821TIP3    H126878   6.604   3.831  11.975  0.7396 -0.9196 -1.5746
 1821TIP3    H226879   6.674   3.950  12.036 -0.5942 -1.5415  1.3568
 1822TIP3   OH226880   5.239   2.484   2.546  0.1097  0.3795 -0.0652
 1822TIP3    H126881   5.196   2.405   2.580  0.1193 -0.2670 -1.4905
 1822TIP3    H226882   5.176   2.521   2.484  1.0008  0.2369 -1.0800
 1823TIP3   OH226883   3.166   2.097   3.845 -0.2932 -0.1630 -0.5102
 1823TIP3    H126884   3.210   2.098   3.760  0.6135 -1.7821 -0.1048
 1823TIP3    H226885   3.114   2.017   3.845 -1.4460  0.5523 -0.0714
 1824TIP3   OH226886   4.154   3.980  12.424 -0.3671 -0.1960  0.1075
 1824TIP3    H126887   4.199   3.916  12.479 -0.4021  0.5277  1.0078
 1824TIP3    H226888   4.128   3.931  12.346 -1.5934 -1.6334  1.3524
 1825TIP3   OH226889   0.283   3.305   4.684  0.2708  0.5359 -0.1890
 1825TIP3    H126890   0.353   3.340   4.627 -0.2670 -0.6900 -1.6727
 1825TIP3    H226891   0.328   3.284   4.766  1.1369  2.0963 -0.2208
 1826TIP3   OH226892   3.332   1.483   1.180 -0.1869 -0.2217  0.2638
 1826TIP3    H126893   3.380   1.400   1.183  1.8121  0.6509 -2.5736
 1826TIP3    H226894   3.368   1.535   1.252  1.0165 -0.6751  0.0121
 1827TIP3   OH226895   1.924   2.389  14.467 -0.0028 -0.1374  0.3147
 1827TIP3    H126896   2.018   2.371  14.466 -0.1974 -1.2393  0.0679
 1827TIP3    H226897   1.886   2.320  14.412 -1.0111 -0.0341  0.8587
 1828TIP3   OH226898   0.517   2.683  16.001 -0.2885 -0.0559 -0.2912
 1828TIP3    H126899   0.428   2.710  15.975  0.3080  0.0185 -2.4083
 1828TIP3    H226900   0.569   2.763  15.992 -0.0293 -0.0317  1.2224
 1829TIP3   OH226901   4.511   6.378  15.034 -0.7185  0.2395  0.2727
 1829TIP3    H126902   4.417   6.363  15.036 -0.6080 -0.8490 -0.9856
 1829TIP3    H226903   4.525   6.435  14.958 -0.3303 -0.0121  0.1475
 1830TIP3   OH226904   3.330   1.800  13.476 -0.3481 -0.1541  0.4697
 1830TIP3    H126905   3.241   1.778  13.449  0.2079 -0.1046 -1.5350
 1830TIP3    H226906   3.382   1.723  13.453  0.3508  0.3525  0.3337
 1831TIP3   OH226907   4.056   4.181  12.011  0.4467  0.4779 -0.6691
 1831TIP3    H126908   4.119   4.250  11.993  0.8952  0.7554  1.6468
 1831TIP3    H226909   4.093   4.132  12.084 -2.4970  1.4707  1.7421
 1832TIP3   OH226910   1.224   4.172  14.403 -0.1609  0.0747 -0.4631
 1832TIP3    H126911   1.162   4.108  14.369  0.8453 -1.8242  1.0628
 1832TIP3    H226912   1.310   4.131  14.392  0.5447  1.2348  0.4237
 1833TIP3   OH226913   1.740   1.777  13.389 -0.2339 -0.0322 -0.1331
 1833TIP3    H126914   1.787   1.857  13.366  0.2740 -0.8008 -1.8537
 1833TIP3    H226915   1.703   1.746  13.307 -1.6471 -0.8182  0.7539
 1834TIP3   OH226916   1.004   0.431  14.952 -0.5637 -0.0585 -0.0966
 1834TIP3    H126917   0.972   0.354  14.904 -0.1040 -1.2463  1.4089
 1834TIP3    H226918   0.944   0.439  15.026  0.2137  0.1764  0.5138
 1835TIP3   OH226919   2.712   0.243   4.638  0.1928 -0.3776  0.0245
 1835TIP3    H126920   2.633   0.295   4.625  1.6434  1.7583 -0.8753
 1835TIP3    H226921   2.776   0.282   4.578  1.9215 -2.0430  0.6905
 1836TIP3   OH226922   0.308   5.827   0.436 -0.8014  0.8335  0.9991
 1836TIP3    H126923   0.394   5.868   0.431 -0.0981 -0.6883 -0.5487
 1836TIP3    H226924   0.256   5.870   0.367 -1.1121  1.3457  1.5436
 1837TIP3   OH226925   1.130   0.120  13.389  0.6314  0.1726  0.5855
 1837TIP3    H126926   1.112   0.027  13.399  0.7252 -0.0352 -0.8621
 1837TIP3    H226927   1.180   0.144  13.467  1.6553 -1.2678  0.4187
 1838TIP3   OH226928   2.963   0.885  16.742  0.1805  0.5985  0.1646
 1838TIP3    H126929   2.964   0.945  16.667 -1.4571 -0.7228 -0.9735
 1838TIP3    H226930   2.993   0.801  16.707 -2.2232 -0.4834  0.5153
 1839TIP3   OH226931   0.343   0.549   4.696  0.4736  0.3539 -0.3022
 1839TIP3    H126932   0.438   0.554   4.692  0.4972  1.6331  1.0478
 1839TIP3    H226933   0.313   0.598   4.619  0.9375  2.5228  0.8085
 1840TIP3   OH226934   5.629   3.211   2.561 -0.4049 -0.6134 -0.2031
 1840TIP3    H126935   5.589   3.142   2.614  1.3375 -1.6147 -0.1343
 1840TIP3    H226936   5.575   3.215   2.482 -1.4165 -0.9827  0.4541
 1841TIP3   OH226937   4.281   0.714   3.519 -0.9521  0.1809 -0.1186
 1841TIP3    H126938   4.284   0.743   3.428 -0.7274 -1.1809 -0.5647
 1841TIP3    H226939   4.267   0.794   3.569  0.7241  1.2180 -1.2042
 1842TIP3   OH226940   5.481   4.469  11.664  0.5788  0.1749  0.1721
 1842TIP3    H126941   5.525   4.537  11.613  0.6371 -0.7210 -1.0119
 1842TIP3    H226942   5.502   4.387  11.618 -0.6149 -0.4935  0.7682
 1843TIP3   OH226943   5.854   6.181   1.580  0.4248  0.0063 -0.0872
 1843TIP3    H126944   5.828   6.266   1.544 -0.0991 -0.1585 -0.1169
 1843TIP3    H226945   5.855   6.122   1.504 -0.7475 -0.3583  0.1538
 1844TIP3   OH226946   0.472   3.834  12.964 -0.1523  0.0834  0.4328
 1844TIP3    H126947   0.457   3.895  12.892  1.1323 -1.0094 -0.8425
 1844TIP3    H226948   0.567   3.828  12.972 -0.2651 -0.5914  1.5407
 1845TIP3   OH226949   5.193   6.635   3.013 -0.1006 -0.6635 -1.1093
 1845TIP3    H126950   5.240   6.568   3.064  0.7095 -0.2175 -1.2499
 1845TIP3    H226951   5.258   6.666   2.950 -0.0331  1.2070 -0.1691
 1846TIP3   OH226952   0.318   4.986  14.594 -0.0983  0.1074  0.2701
 1846TIP3    H126953   0.257   5.003  14.665  1.6109 -1.1029  2.1592
 1846TIP3    H226954   0.318   4.891  14.584  0.2078  0.2140 -0.8665
 1847TIP3   OH226955   0.254   6.663  14.381 -0.3858  0.1219  0.1523
 1847TIP3    H126956   0.169   6.694  14.410 -1.2112 -1.0884 -0.8485
 1847TIP3    H226957   0.310   6.741  14.382 -1.6874  1.0878  0.1362
 1848TIP3   OH226958   5.728   0.548   3.536 -0.8061  0.4277 -0.0477
 1848TIP3    H126959   5.771   0.624   3.574  0.6101 -0.0089 -0.7023
 1848TIP3    H226960   5.785   0.475   3.557 -2.8059 -0.7280  1.7138
 1849TIP3   OH226961   5.171   6.291  10.478 -0.1652  0.2113  0.0423
 1849TIP3    H126962   5.116   6.250  10.411 -1.0021  0.0957  0.7694
 1849TIP3    H226963   5.125   6.272  10.560  0.6820  0.6016  0.6159
 1850TIP3   OH226964   5.380   4.762   4.330 -0.4258 -0.0395 -0.3676
 1850TIP3    H126965   5.405   4.820   4.402 -0.2939  1.3668 -1.5025
 1850TIP3    H226966   5.354   4.821   4.260 -2.9316 -1.3816 -0.6989
 1851TIP3   OH226967   2.213   3.662   4.607  0.4103 -0.6588  0.0127
 1851TIP3    H126968   2.216   3.674   4.702 -0.4632 -0.5107  0.0326
 1851TIP3    H226969   2.210   3.567   4.595  1.0151 -0.6921  0.1113
 1852TIP3   OH226970   6.511   5.076   2.105 -0.4889  0.1138 -0.0775
 1852TIP3    H126971   6.569   5.058   2.032  0.3895  2.0856  0.0726
 1852TIP3    H226972   6.426   5.043   2.077 -0.0740  0.4281 -1.7992
 1853TIP3   OH226973   1.173   6.506   2.089 -0.3245  0.1041  0.4618
 1853TIP3    H126974   1.123   6.465   2.160 -1.7192  1.6884  0.4512
 1853TIP3    H226975   1.253   6.537   2.131 -0.5447 -0.1231  1.0559
 1854TIP3   OH226976   5.451   6.218  11.121 -0.5139 -0.0232  0.1513
 1854TIP3    H126977   5.512   6.145  11.130 -0.6167 -0.3213 -1.3123
 1854TIP3    H226978   5.429   6.241  11.211 -0.0618 -1.4437  0.6664
 1855TIP3   OH226979   3.523   1.088  14.855  0.1454  0.1492 -0.2983
 1855TIP3    H126980   3.578   1.012  14.840  2.2664  1.3837  0.7165
 1855TIP3    H226981   3.515   1.130  14.769 -0.0276 -0.5509 -0.6297
 1856TIP3   OH226982   1.772   0.418   4.982  0.4927  0.0354  0.7069
 1856TIP3    H126983   1.733   0.417   4.894  0.5175  1.9298  0.6263
 1856TIP3    H226984   1.848   0.360   4.976  0.6378  0.3355 -0.6084
 1857TIP3   OH226985   4.839   4.414  16.003  0.2575  0.8621  0.3859
 1857TIP3    H126986   4.905   4.358  15.961 -0.6754  0.9460 -1.2331
 1857TIP3    H226987   4.779   4.352  16.045 -0.1787  0.6837 -0.4966
 1858TIP3   OH226988   2.487   3.014  11.671  0.6685  0.0691 -0.5177
 1858TIP3    H126989   2.556   3.011  11.736  0.3454  0.4983 -0.1420
 1858TIP3    H226990   2.436   2.935  11.686 -0.1753  0.7945  0.6411
 1859TIP3   OH226991   2.423   4.668  16.604 -0.2143 -0.5798 -0.3986
 1859TIP3    H126992   2.399   4.587  16.558  1.0242 -0.6405 -0.9660
 1859TIP3    H226993   2.511   4.653  16.636  0.3113  0.7934 -1.1204
 1860TIP3   OH226994   3.050   4.845   5.736 -0.5593  0.7088  0.0667
 1860TIP3    H126995   3.074   4.865   5.826  0.0732  1.4995 -0.2693
 1860TIP3    H226996   3.051   4.929   5.691  0.4788  0.1603 -0.9895
 1861TIP3   OH226997   2.643   3.251  12.674 -0.6644 -0.3136 -0.1417
 1861TIP3    H126998   2.569   3.190  12.673 -0.0154 -1.1210 -0.2600
 1861TIP3    H226999   2.715   3.201  12.713 -0.7552  1.1815  2.1229
 1862TIP3   OH227000   5.747   1.465   3.377  0.0329  0.3850 -0.3429
 1862TIP3    H127001   5.822   1.470   3.317 -0.8199  1.4201 -1.3414
 1862TIP3    H227002   5.724   1.556   3.395 -0.3143  0.0818  0.8470
 1863TIP3   OH227003   1.251   5.707  13.475  0.1208  0.2159 -0.1946
 1863TIP3    H127004   1.256   5.756  13.393  0.3430  0.4479 -0.0418
 1863TIP3    H227005   1.329   5.733  13.524 -0.0570  0.1428  0.1292
 1864TIP3   OH227006   0.008   0.372  12.284  0.0666 -0.1875 -0.6524
 1864TIP3    H127007  -0.052   0.317  12.335  0.1018 -0.1585 -0.5792
 1864TIP3    H227008   0.037   0.439  12.346 -0.0614 -0.0220 -0.7727
 1865TIP3   OH227009   1.397   5.009  15.428  0.2107  0.3037 -0.2260
 1865TIP3    H127010   1.346   4.929  15.442  1.3343  0.0580  3.2589
 1865TIP3    H227011   1.344   5.078  15.468  0.9543  0.6710  0.1348
 1866TIP3   OH227012   5.969   4.374  16.632 -0.2715  0.2630  0.0394
 1866TIP3    H127013   6.051   4.325  16.630 -0.9335 -0.9393  1.3149
 1866TIP3    H227014   5.912   4.324  16.689 -2.1644  0.6986 -1.3776
 1867TIP3   OH227015   3.287   1.321   1.448  0.4467 -0.1427  0.7547
 1867TIP3    H127016   3.288   1.416   1.445  0.6326 -0.1317  1.1716
 1867TIP3    H227017   3.199   1.297   1.477  0.5833 -0.0800  1.2294
 1868TIP3   OH227018   4.839   1.863   3.142  0.5356  0.2401  0.2324
 1868TIP3    H127019   4.926   1.830   3.162  0.8615  1.2109  0.4496
 1868TIP3    H227020   4.788   1.785   3.120  1.5352 -0.3059 -0.1946
 1869TIP3   OH227021   3.830   2.283   3.786  0.0530 -0.2399 -0.9384
 1869TIP3    H127022   3.738   2.288   3.810  0.5368  0.4796  0.9336
 1869TIP3    H227023   3.876   2.272   3.869  1.6844 -0.2748 -1.8012
 1870TIP3   OH227024   5.434   5.307  12.911  0.2194  0.3089  0.9133
 1870TIP3    H127025   5.384   5.312  12.830  0.0250  1.4147  1.0914
 1870TIP3    H227026   5.507   5.368  12.898  1.3063 -0.9506  0.8206
 1871TIP3   OH227027   2.470   0.468   2.465  0.0615  0.3674  0.1016
 1871TIP3    H127028   2.465   0.541   2.527  2.3686 -0.0849  0.9135
 1871TIP3    H227029   2.562   0.466   2.438  0.1146 -2.3191  0.2323
 1872TIP3   OH227030   2.249   2.154   4.383 -0.1684 -0.0075 -0.6245
 1872TIP3    H127031   2.340   2.122   4.380  1.0234  2.9130  0.6375
 1872TIP3    H227032   2.240   2.209   4.306 -0.1300  1.3992  0.3501
 1873TIP3   OH227033   1.721   6.046   3.187  0.0907 -0.0329 -0.6541
 1873TIP3    H127034   1.808   6.072   3.217 -0.5452  0.2492  1.0396
 1873TIP3    H227035   1.719   5.951   3.198  1.1172 -0.4583 -3.3612
 1874TIP3   OH227036   1.425   4.972  12.884 -0.0255  0.0630 -0.0444
 1874TIP3    H127037   1.330   4.961  12.873 -0.4071  1.5798  1.3142
 1874TIP3    H227038   1.437   5.067  12.886  1.9341  0.0034 -3.1154
 1875TIP3   OH227039   1.691   2.000  14.927 -0.1390  0.4109  0.8193
 1875TIP3    H127040   1.643   1.994  15.010 -2.5305 -0.2356 -0.5215
 1875TIP3    H227041   1.623   2.015  14.861  1.3160 -2.0506 -1.4144
 1876TIP3   OH227042   5.457   6.564   1.821 -0.0547 -0.5014 -0.2553
 1876TIP3    H127043   5.512   6.497   1.779 -1.1929 -0.9343 -1.1033
 1876TIP3    H227044   5.403   6.515   1.883 -2.4298 -0.7925 -2.3937
 1877TIP3   OH227045   0.502   6.072   1.565  0.2835 -0.0118 -0.5053
 1877TIP3    H127046   0.448   5.998   1.538  0.6504 -0.0748 -1.1121
 1877TIP3    H227047   0.590   6.050   1.531  0.8959 -0.3282  1.1992
 1878TIP3   OH227048   1.068   3.990  15.250  0.2070  1.0039  0.3712
 1878TIP3    H127049   1.051   3.912  15.196  0.6450  0.1374  1.4585
 1878TIP3    H227050   1.138   4.036  15.204  2.3206 -0.9920  1.3738
 1879TIP3   OH227051   6.485   6.029   5.158  0.5458 -0.5334  0.0797
 1879TIP3    H127052   6.528   6.009   5.074 -1.7587  1.3230 -1.6882
 1879TIP3    H227053   6.523   6.112   5.185 -0.9540  0.5483 -0.9226
 1880TIP3   OH227054   0.966   5.334   1.665 -0.4819  0.2916 -0.1102
 1880TIP3    H127055   0.912   5.255   1.661  0.9243 -0.6574 -1.2256
 1880TIP3    H227056   0.917   5.399   1.615 -1.1451 -0.1742 -0.0827
 1881TIP3   OH227057   0.064   1.018  11.456 -0.1747 -0.5544  0.2795
 1881TIP3    H127058   0.141   1.045  11.504 -0.3474 -0.4606  0.5044
 1881TIP3    H227059   0.021   0.954  11.513  0.2342 -1.3190 -0.2447
 1882TIP3   OH227060   3.115   2.314   3.039 -0.2066  0.0447 -0.2404
 1882TIP3    H127061   3.105   2.219   3.049 -3.2688  0.3870  1.0800
 1882TIP3    H227062   3.079   2.350   3.120  2.6002  2.3797  0.1519
 1883TIP3   OH227063   6.448   1.760  16.360 -0.3352 -0.2390  0.1141
 1883TIP3    H127064   6.416   1.775  16.271  1.4605  0.0156 -0.5512
 1883TIP3    H227065   6.435   1.843  16.406 -1.1059 -0.3158  0.0442
 1884TIP3   OH227066   1.267   4.203  12.807 -0.1325  0.2834 -0.6773
 1884TIP3    H127067   1.344   4.254  12.831 -0.3464  0.2882  0.0224
 1884TIP3    H227068   1.298   4.113  12.802 -0.2490  0.1667  0.4536
 1885TIP3   OH227069   1.647   3.858  11.080  0.2774  0.7631 -0.0858
 1885TIP3    H127070   1.625   3.811  10.999 -0.6217  0.2814  0.4261
 1885TIP3    H227071   1.589   3.934  11.080 -0.2022  0.3973  0.4412
 1886TIP3   OH227072   5.201   4.489  12.101  0.7930 -0.2938 -0.4264
 1886TIP3    H127073   5.154   4.533  12.031  1.9084 -0.9914 -1.6529
 1886TIP3    H227074   5.166   4.400  12.102  0.9964 -0.3736 -0.3087
 1887TIP3   OH227075   2.845   2.221   2.129  0.3707  0.3222  0.3104
 1887TIP3    H127076   2.775   2.200   2.068  0.7080 -1.8126  0.5899
 1887TIP3    H227077   2.847   2.148   2.190  2.5515  0.5152  0.5633
 1888TIP3   OH227078   2.644   2.222  14.114  0.0633 -1.1969 -0.7049
 1888TIP3    H127079   2.617   2.197  14.202 -0.8158  1.9516  0.0759
 1888TIP3    H227080   2.735   2.192  14.107  0.1132 -1.6268  1.2459
 1889TIP3   OH227081   1.295   1.304  17.140 -1.1828  0.4583 -0.6220
 1889TIP3    H127082   1.269   1.244  17.070 -0.1329 -0.3895 -0.3133
 1889TIP3    H227083   1.221   1.303  17.202 -1.3279 -0.2439 -0.8017
 1890TIP3   OH227084   3.969   3.996   1.231 -0.4107 -0.1578  0.2491
 1890TIP3    H127085   3.877   3.978   1.213 -0.3921  0.3951 -0.4352
 1890TIP3    H227086   4.012   3.990   1.146  0.5332 -2.2804  0.8313
 1891TIP3   OH227087   3.737   1.889  14.606 -0.8304  0.0336 -0.1583
 1891TIP3    H127088   3.713   1.803  14.572 -1.1013 -0.4854  1.2490
 1891TIP3    H227089   3.803   1.871  14.673  0.9050  1.1459 -1.4631
 1892TIP3   OH227090   1.544   6.012   0.952 -0.0635  0.0027 -0.2719
 1892TIP3    H127091   1.530   6.081   1.018 -0.5268 -1.2007  0.9540
 1892TIP3    H227092   1.635   5.985   0.965 -0.1383 -0.1967 -0.1614
 1893TIP3   OH227093   2.707   0.063  15.076  0.8403  0.2738  0.7910
 1893TIP3    H127094   2.687  -0.010  15.135  0.2193  0.1485  0.4366
 1893TIP3    H227095   2.710   0.023  14.989  1.2267  0.5476  0.6778
 1894TIP3   OH227096   4.528   3.527  12.921 -1.1791  0.5928 -0.1507
 1894TIP3    H127097   4.622   3.530  12.905 -0.9591 -1.7334  0.3386
 1894TIP3    H227098   4.515   3.574  13.003 -0.7557  2.6369 -1.2019
 1895TIP3   OH227099   3.257   2.049  12.846  0.6509  0.6383  0.3627
 1895TIP3    H127100   3.238   2.113  12.915 -2.5964 -1.8573  2.0878
 1895TIP3    H227101   3.314   1.985  12.888  0.3765  0.1867  0.0495
 1896TIP3   OH227102   4.873   5.109   0.630  0.1370 -0.3978 -0.5663
 1896TIP3    H127103   4.787   5.075   0.605 -0.6433 -0.0959  1.5545
 1896TIP3    H227104   4.876   5.102   0.725  2.0381  0.6212 -0.4950
 1897TIP3   OH227105   2.316   5.780   1.493 -0.6194 -0.2501  0.1346
 1897TIP3    H127106   2.226   5.797   1.465 -0.7313 -0.1744  0.5352
 1897TIP3    H227107   2.354   5.866   1.508  0.0993 -0.1850 -1.7722
 1898TIP3   OH227108   5.790   5.075   4.456 -0.8118  0.2745  0.2699
 1898TIP3    H127109   5.876   5.113   4.440  1.3836 -3.5318  1.7061
 1898TIP3    H227110   5.766   5.106   4.544  0.1268 -0.2675  0.7263
 1899TIP3   OH227111   6.464   1.468  15.673  0.3808  0.2167 -0.2462
 1899TIP3    H127112   6.472   1.560  15.699  1.5659  0.7305 -2.2262
 1899TIP3    H227113   6.530   1.456  15.605 -1.7568 -1.2612 -2.2439
 1900TIP3   OH227114   1.669   2.587  10.748 -0.0557 -0.6937  0.2201
 1900TIP3    H127115   1.695   2.649  10.680  0.4868 -0.8873  0.2473
 1900TIP3    H227116   1.576   2.573  10.733 -0.2244  0.2727  0.3275
 1901TIP3   OH227117   5.367   6.047   5.648 -0.2109 -0.1653  0.2573
 1901TIP3    H127118   5.319   5.964   5.651 -0.4856 -0.0509 -0.7000
 1901TIP3    H227119   5.458   6.021   5.630 -0.3391 -0.2570 -0.2901
 1902TIP3   OH227120   2.701   3.992  11.774  0.0829 -0.5117 -0.2519
 1902TIP3    H127121   2.663   4.020  11.691  0.7124 -0.1342 -0.4189
 1902TIP3    H227122   2.776   3.938  11.749  0.8353  0.3677  0.0585
 1903TIP3   OH227123   5.753   2.108   4.454 -0.4537 -0.5748 -0.4748
 1903TIP3    H127124   5.671   2.120   4.406 -1.9040 -1.0503  1.7394
 1903TIP3    H227125   5.771   2.014   4.447 -0.4043 -0.5637 -0.4968
 1904TIP3   OH227126   3.198   4.521   6.318 -0.4030 -0.4305 -0.0745
 1904TIP3    H127127   3.168   4.593   6.263 -1.0557  0.0568  0.8957
 1904TIP3    H227128   3.218   4.561   6.402  0.6917 -1.1451  0.0314
 1905TIP3   OH227129   1.842   0.019   2.152 -0.5922  0.1578 -0.0216
 1905TIP3    H127130   1.776   0.033   2.221 -1.0006  0.0099 -0.3798
 1905TIP3    H227131   1.841   0.101   2.103 -0.2922  0.2669  0.1509
 1906TIP3   OH227132   6.204   3.891  10.124 -0.0723 -0.0730  0.1781
 1906TIP3    H127133   6.289   3.930  10.147 -0.7856  1.4832  0.3133
 1906TIP3    H227134   6.208   3.803  10.159  0.3975  0.9054  2.7957
 1907TIP3   OH227135   1.488   1.216  11.625 -0.0627 -0.3496 -0.4357
 1907TIP3    H127136   1.579   1.233  11.601 -0.0652 -0.2321 -0.3607
 1907TIP3    H227137   1.436   1.271  11.567 -0.1024 -0.6679 -0.7105
 1908TIP3   OH227138   0.606   1.499   5.681 -0.0694  0.0361 -0.0084
 1908TIP3    H127139   0.557   1.432   5.633 -0.0957  2.0016 -2.9555
 1908TIP3    H227140   0.559   1.507   5.765  0.2491 -3.8607  0.7366
 1909TIP3   OH227141   5.772   5.007  10.241 -0.1119 -0.1478 -0.3129
 1909TIP3    H127142   5.724   5.056  10.307  1.6916  0.3018  0.7320
 1909TIP3    H227143   5.834   5.070  10.204  1.5201 -1.3226  0.3116
 1910TIP3   OH227144   6.543   6.042  12.319  0.3144 -0.2397  0.3223
 1910TIP3    H127145   6.518   6.004  12.235 -0.4950 -0.2529  0.5597
 1910TIP3    H227146   6.628   6.083  12.303 -0.3785  0.8036 -0.8182
 1911TIP3   OH227147   3.891   3.852  12.661 -0.2699  0.2241  0.5355
 1911TIP3    H127148   3.952   3.787  12.628 -1.1203  0.0419 -0.7410
 1911TIP3    H227149   3.945   3.926  12.686  0.4072  0.4352 -1.4541
 1912TIP3   OH227150   0.746   0.469  16.189  0.1999 -0.1933  0.4670
 1912TIP3    H127151   0.835   0.495  16.167  0.4408  0.1882  1.7603
 1912TIP3    H227152   0.719   0.532  16.257 -0.8846 -0.5731  0.4035
 1913TIP3   OH227153   2.915   6.719   2.174  0.1036  0.4663 -1.1819
 1913TIP3    H127154   2.925   6.760   2.260 -2.7518  0.7306 -0.8797
 1913TIP3    H227155   2.918   6.793   2.112  1.8491  0.3077 -1.3347
 1914TIP3   OH227156   1.439   3.990  16.241 -0.0224 -0.0172 -0.2343
 1914TIP3    H127157   1.404   3.958  16.158 -1.9555  0.3767  0.3531
 1914TIP3    H227158   1.375   3.961  16.306  0.9597  0.4862  0.9919
 1915TIP3   OH227159   4.360   2.491  13.339 -0.3649 -0.4433 -0.5436
 1915TIP3    H127160   4.428   2.532  13.392 -1.2808 -0.0894  0.3843
 1915TIP3    H227161   4.385   2.510  13.248 -0.0640  1.0208 -0.1723
 1916TIP3   OH227162   2.594   0.954  11.055  0.5738 -0.0081 -0.3418
 1916TIP3    H127163   2.521   1.014  11.070  0.5349 -0.4506  1.5603
 1916TIP3    H227164   2.592   0.936  10.961 -0.5696  1.4733 -0.6358
 1917TIP3   OH227165   4.547   5.121   0.643 -0.0559  0.0132 -0.1724
 1917TIP3    H127166   4.454   5.135   0.626  0.0240 -0.9991 -1.6355
 1917TIP3    H227167   4.558   5.026   0.639  1.0925  0.1364 -0.3291
 1918TIP3   OH227168   6.631   2.778   2.106  0.3474 -0.4549 -0.4982
 1918TIP3    H127169   6.666   2.787   2.195  0.8971 -0.6883 -0.6891
 1918TIP3    H227170   6.661   2.692   2.077 -2.1976 -1.6482  0.1299
 1919TIP3   OH227171   1.861   3.628  15.146  0.3215  0.4739 -0.2820
 1919TIP3    H127172   1.902   3.554  15.190 -0.0443  1.5009  1.9351
 1919TIP3    H227173   1.923   3.654  15.079  0.3613 -1.9297 -1.2526
 1920TIP3   OH227174   5.658   4.816  11.601 -0.4911 -0.3381 -0.1468
 1920TIP3    H127175   5.590   4.806  11.534  0.7156  0.4363 -1.5595
 1920TIP3    H227176   5.712   4.737  11.591  0.8799  0.7142 -1.5748
 1921TIP3   OH227177   0.783   5.142   0.859 -0.2899 -0.0267 -0.2711
 1921TIP3    H127178   0.746   5.073   0.804  0.6207  0.9746 -2.2566
 1921TIP3    H227179   0.832   5.096   0.927  0.4898 -1.3778 -1.6914
 1922TIP3   OH227180   2.682   2.739   5.816  0.2884 -0.6865 -0.3579
 1922TIP3    H127181   2.619   2.752   5.745  0.8525 -1.8627 -1.1016
 1922TIP3    H227182   2.668   2.649   5.845  0.4272 -0.3890  0.6853
 1923TIP3   OH227183   5.054   5.434  15.324  0.2258  0.9775 -0.4295
 1923TIP3    H127184   4.972   5.468  15.361 -0.5235 -0.4669 -0.6915
 1923TIP3    H227185   5.029   5.353  15.282  1.4421  1.5314 -2.3347
 1924TIP3   OH227186   5.353   4.163   2.454  0.1153  0.1022  0.3530
 1924TIP3    H127187   5.418   4.187   2.389 -0.3462 -0.5686 -0.3781
 1924TIP3    H227188   5.404   4.131   2.528  0.7191  2.6314  1.1201
 1925TIP3   OH227189   2.048   4.862  14.605  0.0213 -0.0202 -0.4924
 1925TIP3    H127190   2.044   4.877  14.700  0.4617  0.4785 -0.5519
 1925TIP3    H227191   2.017   4.772  14.595  2.5725 -1.0866  0.4102
 1926TIP3   OH227192   0.624   2.167   5.839  0.1877  0.4171 -0.0654
 1926TIP3    H127193   0.588   2.213   5.764 -0.5955 -0.0824 -0.0089
 1926TIP3    H227194   0.708   2.209   5.856 -1.0181  2.6330  0.7378
 1927TIP3   OH227195   1.896   3.325  10.840  0.4379 -0.2258  0.1600
 1927TIP3    H127196   1.904   3.359  10.751  0.4195  0.4049  0.3956
 1927TIP3    H227197   1.806   3.347  10.866  0.2531 -0.9196  0.1276
 1928TIP3   OH227198   4.094   0.849  16.243  0.2969 -0.6207 -0.0168
 1928TIP3    H127199   4.149   0.800  16.182  2.1600  2.2841 -0.8866
 1928TIP3    H227200   4.143   0.929  16.261 -3.5655  2.2277 -0.7509
 1929TIP3   OH227201   6.135   5.579  13.024 -0.3656 -0.0026 -0.0563
 1929TIP3    H127202   6.188   5.648  13.064 -1.9934  0.6143  1.1277
 1929TIP3    H227203   6.199   5.524  12.978  1.1528  1.3467  0.3395
 1930TIP3   OH227204   1.701   6.403   6.461 -0.1029  0.1031 -0.1273
 1930TIP3    H127205   1.765   6.347   6.418  1.2672  1.0899  0.5735
 1930TIP3    H227206   1.619   6.353   6.457  0.1240 -0.2029 -3.0886
 1931TIP3   OH227207   5.470   0.320   4.280 -0.3056  0.0251 -0.0376
 1931TIP3    H127208   5.383   0.359   4.276 -0.9050 -1.0971  1.2443
 1931TIP3    H227209   5.512   0.345   4.197 -2.6888 -1.3576 -1.7855
 1932TIP3   OH227210   2.140   2.401   0.584  0.3439  0.4967  0.0035
 1932TIP3    H127211   2.064   2.348   0.608  0.9652 -0.2331  0.4148
 1932TIP3    H227212   2.128   2.483   0.631 -0.0227  0.2586  0.3364
 1933TIP3   OH227213   2.619   5.236   2.396  0.0321  0.5334 -0.5321
 1933TIP3    H127214   2.696   5.245   2.340 -0.4011  1.0681 -1.0600
 1933TIP3    H227215   2.654   5.212   2.482  0.9278  2.4585 -0.3170
 1934TIP3   OH227216   0.410   3.077   3.511 -0.2506 -0.7716 -0.2049
 1934TIP3    H127217   0.381   3.031   3.433 -2.9048  0.7698 -0.2318
 1934TIP3    H227218   0.416   3.169   3.484 -0.4949 -0.3142  1.1894
 1935TIP3   OH227219   0.731   4.072   2.715 -0.3020  0.0903 -0.2653
 1935TIP3    H127220   0.784   4.122   2.653  0.6565 -0.9530 -0.3212
 1935TIP3    H227221   0.675   4.016   2.660 -0.6986  0.4099 -0.1936
 1936TIP3   OH227222   2.965   5.201  11.149 -0.1770  0.4890  0.3855
 1936TIP3    H127223   2.976   5.199  11.244 -2.3176  2.1060  0.7455
 1936TIP3    H227224   2.973   5.293  11.126 -1.2202  0.3186 -0.7634
 1937TIP3   OH227225   1.976   2.104   0.309 -0.7610  0.5536 -0.5313
 1937TIP3    H127226   1.979   2.024   0.360 -2.3168 -0.5530 -2.0528
 1937TIP3    H227227   2.065   2.140   0.315  0.2046 -1.6990 -0.4559
 1938TIP3   OH227228   2.427   1.291  15.719 -0.1953  0.7413 -0.9161
 1938TIP3    H127229   2.475   1.373  15.730 -0.5082  1.0180 -1.5144
 1938TIP3    H227230   2.447   1.240  15.797  1.9668  0.3741 -1.6561
 1939TIP3   OH227231   4.825   6.229  14.451 -0.3587 -0.1388  0.1062
 1939TIP3    H127232   4.761   6.161  14.472  0.3465 -0.9898 -0.4627
 1939TIP3    H227233   4.827   6.232  14.356 -0.8052  1.0985  0.1130
 1940TIP3   OH227234   0.296   6.461   0.474  0.6493 -0.2196 -0.7571
 1940TIP3    H127235   0.367   6.397   0.472  0.2704 -0.8071  1.6546
 1940TIP3    H227236   0.227   6.421   0.422  0.1157 -2.2597  1.3298
 1941TIP3   OH227237   0.386   6.574  12.447  0.1493 -0.4709 -0.3510
 1941TIP3    H127238   0.319   6.507  12.430  0.1949 -0.7003  0.3376
 1941TIP3    H227239   0.336   6.653  12.469  0.1070 -0.5232 -0.2626
 1942TIP3   OH227240   5.621   4.466   1.423 -0.0013  0.3787  0.2169
 1942TIP3    H127241   5.664   4.495   1.503 -0.6706  0.0617  0.7040
 1942TIP3    H227242   5.579   4.383   1.446 -0.7441  0.6039 -0.2743
 1943TIP3   OH227243   3.940   6.062   0.734  0.4958 -0.7814  0.1823
 1943TIP3    H127244   3.851   6.050   0.702  0.2657  2.4017 -0.7399
 1943TIP3    H227245   3.988   6.095   0.658  1.4439  1.2597  1.5759
 1944TIP3   OH227246   4.031   5.262  15.105  0.0322  0.4284 -0.4087
 1944TIP3    H127247   4.043   5.343  15.154 -0.9923 -0.4084  1.3482
 1944TIP3    H227248   4.115   5.217  15.111 -0.3268 -0.0885  1.5039
 1945TIP3   OH227249   5.263   5.261  13.551 -0.4905  0.2859  0.1555
 1945TIP3    H127250   5.238   5.258  13.458 -0.4792 -0.6263  0.1662
 1945TIP3    H227251   5.202   5.322  13.591 -1.4630 -0.4425 -0.1851
 1946TIP3   OH227252   2.906   2.080  12.722 -0.6011  0.0845 -1.3316
 1946TIP3    H127253   2.813   2.061  12.708  0.3467 -4.1402 -3.6322
 1946TIP3    H227254   2.929   2.031  12.801 -0.0595 -0.1637 -1.6340
 1947TIP3   OH227255   5.792   5.933   5.336  0.2922 -0.2687  0.0166
 1947TIP3    H127256   5.805   6.018   5.292  0.5729 -0.6989 -0.7585
 1947TIP3    H227257   5.877   5.914   5.376  0.9609 -1.2201 -1.7160
 1948TIP3   OH227258   6.765   4.429  11.909 -0.1781 -0.2207 -0.0035
 1948TIP3    H127259   6.753   4.461  11.998  0.8190  0.2608 -0.0385
 1948TIP3    H227260   6.741   4.503  11.853  0.6430 -0.0319 -0.1084
 1949TIP3   OH227261   6.242   6.004   3.980  0.2336  0.1871  0.1523
 1949TIP3    H127262   6.238   6.004   4.076  1.0020 -2.1465  0.2437
 1949TIP3    H227263   6.302   5.933   3.958  0.0582  0.6548 -2.0831
 1950TIP3   OH227264   5.412   2.181   5.149 -0.4929  0.3616  0.1319
 1950TIP3    H127265   5.446   2.095   5.126  0.8602  0.5879  1.1181
 1950TIP3    H227266   5.324   2.164   5.182 -0.8292 -0.4365 -1.1049
 1951TIP3   OH227267   1.393   1.733  17.192 -0.2380 -1.3467  0.6332
 1951TIP3    H127268   1.425   1.711  17.279  2.6998 -2.2246 -0.5566
 1951TIP3    H227269   1.401   1.652  17.142  0.7548 -0.2302 -1.1271
 1952TIP3   OH227270   0.982   3.935   0.194 -0.3501  0.0290  0.3048
 1952TIP3    H127271   1.054   3.984   0.153 -0.8290 -0.6443 -1.4137
 1952TIP3    H227272   1.019   3.905   0.277  1.0834  0.3998 -0.1603
 1953TIP3   OH227273   5.948   4.080   1.790  0.0804 -0.5284  0.0114
 1953TIP3    H127274   5.852   4.086   1.794  0.0211 -1.4784  0.3717
 1953TIP3    H227275   5.967   4.057   1.699 -0.1290 -1.6081  0.2302
 1954TIP3   OH227276   6.404   1.815   6.177  0.6749  0.0916  0.2747
 1954TIP3    H127277   6.439   1.801   6.265  0.4397  0.1467  0.3797
 1954TIP3    H227278   6.350   1.894   6.185  0.0726 -0.3125  0.2509
 1955TIP3   OH227279   4.055   2.262  15.392  0.2556 -0.0886  0.2502
 1955TIP3    H127280   4.036   2.347  15.353 -2.3874  0.2480  1.9930
 1955TIP3    H227281   4.018   2.267  15.480  0.1512 -2.9782  0.4770
 1956TIP3   OH227282   0.746   5.462   0.241  0.3034  0.0519  0.0904
 1956TIP3    H127283   0.728   5.556   0.245 -0.6399 -0.1473  0.8674
 1956TIP3    H227284   0.742   5.432   0.332  0.8467 -0.7006 -0.1183
 1957TIP3   OH227285   3.385   5.594   6.552 -0.1862  0.5521 -0.1902
 1957TIP3    H127286   3.416   5.684   6.567  0.5096  0.5018 -1.1871
 1957TIP3    H227287   3.461   5.548   6.516  0.0627 -1.0092  2.1728
 1958TIP3   OH227288   0.446   4.896   4.593 -0.4829 -0.3377 -0.7234
 1958TIP3    H127289   0.470   4.905   4.500  1.1631 -1.1386 -0.4164
 1958TIP3    H227290   0.499   4.962   4.638  1.1650 -2.0485 -0.0366
 1959TIP3   OH227291   3.965   4.266  15.074  0.3073 -0.1352  0.4866
 1959TIP3    H127292   3.886   4.221  15.043 -0.3665  1.1738  0.2465
 1959TIP3    H227293   3.999   4.311  14.997 -1.3929  3.1733  1.4937
 1960TIP3   OH227294   1.537   1.686   0.132 -0.1590 -0.0861 -0.3308
 1960TIP3    H127295   1.542   1.765   0.186  1.5874  1.1473 -2.1356
 1960TIP3    H227296   1.625   1.678   0.094 -1.3371 -0.6810 -3.2051
 1961TIP3   OH227297   3.332   6.132   1.942  0.1070  0.4791 -0.5898
 1961TIP3    H127298   3.316   6.092   1.856  1.3847 -2.1526  0.2689
 1961TIP3    H227299   3.424   6.158   1.938  0.4571 -0.5625  0.2606
 1962TIP3   OH227300   5.391   6.068  16.162  0.1074  0.3730  0.3650
 1962TIP3    H127301   5.305   6.109  16.162  0.1798  0.5335 -0.0902
 1962TIP3    H227302   5.452   6.138  16.184  0.0892  0.1719  1.0916
 1963TIP3   OH227303   6.489   5.980  11.466  0.2814  0.6018  0.0576
 1963TIP3    H127304   6.577   6.018  11.474  0.8919 -0.3567 -1.6228
 1963TIP3    H227305   6.468   5.950  11.554  1.0376  2.0783  0.7860
 1964TIP3   OH227306   4.318   1.861  14.132 -0.2101  0.2816 -0.2093
 1964TIP3    H127307   4.223   1.849  14.135 -0.1831  0.0862 -0.1259
 1964TIP3    H227308   4.341   1.847  14.040 -0.4624  1.8891 -0.5424
 1965TIP3   OH227309   6.451   3.737  15.723 -0.2599 -0.6128  0.2594
 1965TIP3    H127310   6.481   3.678  15.653  1.6352 -0.0887  0.5801
 1965TIP3    H227311   6.430   3.679  15.796 -1.2131 -1.0865 -0.3790
 1966TIP3   OH227312   6.242   3.312   0.210 -0.0388  0.5166 -0.1673
 1966TIP3    H127313   6.207   3.261   0.137 -0.3445 -0.1705  0.4514
 1966TIP3    H227314   6.166   3.334   0.263 -0.0236  2.3292 -0.8451
 1967TIP3   OH227315   1.376   0.781   6.280  0.0471 -0.4085  0.1112
 1967TIP3    H127316   1.448   0.842   6.265  0.0708 -0.1133  1.2866
 1967TIP3    H227317   1.403   0.700   6.236  0.9557 -0.2075  0.2840
 1968TIP3   OH227318   6.697   5.602  15.460  0.5324 -0.0513  0.3746
 1968TIP3    H127319   6.747   5.563  15.531  1.5141  0.3726 -0.0627
 1968TIP3    H227320   6.610   5.616  15.496 -0.3738 -3.9592  0.1496
 1969TIP3   OH227321   2.649   0.884   2.077 -0.4420 -0.1077 -0.2720
 1969TIP3    H127322   2.635   0.847   2.164 -0.5816  0.6806  0.0440
 1969TIP3    H227323   2.745   0.889   2.069 -0.4018 -1.2015 -0.6083
 1970TIP3   OH227324   2.712   0.878  15.017 -0.3378  0.1194 -0.1269
 1970TIP3    H127325   2.626   0.878  15.058 -0.7018 -1.0616 -0.8431
 1970TIP3    H227326   2.773   0.860  15.089 -0.5473  2.0207  0.5753
 1971TIP3   OH227327   4.810   1.414   1.292  0.1136 -0.3926 -0.0010
 1971TIP3    H127328   4.852   1.492   1.258  0.7442 -0.7818 -0.1287
 1971TIP3    H227329   4.738   1.397   1.231  1.1406 -0.9970 -1.0867
 1972TIP3   OH227330   3.418   2.566   1.382 -0.1279 -0.4223  0.2686
 1972TIP3    H127331   3.505   2.537   1.408  0.7467  2.3605  0.7266
 1972TIP3    H227332   3.368   2.565   1.464  0.2385  0.4616  0.5083
 1973TIP3   OH227333   0.029   5.887   2.196  0.1183 -0.0000 -0.1965
 1973TIP3    H127334   0.090   5.826   2.156  0.6225  0.3619  0.0020
 1973TIP3    H227335   0.034   5.869   2.289  0.9555  0.9407 -0.0448
 1974TIP3   OH227336   0.838   1.338   4.151  0.3363  0.0165  0.1070
 1974TIP3    H127337   0.749   1.316   4.177  0.0962 -0.4397 -1.0560
 1974TIP3    H227338   0.876   1.255   4.122  0.3717  0.5799 -1.5731
 1975TIP3   OH227339   5.660   5.924   0.454  0.7417  0.0444 -0.0759
 1975TIP3    H127340   5.703   5.843   0.429  1.0847 -0.1962  1.2370
 1975TIP3    H227341   5.622   5.957   0.372 -1.0969 -2.4107 -0.3240
 1976TIP3   OH227342   4.337   6.477   4.010  0.0363  0.4089  0.3184
 1976TIP3    H127343   4.427   6.462   4.038  0.3645 -0.4839 -1.1466
 1976TIP3    H227344   4.330   6.433   3.926 -2.3258 -1.2338  1.2620
 1977TIP3   OH227345   0.205   5.663  12.825  0.3554 -0.1839 -0.2493
 1977TIP3    H127346   0.297   5.639  12.817 -0.0122 -1.6934 -0.2834
 1977TIP3    H227347   0.158   5.582  12.808 -0.9907  0.5760 -0.2866
 1978TIP3   OH227348   0.262   2.579  17.263  0.0110  0.3339  0.4463
 1978TIP3    H127349   0.273   2.595  17.169  1.1687  1.0138  0.6809
 1978TIP3    H227350   0.194   2.641  17.289 -0.1718  0.2827  0.1038
 1979TIP3   OH227351   1.775   6.363   0.984 -0.4217 -0.0525 -0.5688
 1979TIP3    H127352   1.829   6.286   0.963 -0.4322 -0.1749 -0.1532
 1979TIP3    H227353   1.768   6.362   1.079 -1.6356 -0.3720 -0.6374
 1980TIP3   OH227354   4.331   0.451   3.329 -0.5985  0.7781  0.0179
 1980TIP3    H127355   4.372   0.477   3.411  0.6225 -0.6717 -0.0999
 1980TIP3    H227356   4.296   0.363   3.346  0.1359  0.2370 -1.1453
 1981TIP3   OH227357   6.393   0.166   2.872  0.4195 -0.3338  0.0759
 1981TIP3    H127358   6.395   0.181   2.967 -0.7016  1.5520 -0.1459
 1981TIP3    H227359   6.463   0.223   2.838  0.0840 -0.1585 -0.3233
 1982TIP3   OH227360   3.350   2.477   3.124  0.2561  0.1316 -0.1532
 1982TIP3    H127361   3.269   2.428   3.111 -0.6050  0.7063  2.4962
 1982TIP3    H227362   3.332   2.563   3.086 -0.1068  0.0317 -0.2083
 1983TIP3   OH227363   3.700   3.306  12.845  0.1645  0.1502  0.5040
 1983TIP3    H127364   3.649   3.296  12.765  0.1761 -2.1510  0.7073
 1983TIP3    H227365   3.660   3.381  12.890 -0.2601  1.0642 -1.2966
 1984TIP3   OH227366   6.195   4.779   4.141  0.4010  0.3659  0.3433
 1984TIP3    H127367   6.256   4.841   4.101  0.1135 -0.6509 -1.8290
 1984TIP3    H227368   6.204   4.699   4.089 -0.7990 -0.7182  1.6951
 1985TIP3   OH227369   5.696   6.243  13.403 -0.3119 -0.7895 -0.5739
 1985TIP3    H127370   5.719   6.330  13.436  1.8624 -1.0086 -1.3784
 1985TIP3    H227371   5.655   6.199  13.478 -1.3284  0.8465 -0.1135
 1986TIP3   OH227372   5.464   2.812  12.324  0.7346  0.4031  0.2384
 1986TIP3    H127373   5.421   2.851  12.248  0.9085 -0.2699 -0.2199
 1986TIP3    H227374   5.546   2.861  12.334 -0.4529  2.1971  1.5830
 1987TIP3   OH227375   1.093   3.607  14.434 -0.4602 -0.1398  0.2722
 1987TIP3    H127376   1.022   3.606  14.498 -1.0300  0.2585 -0.3347
 1987TIP3    H227377   1.052   3.578  14.353  0.6444 -2.4168  0.4357
 1988TIP3   OH227378   0.679   5.682  12.495  0.2324 -0.3119 -0.0097
 1988TIP3    H127379   0.609   5.734  12.533 -0.6410 -0.1490 -1.7397
 1988TIP3    H227380   0.637   5.598  12.473  0.4806 -0.1109 -1.3207
 1989TIP3   OH227381   3.268   3.727   4.414 -0.0969 -0.6734 -0.4809
 1989TIP3    H127382   3.311   3.750   4.496  1.9294 -0.6822 -1.4707
 1989TIP3    H227383   3.293   3.797   4.354 -2.4746 -0.0539 -0.8540
 1990TIP3   OH227384   2.879   6.600  12.568 -0.2315 -0.4380 -0.6006
 1990TIP3    H127385   2.816   6.621  12.636 -0.3879 -2.1857 -0.1556
 1990TIP3    H227386   2.929   6.526  12.604  0.1389 -0.9494 -2.1017
 1991TIP3   OH227387   1.765   0.224   1.969 -0.1883  0.1149 -0.1683
 1991TIP3    H127388   1.687   0.219   1.914 -0.4921 -0.7239  0.3196
 1991TIP3    H227389   1.733   0.253   2.054 -0.2053 -1.5711  0.4372
 1992TIP3   OH227390   0.925   4.315   5.790 -0.0407 -0.0049 -0.1656
 1992TIP3    H127391   0.834   4.320   5.761  0.2085  1.2086 -0.8282
 1992TIP3    H227392   0.950   4.224   5.775 -0.9693 -0.2211 -0.5041
 1993TIP3   OH227393   2.726   3.816  16.562 -0.7468  0.1064 -0.0820
 1993TIP3    H127394   2.652   3.877  16.565 -0.1079  0.8917  1.1046
 1993TIP3    H227395   2.759   3.822  16.473  1.1692  3.9506  0.6540
 1994TIP3   OH227396   4.827   5.429   4.269 -0.2365  0.3078 -0.0223
 1994TIP3    H127397   4.830   5.363   4.199 -0.1627  0.5643 -0.2592
 1994TIP3    H227398   4.784   5.384   4.341 -0.6427  0.1555 -0.3511
 1995TIP3   OH227399   1.741   1.746  17.122 -0.2438  0.1179 -0.3263
 1995TIP3    H127400   1.778   1.658  17.110 -1.1080 -0.1246 -1.2450
 1995TIP3    H227401   1.744   1.759  17.217  1.7566 -0.0752 -0.3154
 1996TIP3   OH227402   3.302   1.565   5.568  0.6130  0.2465 -0.0593
 1996TIP3    H127403   3.229   1.627   5.563 -2.1915 -2.8717 -2.2662
 1996TIP3    H227404   3.350   1.577   5.486 -1.3572 -1.8635 -1.6429
 1997TIP3   OH227405   0.930   5.343  16.276  0.3864 -0.3152  0.5064
 1997TIP3    H127406   0.967   5.278  16.217  0.8617 -0.4280  0.9177
 1997TIP3    H227407   0.836   5.328  16.274  0.4486 -0.6595  0.1839
 1998TIP3   OH227408   2.951   2.536  14.362  0.0453  0.3259 -0.1103
 1998TIP3    H127409   3.008   2.598  14.316  1.3146 -0.3741  0.4828
 1998TIP3    H227410   2.884   2.591  14.403  2.8535  1.7670  2.9969
 1999TIP3   OH227411   4.308   3.835  10.879  0.0125 -0.5715 -0.1583
 1999TIP3    H127412   4.286   3.911  10.826  2.3042 -0.4685 -1.0852
 1999TIP3    H227413   4.283   3.859  10.968 -1.7115  0.1903 -0.8238
 2000TIP3   OH227414   0.100   5.006   2.477 -0.2857 -0.1086  0.6367
 2000TIP3    H127415   0.194   5.011   2.496 -0.6494 -0.7418  2.9333
 2000TIP3    H227416   0.089   4.924   2.429  0.3836  0.2616 -0.1742
 2001TIP3   OH227417   5.788   3.073   6.295  0.9070  0.2139 -0.3188
 2001TIP3    H127418   5.694   3.059   6.303  0.8267  0.9831  0.1328
 2001TIP3    H227419   5.824   3.052   6.381  1.5142 -2.6347 -1.1643
 2002TIP3   OH227420   4.646   3.191   5.023 -0.3724  0.1196  0.1136
 2002TIP3    H127421   4.633   3.103   5.061 -5.5113  0.1429 -0.8220
 2002TIP3    H227422   4.626   3.250   5.096  0.6059  0.4698  0.1010
 2003TIP3   OH227423   2.959   5.810   4.184 -0.6386 -0.1227  0.0824
 2003TIP3    H127424   3.027   5.743   4.193 -0.3817 -0.1155 -1.4905
 2003TIP3    H227425   3.003   5.893   4.202 -0.7329 -0.2879  1.1000
 2004TIP3   OH227426   4.687   1.964   5.449 -0.5338 -0.1704  0.7598
 2004TIP3    H127427   4.747   2.020   5.499 -1.2704  0.0260  1.4356
 2004TIP3    H227428   4.683   2.006   5.362  0.3291 -0.2082  0.6927
 2005TIP3   OH227429   5.483   3.719   5.681 -0.0493  0.1166 -0.2338
 2005TIP3    H127430   5.396   3.682   5.690  0.0462 -0.0933 -0.1795
 2005TIP3    H227431   5.518   3.678   5.601 -1.1493  2.4521 -2.0477
 2006TIP3   OH227432   5.767   6.068   1.352  0.0689 -0.4412 -0.1925
 2006TIP3    H127433   5.764   6.021   1.269 -1.4590 -0.0710 -0.3782
 2006TIP3    H227434   5.715   6.014   1.411  0.0196 -0.0187  0.1549
 2007TIP3   OH227435   2.409   4.510   2.671 -0.4932  0.3034  0.2338
 2007TIP3    H127436   2.411   4.421   2.706 -5.0729 -0.2332 -0.1923
 2007TIP3    H227437   2.401   4.566   2.748  2.1520  0.4547  0.4877
 2008TIP3   OH227438   0.140   1.060  15.179 -0.6123  0.6840 -0.3217
 2008TIP3    H127439   0.207   1.119  15.146 -1.7269  1.3708 -1.4196
 2008TIP3    H227440   0.094   1.111  15.246 -1.3340  0.9330 -1.0046
 2009TIP3   OH227441   0.475   4.464   5.169 -0.2342 -0.1003 -0.0694
 2009TIP3    H127442   0.447   4.548   5.207  4.3794  2.6581 -1.8053
 2009TIP3    H227443   0.467   4.477   5.075  1.1212 -1.3359 -0.3827
 2010TIP3   OH227444   3.554   3.324   3.852 -0.3254 -0.0703 -0.1201
 2010TIP3    H127445   3.577   3.378   3.777 -0.6502  0.6328  0.2770
 2010TIP3    H227446   3.538   3.237   3.816  1.4943 -0.2396 -0.6111
 2011TIP3   OH227447   1.608   0.549   3.065 -0.3273  0.2189 -0.1045
 2011TIP3    H127448   1.593   0.526   3.157  1.7981 -1.1360 -0.0396
 2011TIP3    H227449   1.677   0.615   3.068  0.1194 -0.2132 -0.7495
 2012TIP3   OH227450   0.007   6.445   1.110  0.3107  0.1487 -0.7910
 2012TIP3    H127451  -0.039   6.379   1.059  0.5947  0.4830 -1.4962
 2012TIP3    H227452   0.007   6.411   1.199 -1.1408  0.0484 -0.7992
 2013TIP3   OH227453   0.899   5.923   6.103 -0.0761 -0.0266  0.2309
 2013TIP3    H127454   0.952   5.881   6.036 -0.3235 -0.6901  0.4514
 2013TIP3    H227455   0.929   6.014   6.102  0.4788 -0.2040 -0.2233
 2014TIP3   OH227456   2.548   4.322   0.618 -0.2060  0.1114  0.5021
 2014TIP3    H127457   2.640   4.315   0.645 -0.7979  0.5694  2.8455
 2014TIP3    H227458   2.551   4.367   0.533  1.7850 -1.1067 -0.1485
 2015TIP3   OH227459   5.361   0.789   4.898 -0.1250  0.3452 -0.4249
 2015TIP3    H127460   5.290   0.829   4.949 -1.2682  0.4324 -2.0039
 2015TIP3    H227461   5.347   0.695   4.908 -0.8754  0.3555 -1.2245
 2016TIP3   OH227462   4.611   3.345  14.485  0.0132 -0.6544 -0.8971
 2016TIP3    H127463   4.538   3.350  14.424  0.4172 -2.0968 -1.5427
 2016TIP3    H227464   4.650   3.433  14.483 -0.9880 -0.2047 -1.4207
 2017TIP3   OH227465   3.108   5.420  12.466 -0.0716  0.6169  0.3943
 2017TIP3    H127466   3.187   5.396  12.515  0.1573  2.8639  1.2076
 2017TIP3    H227467   3.053   5.342  12.469  2.1788 -1.1027 -0.3808
 2018TIP3   OH227468   0.156   2.000  13.006 -0.1551 -0.4064  0.7639
 2018TIP3    H127469   0.083   1.993  12.945  1.0224  1.1860 -0.9158
 2018TIP3    H227470   0.206   1.919  12.994  0.5377  0.2399 -1.1039
 2019TIP3   OH227471   4.924   0.767   0.816 -0.0108 -0.5308 -0.4731
 2019TIP3    H127472   5.015   0.744   0.797  0.6766 -0.9106  2.8036
 2019TIP3    H227473   4.916   0.859   0.790  1.2214 -0.5495 -0.9751
 2020TIP3   OH227474   1.663   4.140  15.999 -0.2689 -0.1070 -0.1634
 2020TIP3    H127475   1.742   4.125  15.947 -0.1833  1.1544 -0.4453
 2020TIP3    H227476   1.591   4.129  15.936 -0.2808 -0.5855 -0.0671
 2021TIP3   OH227477   3.942   5.815  13.165  0.1560 -0.2059 -0.2282
 2021TIP3    H127478   3.991   5.897  13.161  0.6106 -0.4728 -0.2121
 2021TIP3    H227479   3.971   5.766  13.089  0.1577 -0.5046 -0.0358
 2022TIP3   OH227480   0.646   0.037   3.794  0.1164 -0.3032 -0.4773
 2022TIP3    H127481   0.604   0.063   3.876 -0.6231 -1.6494 -0.3910
 2022TIP3    H227482   0.692   0.115   3.765  2.2494 -0.3265  2.3265
 2023TIP3   OH227483   4.689   5.126  15.709 -0.3185 -0.2137 -0.0715
 2023TIP3    H127484   4.686   5.030  15.707 -0.7462 -0.2206  0.8663
 2023TIP3    H227485   4.758   5.146  15.772 -0.2772  0.1013 -0.2166
 2024TIP3   OH227486   1.614   0.548   0.911 -0.4631 -0.5167  0.0160
 2024TIP3    H127487   1.573   0.462   0.903 -1.6982  0.1519 -1.1296
 2024TIP3    H227488   1.593   0.593   0.829  0.9076  0.5717  0.2256
 2025TIP3   OH227489   1.329   2.901   6.294  0.3612 -0.5823 -0.1273
 2025TIP3    H127490   1.352   2.948   6.374  1.1086 -3.9106  1.8292
 2025TIP3    H227491   1.260   2.839   6.322 -0.6974 -0.5868 -2.5355
 2026TIP3   OH227492   1.358   3.405  13.092 -0.2793  0.0747  0.4762
 2026TIP3    H127493   1.370   3.448  13.176 -1.4371 -0.2989  0.8588
 2026TIP3    H227494   1.365   3.311  13.111 -2.3475 -0.1202  0.5438
 2027TIP3   OH227495   2.027   1.396  14.085 -0.0106 -0.0371  0.0623
 2027TIP3    H127496   1.969   1.427  14.016 -0.8273 -1.8368 -0.1216
 2027TIP3    H227497   2.025   1.300  14.077  0.5937 -0.2584  1.9988
 2028TIP3   OH227498   1.319   0.181   1.093 -0.7807 -0.5016  0.2709
 2028TIP3    H127499   1.233   0.193   1.052 -1.5767 -0.4446  1.8486
 2028TIP3    H227500   1.346   0.270   1.117  0.3267 -0.3739 -1.2933
 2029TIP3   OH227501   5.356   4.037  17.173 -0.1718  0.7958  0.2269
 2029TIP3    H127502   5.351   3.949  17.211  2.6973  0.8264  0.9498
 2029TIP3    H227503   5.369   4.095  17.248  2.0838  1.2772 -0.4596
 2030TIP3   OH227504   1.735   3.453   2.975 -0.1639  0.7275 -0.3788
 2030TIP3    H127505   1.779   3.428   2.894 -0.9428  0.1188 -0.6294
 2030TIP3    H227506   1.642   3.435   2.958 -0.3227  0.4987  0.6779
 2031TIP3   OH227507   0.397   1.269  13.106 -0.1171  0.2882 -0.6178
 2031TIP3    H127508   0.475   1.301  13.151  1.2584 -1.6033 -1.4740
 2031TIP3    H227509   0.429   1.241  13.020 -0.7119 -4.4474  0.3911
 2032TIP3   OH227510   3.809   3.759   6.913  0.0056  0.2146  0.3128
 2032TIP3    H127511   3.747   3.711   6.858  0.4576 -2.0048  1.6031
 2032TIP3    H227512   3.755   3.813   6.970 -0.7520 -1.1163  0.9073
 2033TIP3   OH227513   0.502   0.095  15.812  0.3403  0.0079 -0.2614
 2033TIP3    H127514   0.543   0.182  15.809 -1.1896  0.7965  0.5819
 2033TIP3    H227515   0.417   0.106  15.770  0.7589 -1.4980 -1.6008
 2034TIP3   OH227516   2.121   5.866  13.750  0.2178  0.1559 -0.3867
 2034TIP3    H127517   2.082   5.779  13.750  0.9546 -0.2013  0.5988
 2034TIP3    H227518   2.101   5.901  13.837  0.2205  0.8311 -0.6567
 2035TIP3   OH227519   3.945   1.784   6.799  0.3821 -0.0295 -0.3773
 2035TIP3    H127520   4.016   1.748   6.853  1.3772  1.4028 -0.6495
 2035TIP3    H227521   3.908   1.708   6.753  1.8616 -0.8099 -0.3427
 2036TIP3   OH227522   2.954   0.201  13.343  0.1244  0.4451 -0.0333
 2036TIP3    H127523   2.865   0.202  13.308  1.0212 -0.8304 -2.6044
 2036TIP3    H227524   2.994   0.280  13.309  0.8108 -0.4781 -1.4617
 2037TIP3   OH227525   4.572   6.022   0.948 -0.3422  0.1904 -0.0783
 2037TIP3    H127526   4.658   6.016   0.906  0.4524  0.1229  1.4712
 2037TIP3    H227527   4.513   5.978   0.888  0.7806 -0.1586 -0.9741
 2038TIP3   OH227528   3.066   0.699  13.492 -0.0380 -0.1001 -0.0466
 2038TIP3    H127529   3.103   0.728  13.409 -2.4970 -1.3837 -1.7115
 2038TIP3    H227530   3.141   0.693  13.551  1.9692 -0.2152 -2.4562
 2039TIP3   OH227531   0.088   4.812  15.709 -0.3664 -0.1289 -0.1245
 2039TIP3    H127532   0.121   4.896  15.678  2.0520 -1.6902 -2.2014
 2039TIP3    H227533   0.128   4.801  15.795 -1.4774  1.2006  0.5999
 2040TIP3   OH227534   4.777   2.672   5.984 -0.2435 -0.2561  0.4933
 2040TIP3    H127535   4.868   2.664   5.954 -1.4272 -1.5741 -3.2762
 2040TIP3    H227536   4.756   2.585   6.019 -0.5874 -0.5912 -0.5103
 2041TIP3   OH227537   3.752   1.369  11.794  0.6008 -0.7713  0.1853
 2041TIP3    H127538   3.695   1.312  11.742  1.7903 -1.6999 -0.1499
 2041TIP3    H227539   3.771   1.443  11.737 -2.3251  0.9244  1.2120
 2042TIP3   OH227540   0.223   4.070   0.944 -0.0185  0.2368 -0.1095
 2042TIP3    H127541   0.164   4.000   0.918  1.1063 -0.5944 -0.4875
 2042TIP3    H227542   0.307   4.027   0.961  1.0771  1.6133 -1.6165
 2043TIP3   OH227543   4.945   1.517  10.612  0.5339 -0.0780 -0.8195
 2043TIP3    H127544   4.950   1.571  10.533  0.6753 -0.9196 -1.3967
 2043TIP3    H227545   4.853   1.523  10.640  0.7179  1.0784 -0.4281
 2044TIP3   OH227546   0.859   5.403  11.714  0.5932  0.1996  0.4835
 2044TIP3    H127547   0.838   5.311  11.728 -0.3622  0.2828 -0.2778
 2044TIP3    H227548   0.775   5.449  11.721  0.7026  0.7384 -1.1337
 2045TIP3   OH227549   3.651   0.280  12.479 -0.1847  0.3601 -0.5949
 2045TIP3    H127550   3.665   0.351  12.542  1.2803 -0.0377 -0.4443
 2045TIP3    H227551   3.613   0.210  12.532 -0.8510  0.7219 -0.5778
 2046TIP3   OH227552   0.571   2.233  16.809  0.3289  0.8664  0.7242
 2046TIP3    H127553   0.533   2.263  16.891  0.9724  1.8080  0.7039
 2046TIP3    H227554   0.578   2.313  16.756  1.0337  0.4829  0.2210
 2047TIP3   OH227555   1.009   1.037  11.940 -0.0853  0.6337  0.2223
 2047TIP3    H127556   0.964   1.121  11.938  0.4137  0.9036  0.4722
 2047TIP3    H227557   1.069   1.040  11.866 -1.5438 -0.3337 -1.0802
 2048TIP3   OH227558   3.050   0.365  15.931  0.1430 -0.3255  0.2864
 2048TIP3    H127559   3.039   0.307  15.856  0.8260  1.2626 -1.1260
 2048TIP3    H227560   3.130   0.414  15.912  0.2708  0.2053  2.0099
 2049TIP3   OH227561   5.687   3.864  13.773  0.1169  0.5312  0.3373
 2049TIP3    H127562   5.747   3.928  13.734 -1.8542  2.1624 -0.1595
 2049TIP3    H227563   5.708   3.865  13.867  0.3733  1.6343  0.2772
 2050TIP3   OH227564   6.449   1.780   4.074  0.5388  0.3223  0.2951
 2050TIP3    H127565   6.516   1.725   4.113 -0.2782 -0.7059  0.2864
 2050TIP3    H227566   6.475   1.790   3.983  1.1544  0.7043  0.5025
 2051TIP3   OH227567   3.537   5.002  15.607  0.6675  0.1944  0.1926
 2051TIP3    H127568   3.499   4.943  15.671  3.4002 -1.8788  0.0711
 2051TIP3    H227569   3.482   4.992  15.529 -0.4027 -0.2158  0.9783
 2052TIP3   OH227570   4.154   5.657  12.636 -0.2679 -0.4599 -0.4629
 2052TIP3    H127571   4.202   5.627  12.558  0.7420  0.7751 -0.3564
 2052TIP3    H227572   4.150   5.580  12.692  1.3666 -0.6935 -0.6143
 2053TIP3   OH227573   5.135   6.073   1.263 -0.1963 -0.3032 -0.0955
 2053TIP3    H127574   5.116   5.982   1.243  0.9616 -0.5744 -0.0512
 2053TIP3    H227575   5.104   6.086   1.353  1.9215 -1.4117  0.8736
 2054TIP3   OH227576   1.047   0.187   6.567 -0.5891  0.3468 -0.0573
 2054TIP3    H127577   1.058   0.138   6.648 -2.9520 -1.1206 -0.5246
 2054TIP3    H227578   0.954   0.210   6.566 -0.7773 -0.2834 -2.6672
 2055TIP3   OH227579   0.011   1.625  16.583  0.1775 -0.2665 -0.0012
 2055TIP3    H127580  -0.061   1.565  16.601 -0.3104  0.0479 -0.8506
 2055TIP3    H227581   0.048   1.645  16.669 -0.2066 -1.0926  0.3669
 2056TIP3   OH227582   5.331   1.420  15.936  0.1700  0.3986  0.6989
 2056TIP3    H127583   5.321   1.488  16.002 -0.7815  0.0558  0.9316
 2056TIP3    H227584   5.415   1.378  15.956 -0.5377 -0.3209  2.3109
 2057TIP3   OH227585   6.265   4.691  14.111  0.1559  0.4825  0.0264
 2057TIP3    H127586   6.227   4.732  14.189  1.3915 -0.2885  1.0930
 2057TIP3    H227587   6.240   4.599  14.118  0.5340  0.3506 -0.3347
 2058TIP3   OH227588   6.642   0.859  12.168 -0.0092  0.1901  0.4245
 2058TIP3    H127589   6.638   0.786  12.106  0.0895  0.7747 -0.2764
 2058TIP3    H227590   6.552   0.868  12.201  0.2654 -1.2186  1.6782
 2059TIP3   OH227591   2.385   6.756   0.687 -0.0079  0.4278 -0.7248
 2059TIP3    H127592   2.409   6.731   0.777 -1.1042  2.0172  0.0591
 2059TIP3    H227593   2.397   6.676   0.636  1.5155 -0.2910  0.6554
 2060TIP3   OH227594   4.453   1.484   0.216  0.1888  0.2378  0.3050
 2060TIP3    H127595   4.505   1.543   0.162 -0.3266  0.6413  0.2456
 2060TIP3    H227596   4.431   1.535   0.294 -0.6580  0.2938  0.0403
 2061TIP3   OH227597   3.034   4.362  14.797  0.0220 -0.5397 -0.0890
 2061TIP3    H127598   2.950   4.401  14.824  0.2334  0.4170 -0.7660
 2061TIP3    H227599   3.020   4.267  14.806 -1.4970 -0.4652 -1.1811
 2062TIP3   OH227600   0.590   6.559  14.084  0.0904 -0.2698 -0.1764
 2062TIP3    H127601   0.504   6.564  14.126 -0.4334 -1.8709 -0.9725
 2062TIP3    H227602   0.628   6.645  14.097 -1.8022  0.6126 -0.1309
 2063TIP3   OH227603   2.732   1.287   5.686 -0.3110  0.8679  0.4607
 2063TIP3    H127604   2.732   1.383   5.695  1.0233  0.7587  2.0977
 2063TIP3    H227605   2.824   1.264   5.675 -0.5593 -0.2763  0.6318
 2064TIP3   OH227606   5.804   5.739  16.365 -0.1382  0.3600 -0.0357
 2064TIP3    H127607   5.835   5.829  16.375  0.3234  0.0453  1.8385
 2064TIP3    H227608   5.771   5.715  16.452 -0.8343 -1.0849 -0.6511
 2065TIP3   OH227609   3.774   4.582   4.680 -0.2212  0.4713 -0.8797
 2065TIP3    H127610   3.709   4.541   4.737  1.4939  0.4068  1.1456
 2065TIP3    H227611   3.754   4.548   4.593  0.0589 -3.4560  0.4048
 2066TIP3   OH227612   5.315   1.713   1.527  0.1028 -0.1415  0.1060
 2066TIP3    H127613   5.294   1.805   1.510  1.5910  0.3590  0.7802
 2066TIP3    H227614   5.312   1.671   1.441  3.3083  1.4137 -0.9236
 2067TIP3   OH227615   6.311   2.472   6.373  0.2334 -0.5312 -0.5431
 2067TIP3    H127616   6.355   2.472   6.288  2.2322  0.6132  0.4083
 2067TIP3    H227617   6.349   2.398   6.420 -0.3944 -0.7739 -0.3983
 2068TIP3   OH227618   2.355   1.580  12.509 -0.4519  0.1032  0.3489
 2068TIP3    H127619   2.347   1.646  12.440  0.4430  0.9628  1.0446
 2068TIP3    H227620   2.403   1.623  12.579  0.2577 -1.3169  0.7917
 2069TIP3   OH227621   4.405   2.590   0.631  0.5788  0.5463 -0.4218
 2069TIP3    H127622   4.331   2.536   0.660 -0.4580  1.7584 -0.7326
 2069TIP3    H227623   4.408   2.578   0.536  2.1282 -1.1128 -0.2297
 2070TIP3   OH227624   2.094   3.696   4.352  0.1522  0.1578 -0.4280
 2070TIP3    H127625   2.127   3.617   4.393  0.8386  0.2203 -0.8506
 2070TIP3    H227626   2.014   3.668   4.306 -0.7994  0.1453  1.1553
 2071TIP3   OH227627   5.210   0.912  12.910  0.1716 -0.5548 -0.0745
 2071TIP3    H127628   5.263   0.984  12.945 -0.3275 -0.4536  0.4871
 2071TIP3    H227629   5.130   0.954  12.878  1.2471 -0.4171 -2.8485
 2072TIP3   OH227630   2.601   3.042  10.627 -0.2057  0.0365 -0.3950
 2072TIP3    H127631   2.547   2.984  10.574  0.8013  0.0951 -1.5166
 2072TIP3    H227632   2.596   3.006  10.716 -0.4386 -1.1432 -0.8716
 2073TIP3   OH227633   3.821   6.581  11.968  0.6084  0.2891 -0.0491
 2073TIP3    H127634   3.794   6.500  12.011  0.0049  0.8462  0.6412
 2073TIP3    H227635   3.908   6.598  12.003  1.1542 -0.5596 -0.9289
 2074TIP3   OH227636   6.705   2.833   1.830 -0.0716  1.1813  0.5989
 2074TIP3    H127637   6.615   2.826   1.800 -0.5935  2.1948  1.8576
 2074TIP3    H227638   6.699   2.852   1.923  1.4474  1.2043  0.7291
 2075TIP3   OH227639   6.535   3.288  13.838  0.2658 -0.0928  0.7738
 2075TIP3    H127640   6.528   3.206  13.789 -1.2357 -1.0740  2.4675
 2075TIP3    H227641   6.595   3.267  13.910  2.2187  1.2282 -0.3940
 2076TIP3   OH227642   5.669   4.052  11.402  0.1962  0.1854  0.0303
 2076TIP3    H127643   5.679   4.061  11.308 -1.9712 -2.8226 -0.6222
 2076TIP3    H227644   5.725   3.977  11.425 -0.8360 -0.4098  0.7129
 2077TIP3   OH227645   1.908   4.804   5.966  0.1029 -0.1479  0.5467
 2077TIP3    H127646   1.857   4.885   5.959  0.2522  0.3806  3.8709
 2077TIP3    H227647   1.846   4.735   5.943 -0.8890  0.7458  0.4436
 2078TIP3   OH227648   2.536   4.698  13.796  0.3403 -0.1334  0.5274
 2078TIP3    H127649   2.554   4.604  13.787 -0.7075 -0.4631  1.6571
 2078TIP3    H227650   2.445   4.707  13.768  0.6821  0.7029 -0.3768
 2079TIP3   OH227651   0.553   4.326  14.204  0.3579 -0.0985 -0.2891
 2079TIP3    H127652   0.595   4.354  14.285 -0.9113  2.2677 -0.3686
 2079TIP3    H227653   0.583   4.390  14.139 -1.1755 -0.0185 -0.9445
 2080TIP3   OH227654   3.883   0.342   0.069  0.5190 -0.2712 -0.3302
 2080TIP3    H127655   3.920   0.423   0.104 -0.2885  0.0692 -0.2395
 2080TIP3    H227656   3.958   0.294   0.034  0.9321  0.8329 -1.0258
 2081TIP3   OH227657   0.920   0.448  16.483  0.6490  0.0504 -0.0998
 2081TIP3    H127658   0.833   0.432  16.446 -0.8933  3.3310  1.6946
 2081TIP3    H227659   0.917   0.409  16.570  1.0259  0.0684 -0.0787
 2082TIP3   OH227660   4.221   3.784   1.959  0.7531 -0.0608  0.4672
 2082TIP3    H127661   4.243   3.864   1.912  0.5319  0.4820  1.2709
 2082TIP3    H227662   4.163   3.736   1.900  1.5469 -0.0261 -0.3620
 2083TIP3   OH227663   6.422   3.708  10.712  0.2140 -0.8128  0.0348
 2083TIP3    H127664   6.385   3.718  10.625  0.7365 -0.2672 -0.1301
 2083TIP3    H227665   6.438   3.614  10.722 -0.2719 -0.9317 -0.2712
 2084TIP3   OH227666   0.796   6.202   5.793 -0.9098 -0.2594 -0.4917
 2084TIP3    H127667   0.802   6.275   5.854  2.6111  0.4415 -1.4253
 2084TIP3    H227668   0.741   6.234   5.721 -1.2847  0.6192  0.1737
 2085TIP3   OH227669   5.052   5.611  14.374 -0.7026 -0.0663  0.1137
 2085TIP3    H127670   5.054   5.673  14.302  1.1774  0.2993  0.4404
 2085TIP3    H227671   5.051   5.525  14.332  0.0008  0.1500 -0.3517
 2086TIP3   OH227672   4.003   0.068  16.026 -0.6121  0.9172  0.2175
 2086TIP3    H127673   3.908   0.066  16.018 -0.6123 -0.0912  0.2907
 2086TIP3    H227674   4.020   0.098  16.115 -0.9341 -0.7796  0.8961
 2087TIP3   OH227675   5.392   1.061  17.159 -0.4756 -0.5659  0.2229
 2087TIP3    H127676   5.360   1.135  17.107 -2.6622  0.1055  2.3352
 2087TIP3    H227677   5.471   1.093  17.202 -0.3832 -0.0998 -0.2924
 2088TIP3   OH227678   4.451   3.353  12.615  0.0722  0.1834 -0.1791
 2088TIP3    H127679   4.515   3.418  12.586  1.0837 -0.5631  0.3298
 2088TIP3    H227680   4.440   3.295  12.540 -2.2042  1.8976 -1.3048
 2089TIP3   OH227681   3.395   3.932   4.558 -0.0094  0.3421 -0.1683
 2089TIP3    H127682   3.447   3.965   4.485 -0.0599  1.9217  0.4590
 2089TIP3    H227683   3.402   4.001   4.625 -0.5229 -0.7422  1.0472
 2090TIP3   OH227684   0.181   5.568  15.868 -0.3248  0.0622  0.0216
 2090TIP3    H127685   0.128   5.622  15.809 -2.3497 -0.9455  0.8239
 2090TIP3    H227686   0.125   5.554  15.944  1.3475 -0.6022  1.1948
 2091TIP3   OH227687   4.019   5.530  13.419  0.6268  0.4835  0.0675
 2091TIP3    H127688   4.074   5.590  13.471  0.2417 -0.5074  1.6750
 2091TIP3    H227689   3.998   5.459  13.479 -1.1876  0.0875 -0.9715
 2092TIP3   OH227690   1.582   0.014   1.560 -0.9608 -0.2461  0.6208
 2092TIP3    H127691   1.506   0.066   1.537 -0.9475  0.4662  2.0601
 2092TIP3    H227692   1.628  -0.001   1.477 -2.2004  0.0340 -0.1374
 2093TIP3   OH227693   2.590   3.646   1.637 -0.5542 -0.0316  0.0666
 2093TIP3    H127694   2.528   3.700   1.587 -0.5505  1.4995  1.6362
 2093TIP3    H227695   2.538   3.608   1.707  0.0836  0.5008  0.8395
 2094TIP3   OH227696   6.733   0.327  11.275 -0.1857  0.0983  0.1813
 2094TIP3    H127697   6.713   0.235  11.259  0.9769 -0.4200  1.5744
 2094TIP3    H227698   6.661   0.374  11.233 -1.0901 -1.4532 -0.0893
 2095TIP3   OH227699   3.529   3.007   5.066 -0.1662 -0.1104 -0.1222
 2095TIP3    H127700   3.579   3.082   5.099 -0.9466 -0.0830  1.0310
 2095TIP3    H227701   3.484   3.041   4.989 -0.7389  0.6930  0.5593
 2096TIP3   OH227702   4.420   5.733  14.214 -0.0843 -0.2384 -0.2141
 2096TIP3    H127703   4.344   5.683  14.245  0.1999 -1.4154 -1.3288
 2096TIP3    H227704   4.412   5.730  14.118  0.2116  1.4655 -0.3192
 2097TIP3   OH227705   2.370   5.030  11.931 -0.7655  0.9659 -0.2787
 2097TIP3    H127706   2.299   5.089  11.958 -0.6557  0.8107  0.3604
 2097TIP3    H227707   2.325   4.956  11.890 -1.1001  0.1187  1.5046
 2098TIP3   OH227708   3.360   6.311   1.342 -0.0121 -0.3292 -0.1333
 2098TIP3    H127709   3.406   6.233   1.310  1.0131  0.3374 -0.3059
 2098TIP3    H227710   3.377   6.378   1.276 -0.2502  0.2539  0.3898
 2099TIP3   OH227711   4.112   4.218   3.799  0.0721 -0.4689 -0.3007
 2099TIP3    H127712   4.057   4.203   3.876 -0.9214  0.3421 -0.8273
 2099TIP3    H227713   4.129   4.130   3.764 -1.3338 -0.7209 -0.4172
 2100TIP3   OH227714   3.253   2.236  14.693  0.7443  0.3873  0.1942
 2100TIP3    H127715   3.167   2.194  14.692  2.0572 -2.5682  1.1172
 2100TIP3    H227716   3.255   2.288  14.613 -1.6012 -0.0602 -0.2261
 2101TIP3   OH227717   0.348   6.602  16.872  0.0061 -0.2242 -0.2325
 2101TIP3    H127718   0.320   6.524  16.919 -0.3597 -0.2195 -0.4399
 2101TIP3    H227719   0.353   6.670  16.939  1.6185 -0.7337  0.1922
 2102TIP3   OH227720   0.398   6.360  13.621 -0.7116  0.5855 -0.0892
 2102TIP3    H127721   0.396   6.456  13.618  1.9631  0.7218  0.1421
 2102TIP3    H227722   0.431   6.333  13.535 -0.2318 -0.0380  0.2766
 2103TIP3   OH227723   5.349   6.561   4.803  0.0839 -0.3888 -0.0846
 2103TIP3    H127724   5.304   6.491   4.756 -2.1523  0.5471  0.5296
 2103TIP3    H227725   5.340   6.638   4.746  1.0946 -0.1981 -0.0180
 2104TIP3   OH227726   2.038   3.760  14.988  0.1344 -0.1166 -0.0653
 2104TIP3    H127727   2.123   3.720  15.003  0.3732 -0.4550 -1.9975
 2104TIP3    H227728   2.058   3.847  14.954 -0.2846 -0.0791 -0.2316
 2105TIP3   OH227729   5.607   3.863  11.014  0.0360  0.4234  0.1714
 2105TIP3    H127730   5.697   3.895  11.027  0.0364  0.3500  0.3543
 2105TIP3    H227731   5.557   3.941  10.992 -0.1806  0.7484  1.6855
 2106TIP3   OH227732   3.278   4.323   2.599  0.3186 -0.0986  0.0831
 2106TIP3    H127733   3.265   4.411   2.562  0.9340  0.3526  0.9019
 2106TIP3    H227734   3.283   4.265   2.522  0.2015  0.6228 -0.4825
 2107TIP3   OH227735   4.543   3.241   5.735 -0.1185 -0.3553  0.5588
 2107TIP3    H127736   4.591   3.320   5.761  1.9280 -1.7431  1.2191
 2107TIP3    H227737   4.530   3.251   5.640  0.5524  0.5619  0.5507
 2108TIP3   OH227738   6.605   5.108   0.526 -0.6363  0.3413 -0.0833
 2108TIP3    H127739   6.518   5.118   0.564 -1.2703  0.3429 -1.4532
 2108TIP3    H227740   6.642   5.032   0.571 -0.9821  0.8850  1.1415
 2109TIP3   OH227741   3.619   4.839   1.570 -0.4558  0.5217  0.1556
 2109TIP3    H127742   3.587   4.874   1.487  0.5381 -0.5550 -0.7148
 2109TIP3    H227743   3.703   4.798   1.548 -0.0826  0.3732  1.7330
 2110TIP3   OH227744   1.852   5.179  15.634  1.0563  0.1629 -0.5375
 2110TIP3    H127745   1.799   5.191  15.554  0.6321  0.2596 -0.2438
 2110TIP3    H227746   1.892   5.093  15.623  0.9750  0.1600 -0.8413
 2111TIP3   OH227747   1.758   5.151   3.274 -0.2835 -0.1843 -0.1315
 2111TIP3    H127748   1.731   5.240   3.252 -1.1180 -0.3600  0.1295
 2111TIP3    H227749   1.697   5.095   3.225  0.0129 -0.6047 -0.0249
 2112TIP3   OH227750   5.337   2.677  15.866 -0.4092 -0.3583  0.1118
 2112TIP3    H127751   5.289   2.595  15.875 -1.4919  0.3678  1.2238
 2112TIP3    H227752   5.427   2.655  15.892 -0.1478 -1.6710 -1.7555
 2113TIP3   OH227753   4.174   6.006  14.251 -0.0931  0.2016  0.8691
 2113TIP3    H127754   4.239   5.967  14.309  0.4645  0.4871  0.4514
 2113TIP3    H227755   4.213   5.997  14.163 -1.5129 -1.4560  0.3479
 2114TIP3   OH227756   4.218   4.937  17.089  0.7839  0.6437  0.2455
 2114TIP3    H127757   4.294   4.995  17.096  1.8221 -0.6968  0.6825
 2114TIP3    H227758   4.256   4.850  17.073 -0.7130  0.0968 -0.5626
 2115TIP3   OH227759   6.389   6.722   2.725  0.1085  0.9957  0.1763
 2115TIP3    H127760   6.384   6.790   2.793 -0.3587  0.7803  0.3608
 2115TIP3    H227761   6.482   6.700   2.720  0.0311  0.2491  1.5169
 2116TIP3   OH227762   3.065   1.670  15.065  0.0507 -0.5381  0.3229
 2116TIP3    H127763   3.076   1.632  15.152  1.4452  1.9529  1.3570
 2116TIP3    H227764   3.096   1.603  15.005  1.1820 -1.5045  1.9176
 2117TIP3   OH227765   4.811   6.025   3.500 -0.0491  0.1126 -0.2622
 2117TIP3    H127766   4.774   6.083   3.567  1.6127  0.8220  0.0970
 2117TIP3    H227767   4.814   5.939   3.543  0.5023  0.4520  0.4119
 2118TIP3   OH227768   4.081   3.982   4.711  0.0452 -0.1574 -0.1462
 2118TIP3    H127769   4.064   4.046   4.780  0.8879  2.0196 -1.8472
 2118TIP3    H227770   4.165   3.943   4.734 -0.5378 -0.7831  0.9763
 2119TIP3   OH227771   6.104   5.072  16.098 -0.1537 -0.2106 -0.3988
 2119TIP3    H127772   6.198   5.062  16.080  0.1490  1.9571 -0.2529
 2119TIP3    H227773   6.085   5.163  16.077 -2.2500 -0.6068 -0.4001
 2120TIP3   OH227774   6.384   0.342   5.557 -0.2975 -0.1346 -0.6996
 2120TIP3    H127775   6.477   0.356   5.570  0.1561 -2.1923 -1.3680
 2120TIP3    H227776   6.373   0.343   5.461 -1.1147  0.8050 -0.6201
 2121TIP3   OH227777   0.216   6.027   0.744  0.1774 -0.1379 -0.2198
 2121TIP3    H127778   0.175   6.018   0.658 -2.6629 -0.9843  1.1491
 2121TIP3    H227779   0.276   5.953   0.750 -0.4837 -0.7547 -1.0127
 2122TIP3   OH227780   0.535   1.206   3.844  0.7172  0.3006  0.1547
 2122TIP3    H127781   0.606   1.256   3.883  0.4361  1.9740 -1.3449
 2122TIP3    H227782   0.579   1.146   3.784  1.0457 -1.2254  1.8523
 2123TIP3   OH227783   2.839   4.275   0.644 -0.0299 -0.0480 -0.0780
 2123TIP3    H127784   2.837   4.191   0.599 -1.0479  0.7885 -1.6789
 2123TIP3    H227785   2.922   4.314   0.618 -0.3767  0.2051 -0.8239
 2124TIP3   OH227786   5.395   1.900   1.956  0.4582 -0.6575  0.8790
 2124TIP3    H127787   5.375   1.990   1.982  0.3503 -0.8104  1.3347
 2124TIP3    H227788   5.463   1.909   1.890  0.3309 -0.2328  0.7993
 2125TIP3   OH227789   1.820   1.636  14.788  0.0675  0.1205 -0.0794
 2125TIP3    H127790   1.822   1.646  14.883  0.4492 -0.8881  0.0342
 2125TIP3    H227791   1.901   1.676  14.757 -0.8829  2.0559 -0.1722
 2126TIP3   OH227792   0.134   3.100  16.050 -0.6030 -0.1606 -0.3586
 2126TIP3    H127793   0.207   3.045  16.078  0.7588  0.8657 -1.7638
 2126TIP3    H227794   0.130   3.170  16.115 -1.3856 -1.0477  0.5915
 2127TIP3   OH227795   6.715   3.091   2.040 -0.1318 -0.2828  0.1191
 2127TIP3    H127796   6.633   3.141   2.040 -0.5716 -0.8490  2.4680
 2127TIP3    H227797   6.691   3.007   2.080  1.6782 -0.2376  1.4342
 2128TIP3   OH227798   0.232   3.053   4.532 -0.0085  0.1497  0.1309
 2128TIP3    H127799   0.261   3.111   4.603 -1.5266 -0.5035  1.3372
 2128TIP3    H227800   0.154   3.096   4.496  0.5391  0.2874 -0.9422
 2129TIP3   OH227801   2.725   6.592  12.795 -0.3120  0.6260 -0.6394
 2129TIP3    H127802   2.640   6.605  12.753 -0.1319  0.8703 -0.9369
 2129TIP3    H227803   2.708   6.529  12.865 -1.7896  4.0603  2.4534
 2130TIP3   OH227804   5.976   1.526   1.407 -0.5474 -0.1397 -0.1214
 2130TIP3    H127805   5.922   1.545   1.330  0.9225 -0.2360 -1.2308
 2130TIP3    H227806   6.005   1.611   1.439  2.0907 -0.1245 -2.1680
 2131TIP3   OH227807   3.395   5.492  13.832  0.6751 -0.1697 -0.0329
 2131TIP3    H127808   3.368   5.583  13.818  0.6014 -0.1237  0.3826
 2131TIP3    H227809   3.401   5.455  13.744  0.7668  0.2552 -0.2101
 2132TIP3   OH227810   5.217   6.605   1.249  0.3183  0.1616 -0.0618
 2132TIP3    H127811   5.252   6.664   1.315 -1.3029  0.8195  0.2670
 2132TIP3    H227812   5.199   6.524   1.296  0.2385  0.2451  0.0515
 2133TIP3   OH227813   4.353   1.256  16.597  0.1187  0.1767  0.1790
 2133TIP3    H127814   4.318   1.311  16.667 -0.7933  1.1227 -0.9728
 2133TIP3    H227815   4.414   1.314  16.551 -0.0005 -0.1367 -0.3731
 2134TIP3   OH227816   6.720   6.596  16.595 -0.2966 -0.1242 -0.2113
 2134TIP3    H127817   6.741   6.555  16.679  0.5994  3.5292  1.5353
 2134TIP3    H227818   6.801   6.641  16.569 -1.3332  1.0363 -1.6459
 2135TIP3   OH227819   6.544   1.348  12.192 -0.0896 -0.0074  0.4231
 2135TIP3    H127820   6.582   1.285  12.253  0.8310  0.1753  0.0500
 2135TIP3    H227821   6.580   1.432  12.220  0.2321  0.0937 -0.2858
 2136TIP3   OH227822   0.043   4.148  14.750 -0.3033  0.1689 -0.7353
 2136TIP3    H127823   0.091   4.106  14.820 -1.2684  0.4966  0.1556
 2136TIP3    H227824   0.110   4.188  14.695  0.4674 -0.0528  0.0271
 2137TIP3   OH227825   6.006   2.200  12.705 -0.1509 -0.7626  0.0274
 2137TIP3    H127826   6.026   2.201  12.612 -1.0302  0.2963 -0.1753
 2137TIP3    H227827   6.086   2.167  12.747  0.3596 -0.9443 -1.0658
 2138TIP3   OH227828   1.325   0.141   0.690 -0.1331 -0.9289  0.2893
 2138TIP3    H127829   1.300   0.184   0.609  1.3417 -0.9621 -0.2276
 2138TIP3    H227830   1.250   0.087   0.714 -1.2362  0.3611 -0.1262
 2139TIP3   OH227831   1.620   3.611  13.963  0.2016 -0.3894 -0.0167
 2139TIP3    H127832   1.621   3.706  13.957  1.7984 -0.4042 -0.3632
 2139TIP3    H227833   1.646   3.592  14.053  0.7961 -0.4899 -0.2011
 2140TIP3   OH227834   0.073   5.176   4.142  0.1742  0.2461  0.0818
 2140TIP3    H127835   0.138   5.246   4.147  1.3161 -0.7350 -0.3235
 2140TIP3    H227836   0.126   5.096   4.143 -1.1129 -0.6200  0.9779
 2141TIP3   OH227837   5.546   2.574  12.432 -0.5261  0.2441  0.3046
 2141TIP3    H127838   5.526   2.650  12.377 -1.2084  0.3089  0.6388
 2141TIP3    H227839   5.639   2.584  12.453 -0.2334  0.1838 -0.8876
 2142TIP3   OH227840   0.244   0.239   3.182 -0.2331  0.6865 -0.5050
 2142TIP3    H127841   0.271   0.147   3.183 -2.4485 -0.0756 -2.1530
 2142TIP3    H227842   0.325   0.288   3.191  0.9943 -1.3947  0.8921
 2143TIP3   OH227843   5.654   1.305  11.737  0.0589 -0.2757 -0.2018
 2143TIP3    H127844   5.722   1.372  11.727 -0.3029  0.0453 -0.5552
 2143TIP3    H227845   5.702   1.222  11.732  0.3177 -0.0832 -1.5251
 2144TIP3   OH227846   5.817   1.277  13.126  0.0372 -0.0120 -0.7288
 2144TIP3    H127847   5.836   1.185  13.111  0.5445 -0.0925  0.3059
 2144TIP3    H227848   5.865   1.299  13.206 -1.5224  0.6686  0.0583
 2145TIP3   OH227849   0.392   6.309   4.738  0.4252  0.0478  0.1794
 2145TIP3    H127850   0.411   6.219   4.764 -0.9377 -0.4888 -0.5276
 2145TIP3    H227851   0.348   6.347   4.814  2.0933  0.5288  0.9301
 2146TIP3   OH227852   3.813   5.835   5.068  0.3634 -0.1206  0.4542
 2146TIP3    H127853   3.857   5.763   5.113  0.5715 -0.2817  0.0032
 2146TIP3    H227854   3.884   5.886   5.030  0.1811 -0.1609  0.0533
 2147TIP3   OH227855   3.159   6.289  14.901 -0.2115  0.3528  0.1640
 2147TIP3    H127856   3.228   6.326  14.956 -0.6357  1.2014  0.1317
 2147TIP3    H227857   3.176   6.325  14.814 -1.4493  1.6040  0.4209
 2148TIP3   OH227858   3.844   3.593   2.886  0.5661 -0.0542  0.2391
 2148TIP3    H127859   3.901   3.664   2.858 -0.2104  0.1792 -0.8023
 2148TIP3    H227860   3.887   3.557   2.964  2.9671 -0.8724 -1.3411
 2149TIP3   OH227861   3.384   0.723  14.248  0.3238  0.6860 -0.0153
 2149TIP3    H127862   3.306   0.748  14.198  1.4172 -1.5872 -3.1776
 2149TIP3    H227863   3.357   0.644  14.294  0.3307  0.7958  0.1785
 2150TIP3   OH227864   3.728   2.581  15.218 -0.3710 -0.1595 -0.3043
 2150TIP3    H127865   3.690   2.661  15.182  0.3018  0.3298  0.0494
 2150TIP3    H227866   3.719   2.590  15.313 -0.1437 -0.4318 -0.2538
 2151TIP3   OH227867   2.021   2.872   0.547 -0.5262 -0.2880  0.1524
 2151TIP3    H127868   2.109   2.870   0.510 -0.7106 -2.4352 -0.2869
 2151TIP3    H227869   2.033   2.848   0.639 -0.4085  2.0386  0.8003
 2152TIP3   OH227870   3.738   5.474   6.155 -0.0266  0.3671 -0.5210
 2152TIP3    H127871   3.676   5.519   6.212  0.3795 -0.9658  1.0499
 2152TIP3    H227872   3.739   5.526   6.074 -1.5124  1.6427  0.2337
 2153TIP3   OH227873   1.268   2.440   0.164  0.9318 -0.0943  0.7502
 2153TIP3    H127874   1.246   2.533   0.164 -1.0829 -0.5262  0.9027
 2153TIP3    H227875   1.296   2.421   0.253 -0.3694  0.0209  1.2000
 2154TIP3   OH227876   1.159   1.078   4.445  0.3431 -0.1113  0.3472
 2154TIP3    H127877   1.141   1.029   4.365 -1.7595  1.0256  0.0549
 2154TIP3    H227878   1.167   1.011   4.513  1.0941 -1.0278 -0.6156
 2155TIP3   OH227879   5.907   4.411   0.985 -0.5655 -0.1145  0.0899
 2155TIP3    H127880   5.930   4.327   0.947  1.8973 -0.1173  1.4132
 2155TIP3    H227881   5.869   4.389   1.070 -1.4182  0.0741 -0.2334
 2156TIP3   OH227882   3.444   5.519   1.292 -0.1523  0.6381 -0.7277
 2156TIP3    H127883   3.371   5.581   1.299  2.0015  3.2152  1.1987
 2156TIP3    H227884   3.492   5.548   1.214  0.1681  0.5718 -0.5548
 2157TIP3   OH227885   3.850   2.673   5.881 -0.1871 -0.6194 -0.6142
 2157TIP3    H127886   3.925   2.618   5.857  0.0845 -0.6766  0.3381
 2157TIP3    H227887   3.856   2.681   5.976  0.3819  1.9001 -0.7937
 2158TIP3   OH227888   3.355   2.948  16.047  0.7627 -0.3474 -0.1785
 2158TIP3    H127889   3.359   2.989  15.961 -0.5021  1.4078  0.5395
 2158TIP3    H227890   3.407   3.006  16.103  0.3597 -0.6528  0.5293
 2159TIP3   OH227891   4.668   2.940  16.689  0.4850 -0.3847  0.0970
 2159TIP3    H127892   4.685   3.016  16.744  1.2543  2.2170 -3.3895
 2159TIP3    H227893   4.586   2.904  16.722 -1.5821  3.7976  0.1985
 2160TIP3   OH227894   4.622   6.458   4.111 -0.9403  0.0255  0.2717
 2160TIP3    H127895   4.703   6.415   4.082  0.5847  3.7746 -1.7044
 2160TIP3    H227896   4.646   6.499   4.194 -1.1574  0.2781  0.2081
 2161TIP3   OH227897   1.027   4.589   4.884  0.1164 -0.9309 -0.3585
 2161TIP3    H127898   0.961   4.625   4.825  0.8197  0.0723 -0.5565
 2161TIP3    H227899   1.059   4.665   4.933 -0.5588 -1.7529  1.4462
 2162TIP3   OH227900   4.059   5.601   2.143  0.0758  0.1884 -0.1703
 2162TIP3    H127901   3.972   5.627   2.113  0.1376  0.0236 -0.5060
 2162TIP3    H227902   4.044   5.553   2.224  0.1003  2.8797  1.5492
 2163TIP3   OH227903   3.701   4.580   1.237  0.1613 -0.0637 -0.2219
 2163TIP3    H127904   3.779   4.632   1.214 -0.4853  1.2564  0.4417
 2163TIP3    H227905   3.731   4.489   1.233  1.9003  0.4235  0.5997
 2164TIP3   OH227906   3.609   3.977   3.576  0.2129  0.2371 -0.7053
 2164TIP3    H127907   3.544   3.996   3.507 -0.5649 -2.5917 -0.8941
 2164TIP3    H227908   3.557   3.967   3.656  0.4484 -1.2535 -0.7014
 2165TIP3   OH227909   0.077   0.750   5.370 -0.4161 -0.2696 -0.0098
 2165TIP3    H127910   0.117   0.836   5.360 -3.2728  1.7894  3.7478
 2165TIP3    H227911  -0.006   0.756   5.323 -0.9217 -0.7330  0.7993
 2166TIP3   OH227912   3.015   2.708   3.167  0.2943 -0.5118 -0.3248
 2166TIP3    H127913   2.970   2.789   3.189  2.2071  0.6739 -0.5966
 2166TIP3    H227914   3.076   2.732   3.098  2.3129 -1.6965  0.9423
 2167TIP3   OH227915   4.072   1.995   0.254  0.2056 -0.5011 -0.4908
 2167TIP3    H127916   3.991   2.044   0.239  0.3733 -0.3456 -0.8953
 2167TIP3    H227917   4.046   1.923   0.311  0.1043  0.5221  0.8321
 2168TIP3   OH227918   0.854   6.591   5.723 -0.3696  0.1755  0.3553
 2168TIP3    H127919   0.773   6.598   5.673 -1.2064  2.5066  1.8646
 2168TIP3    H227920   0.831   6.539   5.799 -0.0865 -0.2413  0.1608
 2169TIP3   OH227921   1.165   2.792  16.247  0.2624  0.2494 -0.4347
 2169TIP3    H127922   1.224   2.718  16.259  1.4818  1.1572 -0.6171
 2169TIP3    H227923   1.160   2.804  16.152  0.8812  1.0109 -0.3811
 2170TIP3   OH227924   2.666   1.046  13.632 -0.4169  0.0886 -0.0261
 2170TIP3    H127925   2.655   1.135  13.598  2.1631  0.8061  0.7818
 2170TIP3    H227926   2.602   1.040  13.702 -1.7223  0.7158 -1.1239
 2171TIP3   OH227927   6.162   5.805   2.244  0.0685 -0.0608  0.5953
 2171TIP3    H127928   6.127   5.812   2.332 -2.2861  0.9837 -0.3535
 2171TIP3    H227929   6.132   5.884   2.199  2.3020  0.0901 -0.8215
 2172TIP3   OH227930   2.812   3.807  15.632  0.1630 -0.3655 -0.3140
 2172TIP3    H127931   2.790   3.749  15.705 -0.5852  0.0113 -0.2254
 2172TIP3    H227932   2.901   3.838  15.652 -0.5783  0.9145  1.2498
 2173TIP3   OH227933   5.850   4.159   0.138  0.6600 -0.1789  0.0897
 2173TIP3    H127934   5.846   4.063   0.129  0.5489 -0.1917  0.2889
 2173TIP3    H227935   5.799   4.178   0.216 -0.7989  0.2058 -0.9116
 2174TIP3   OH227936   3.309   2.890   3.842  0.4528  0.0638 -0.0691
 2174TIP3    H127937   3.270   2.879   3.755  1.6124 -1.0798 -0.4589
 2174TIP3    H227938   3.310   2.803   3.880  0.2273  0.5067  1.0062
 2175TIP3   OH227939   0.528   5.683  10.694  0.2391 -0.1246 -0.5280
 2175TIP3    H127940   0.505   5.610  10.637  0.3414  1.1790 -2.3456
 2175TIP3    H227941   0.445   5.726  10.713  0.3822  0.5046 -1.2607
 2176TIP3   OH227942   2.439   3.153  11.173  0.1164 -0.7457 -0.3624
 2176TIP3    H127943   2.416   3.159  11.266 -0.7252 -2.6019 -0.4029
 2176TIP3    H227944   2.382   3.084  11.139  1.7096 -1.4024 -1.8338
 2177TIP3   OH227945   3.472   3.588  12.957  0.1960 -0.3857  1.1763
 2177TIP3    H127946   3.457   3.681  12.973  1.3094  0.0693 -0.1882
 2177TIP3    H227947   3.547   3.566  13.011 -1.5640 -1.1853  3.4580
 2178TIP3   OH227948   2.606   1.128  17.108 -0.3343  0.2320  0.2913
 2178TIP3    H127949   2.628   1.037  17.129 -0.3300  0.2750  0.4655
 2178TIP3    H227950   2.687   1.176  17.123 -0.0940  0.1329 -0.6084
 2179TIP3   OH227951   3.867   0.659  13.689 -0.9127 -0.5031  0.3194
 2179TIP3    H127952   3.929   0.621  13.627  0.7532 -1.9543  2.6905
 2179TIP3    H227953   3.806   0.709  13.635  1.3515 -0.3522 -2.2923
 2180TIP3   OH227954   4.364   1.314  15.495  0.1294  0.0400 -0.1269
 2180TIP3    H127955   4.414   1.380  15.543 -2.9476  2.5642 -0.0760
 2180TIP3    H227956   4.364   1.346  15.405 -1.0169 -0.1534 -0.2008
 2181TIP3   OH227957   5.505   1.060   4.469 -0.7815  0.5053 -0.1538
 2181TIP3    H127958   5.502   1.141   4.419 -0.0654  1.2014  0.8949
 2181TIP3    H227959   5.516   0.992   4.402 -0.3992  1.3543 -0.9836
 2182TIP3   OH227960   3.607   5.631   5.423  0.4704 -0.2530  0.2473
 2182TIP3    H127961   3.512   5.633   5.410  0.4415  1.7491  0.5089
 2182TIP3    H227962   3.642   5.630   5.334  0.1898  0.8708  0.1049
 2183TIP3   OH227963   3.774   0.922   3.849  0.3869 -0.4662  0.0158
 2183TIP3    H127964   3.723   0.841   3.856  1.8316 -1.4398 -0.1309
 2183TIP3    H227965   3.842   0.912   3.916  1.6568 -0.2176 -1.1826
 2184TIP3   OH227966   5.835   4.636  15.662  0.1831  0.5797 -0.1909
 2184TIP3    H127967   5.882   4.676  15.735 -0.1647  0.5358  0.0608
 2184TIP3    H227968   5.837   4.702  15.592  0.7505  0.5153 -0.2403
 2185TIP3   OH227969   5.826   6.700   2.648  0.6544  0.0808 -0.3348
 2185TIP3    H127970   5.814   6.789   2.614  1.1644  0.0257 -0.6582
 2185TIP3    H227971   5.918   6.696   2.674  0.5812 -0.2844 -0.1215
 2186TIP3   OH227972   0.210   4.229  15.026  0.2248  0.2118 -0.8083
 2186TIP3    H127973   0.186   4.294  14.960 -1.2606  0.1105 -0.3986
 2186TIP3    H227974   0.302   4.210  15.008 -0.1310  0.1768 -2.8669
 2187TIP3   OH227975   3.035   6.453  12.134  0.8612  0.3235 -0.5635
 2187TIP3    H127976   3.038   6.362  12.163  0.2718  0.1319 -1.0912
 2187TIP3    H227977   3.122   6.488  12.155  0.7322 -0.0438  0.6371
 2188TIP3   OH227978   6.434   5.762   4.592 -0.8894 -0.8371 -0.0355
 2188TIP3    H127979   6.375   5.795   4.660  0.0568 -1.2037  0.9909
 2188TIP3    H227980   6.459   5.675   4.622 -0.8006 -1.1917 -1.0931
 2189TIP3   OH227981   5.226   0.004   5.423  0.3212 -0.1309  0.0547
 2189TIP3    H127982   5.265   0.040   5.503  0.4422  0.3187 -0.2024
 2189TIP3    H227983   5.278  -0.075   5.405  1.2281  0.5364 -0.3645
 2190TIP3   OH227984   4.903   3.556   0.962  0.2337  0.0647 -0.2881
 2190TIP3    H127985   4.850   3.565   1.041 -0.6303 -1.0712 -0.7155
 2190TIP3    H227986   4.993   3.545   0.994  0.3327  2.4261  0.4399
 2191TIP3   OH227987   1.032   1.412  12.501  0.4443 -1.6874 -0.3237
 2191TIP3    H127988   0.948   1.419  12.457  1.2586  1.0663 -1.7098
 2191TIP3    H227989   1.015   1.442  12.590  0.0736 -0.2157 -0.8589
 2192TIP3   OH227990   5.034   2.642  12.209  0.2686 -0.0770  0.5018
 2192TIP3    H127991   5.028   2.660  12.303 -1.9685 -1.8768  0.7886
 2192TIP3    H227992   5.063   2.551  12.203  1.1194  0.2382 -0.6111
 2193TIP3   OH227993   0.711   3.706   3.251  0.0522  0.4011  0.7727
 2193TIP3    H127994   0.702   3.648   3.175 -0.8542  0.9904  0.4172
 2193TIP3    H227995   0.789   3.674   3.296  1.5150  0.9534 -1.2222
 2194TIP3   OH227996   2.145   6.123   6.581 -0.2095 -0.5063 -0.3321
 2194TIP3    H127997   2.091   6.176   6.641  0.2796 -1.2004  0.7479
 2194TIP3    H227998   2.118   6.033   6.599  0.7935 -0.8057 -0.2932
 2195TIP3   OH227999   4.760   3.461   0.406  1.1477 -0.2455  0.0282
 2195TIP3    H128000   4.821   3.512   0.459 -0.7431 -0.0616  2.1795
 2195TIP3    H228001   4.741   3.518   0.331  0.3697  1.5707  1.5348
 2196TIP3   OH228002   3.485   2.947   6.547 -0.2242  0.4273 -0.6927
 2196TIP3    H128003   3.396   2.983   6.548 -0.3168  0.1752  0.2128
 2196TIP3    H228004   3.538   3.012   6.593  0.0788  0.5829 -1.2404
 2197TIP3   OH228005   5.890   6.184   2.892 -0.3010  0.1067  0.7667
 2197TIP3    H128006   5.982   6.178   2.867 -0.8905  1.6578 -2.3413
 2197TIP3    H228007   5.854   6.097   2.876  0.7465 -0.8192  3.0400
 2198TIP3   OH228008   6.308   3.372   3.022 -0.0441  0.1328  0.3202
 2198TIP3    H128009   6.270   3.408   2.942 -0.3802  0.3734  0.5854
 2198TIP3    H228010   6.271   3.425   3.093  0.2414 -0.0832  0.6367
 2199TIP3   OH228011   6.103   2.260  11.465 -0.4251 -0.5151 -0.3299
 2199TIP3    H128012   6.163   2.200  11.420 -0.0490 -0.2862 -0.1404
 2199TIP3    H228013   6.160   2.324  11.508 -0.8170 -0.0217 -0.5246
 2200TIP3   OH228014   0.070   4.774  12.814 -0.5844 -0.4420  0.2477
 2200TIP3    H128015   0.142   4.721  12.782  0.1330  0.1101  0.9005
 2200TIP3    H228016   0.110   4.834  12.878 -1.2932  1.0879 -0.6704
 2201TIP3   OH228017   5.965   5.912   0.816  0.2898  0.3856  0.4964
 2201TIP3    H128018   6.008   5.832   0.847 -0.2323 -0.8011 -1.5673
 2201TIP3    H228019   6.015   5.937   0.738 -0.4289  1.2304  0.2938
 2202TIP3   OH228020   2.480   5.139   5.136 -0.7893  0.1517 -0.1224
 2202TIP3    H128021   2.456   5.206   5.073 -0.9294  0.4859  0.2844
 2202TIP3    H228022   2.531   5.075   5.085 -0.4637  0.6748 -0.4588
 2203TIP3   OH228023   3.308   4.763   2.973 -0.8833  0.1702 -0.1365
 2203TIP3    H128024   3.367   4.838   2.964 -0.4089 -0.2476 -0.5496
 2203TIP3    H228025   3.355   4.690   2.933 -0.8922 -0.5943  1.1704
 2204TIP3   OH228026   6.136   0.980   6.366 -0.3253  0.1505 -0.3095
 2204TIP3    H128027   6.203   1.004   6.302 -1.2036  1.2031 -0.8878
 2204TIP3    H228028   6.085   0.911   6.323 -1.7145  1.7452 -1.3547
 2205TIP3   OH228029   4.806   2.285   4.298 -0.1295 -0.1342  0.0284
 2205TIP3    H128030   4.875   2.351   4.286  0.0303 -0.2598  0.2502
 2205TIP3    H228031   4.836   2.233   4.372 -0.1991 -0.5316 -0.2242
 2206TIP3   OH228032   2.686   5.276  15.285  0.3422  0.1220 -0.3274
 2206TIP3    H128033   2.593   5.289  15.267  0.3543  0.9386  0.1556
 2206TIP3    H228034   2.690   5.254  15.378  0.2080 -4.8207 -1.2225
 2207TIP3   OH228035   5.469   6.568   5.701  0.3697 -0.2954 -0.7249
 2207TIP3    H128036   5.540   6.617   5.660  1.5764 -0.3234  1.2168
 2207TIP3    H228037   5.507   6.482   5.721  0.0264 -0.1058  0.9033
 2208TIP3   OH228038   2.873   5.179  16.685 -0.0072 -0.4806  0.7031
 2208TIP3    H128039   2.946   5.234  16.660  0.1698 -0.3768  1.4188
 2208TIP3    H228040   2.798   5.238  16.689 -0.6650 -0.9700 -2.2601
 2209TIP3   OH228041   3.663   3.371  14.701  0.1522 -0.4331  0.4723
 2209TIP3    H128042   3.629   3.345  14.787  0.5299  0.0031  0.7589
 2209TIP3    H228043   3.712   3.452  14.718  0.7542 -0.6791 -0.0431
 2210TIP3   OH228044   6.322   5.574   1.531 -0.5700 -0.6688 -0.2102
 2210TIP3    H128045   6.247   5.597   1.477  0.4895 -0.7094 -1.7865
 2210TIP3    H228046   6.286   5.523   1.603 -2.0414 -0.5888 -0.8600
 2211TIP3   OH228047   2.731   1.238   5.375  0.0801  0.6505 -0.1495
 2211TIP3    H128048   2.688   1.264   5.457 -2.7620 -0.1545 -1.2487
 2211TIP3    H228049   2.699   1.302   5.311 -1.9742 -1.6548 -1.6031
 2212TIP3   OH228050   5.604   2.449  15.539 -0.3165 -0.0267  0.5173
 2212TIP3    H128051   5.518   2.491  15.538 -0.2712  0.0779  0.8551
 2212TIP3    H228052   5.658   2.508  15.592 -0.5863 -1.1653  2.1183
 2213TIP3   OH228053   0.895   6.116  11.289  0.6810  0.3643  0.6146
 2213TIP3    H128054   0.816   6.072  11.321  0.2461 -0.2052 -1.1532
 2213TIP3    H228055   0.863   6.188  11.236  1.2961 -0.4177 -0.8779
 2214TIP3   OH228056   5.107   2.633  11.722 -0.0616 -0.3469  0.2379
 2214TIP3    H128057   5.184   2.577  11.720  0.1916  0.0105  0.0288
 2214TIP3    H228058   5.112   2.679  11.806  0.7453  0.7776 -0.3953
 2215TIP3   OH228059   3.777   6.226  11.134 -0.4447  0.4309 -0.0747
 2215TIP3    H128060   3.790   6.144  11.086  1.8174  1.8164 -2.0257
 2215TIP3    H228061   3.745   6.287  11.068 -3.2923  0.9062  1.6097
 2216TIP3   OH228062   6.209   5.735   0.935  0.0689  0.2930 -0.4293
 2216TIP3    H128063   6.181   5.687   1.014  0.8325 -0.4608 -0.6049
 2216TIP3    H228064   6.207   5.827   0.962  0.8340  0.0240  0.6597
 2217TIP3   OH228065   1.334   2.114   6.012 -0.8489 -0.0515  0.1293
 2217TIP3    H128066   1.308   2.085   6.099 -1.7976  3.3623  1.1120
 2217TIP3    H228067   1.429   2.129   6.019 -1.0046  0.6957  0.7619
 2218TIP3   OH228068   5.800   3.251  14.646 -0.3364  0.9828  0.1797
 2218TIP3    H128069   5.876   3.253  14.705 -0.2214 -2.3626  0.3816
 2218TIP3    H228070   5.724   3.247  14.705 -0.6087  2.7956 -0.0094
 2219TIP3   OH228071   0.144   2.884  17.025 -0.0715 -0.1451  0.5088
 2219TIP3    H128072   0.209   2.950  17.050  0.4508 -0.7996  0.9122
 2219TIP3    H228073   0.178   2.845  16.945 -1.7282  1.9227 -1.3469
 2220TIP3   OH228074   2.330   3.833  15.960 -0.0631  0.3574 -0.2046
 2220TIP3    H128075   2.303   3.907  16.014  0.1370  0.2962 -0.0210
 2220TIP3    H228076   2.349   3.763  16.023  0.3185  0.3324 -0.3453
 2221TIP3   OH228077   3.144   0.236   1.691  0.2688 -0.2175  0.0815
 2221TIP3    H128078   3.195   0.226   1.611  1.6700  2.1285  0.6059
 2221TIP3    H228079   3.095   0.317   1.679  0.2243 -0.0247  1.4247
 2222TIP3   OH228080   0.357   1.560   4.733  0.1400  0.2256  0.3796
 2222TIP3    H128081   0.280   1.520   4.693 -0.3340  0.5288  0.9805
 2222TIP3    H228082   0.423   1.556   4.664  0.5881 -2.8674  0.8064
 2223TIP3   OH228083   5.555   4.802   5.556 -0.1380 -0.5619 -0.7774
 2223TIP3    H128084   5.580   4.711   5.544 -0.2213 -0.8247  0.9114
 2223TIP3    H228085   5.491   4.801   5.626  1.7414  1.0242  1.1167
 2224TIP3   OH228086   2.638   0.236   1.611  0.4911  0.2760  0.2262
 2224TIP3    H128087   2.576   0.163   1.619 -0.6775  1.4262  2.2041
 2224TIP3    H228088   2.613   0.279   1.529 -0.8607  0.2580  0.6000
 2225TIP3   OH228089   5.056   3.763   0.419 -0.3722 -0.4716  0.0638
 2225TIP3    H128090   5.038   3.679   0.461 -2.2649 -0.9003 -1.4580
 2225TIP3    H228091   5.148   3.758   0.394 -0.6742 -2.4897 -0.8090
 2226TIP3   OH228092   6.721   3.611  17.121  0.0496  0.0938  0.5867
 2226TIP3    H128093   6.682   3.530  17.088 -0.3255  0.2885  0.5441
 2226TIP3    H228094   6.712   3.605  17.216 -0.2792  0.2368  0.5655
 2227TIP3   OH228095   0.419   1.307   3.487 -0.5093  0.3652  0.1959
 2227TIP3    H128096   0.328   1.279   3.476 -0.0868 -1.0381  0.1498
 2227TIP3    H228097   0.466   1.228   3.513  0.9312  0.7674 -1.0249
 2228TIP3   OH228098   2.212   5.783  16.265  0.2847  0.1720 -0.2057
 2228TIP3    H128099   2.280   5.721  16.289  0.6929  0.9572  0.7121
 2228TIP3    H228100   2.134   5.754  16.313 -0.2620 -1.1131 -1.7522
 2229TIP3   OH228101   6.244   6.333  14.283 -0.0958 -0.1146 -0.0921
 2229TIP3    H128102   6.310   6.372  14.227 -2.0433  1.8644 -1.1894
 2229TIP3    H228103   6.200   6.408  14.324 -1.1607 -1.3722  1.1851
 2230TIP3   OH228104   1.976   2.721  13.864  0.1286  0.2922  0.3340
 2230TIP3    H128105   1.905   2.661  13.884  0.9346 -0.7220  0.2811
 2230TIP3    H228106   1.986   2.715  13.769  0.2662  0.4515  0.3378
 2231TIP3   OH228107   0.311   1.535  13.619 -0.1747  0.1536 -0.2215
 2231TIP3    H128108   0.313   1.439  13.619  0.4465  0.1609 -0.7896
 2231TIP3    H228109   0.398   1.561  13.649  0.5017  0.5329 -2.3528
 2232TIP3   OH228110   4.996   0.334  12.729  0.2950  0.0496  0.8952
 2232TIP3    H128111   4.937   0.407  12.745 -1.7246 -1.4287  0.6062
 2232TIP3    H228112   4.943   0.270  12.680  2.0923 -1.4271  0.7519
 2233TIP3   OH228113   3.274   2.380  13.325  0.0048  0.4374  0.2477
 2233TIP3    H128114   3.197   2.346  13.370  0.3313  0.3302  0.7343
 2233TIP3    H228115   3.281   2.326  13.246 -0.8721  0.9680 -0.2109
 2234TIP3   OH228116   1.462   2.670  14.151 -0.2702  0.4281 -0.3758
 2234TIP3    H128117   1.533   2.726  14.184 -0.0728  0.9664 -1.6490
 2234TIP3    H228118   1.395   2.674  14.219  0.0163  1.6997 -0.1444
 2235TIP3   OH228119   2.081   3.926   0.530 -0.8382 -0.2222 -0.5772
 2235TIP3    H128120   2.032   4.008   0.517 -2.7434 -0.9210  1.5489
 2235TIP3    H228121   2.125   3.938   0.614  2.2804  0.1136 -2.1246
 2236TIP3   OH228122   5.596   3.852   0.569 -0.6476 -0.2725  0.4212
 2236TIP3    H128123   5.610   3.931   0.622 -1.1556 -0.1180  0.3237
 2236TIP3    H228124   5.646   3.868   0.489  0.7626 -0.8242  1.1437
 2237TIP3   OH228125   3.410   0.161  14.512 -0.3531 -0.2774  0.5749
 2237TIP3    H128126   3.347   0.150  14.440  0.8607  2.0227 -0.9984
 2237TIP3    H228127   3.495   0.164  14.468  0.6031 -0.5766  2.3364
 2238TIP3   OH228128   4.682   6.249   1.181 -0.0925 -0.3948 -0.2684
 2238TIP3    H128129   4.654   6.269   1.092 -0.2044  0.4630 -0.0550
 2238TIP3    H228130   4.664   6.329   1.230  0.2956 -0.7337  0.4484
 2239TIP3   OH228131   5.866   1.869  15.684  0.4737  0.1791 -0.1595
 2239TIP3    H128132   5.873   1.782  15.724  0.4115 -0.0747 -0.6863
 2239TIP3    H228133   5.773   1.883  15.671  0.4906  0.2740 -0.1817
 2240TIP3   OH228134   3.576   5.027   3.454 -0.4598 -0.3584 -0.4251
 2240TIP3    H128135   3.654   5.074   3.484 -1.3757  1.5913 -0.9303
 2240TIP3    H228136   3.580   4.942   3.499  0.8381  0.4996  1.1987
 2241TIP3   OH228137   1.566   1.807   4.723 -0.3332  0.1740  0.1459
 2241TIP3    H128138   1.578   1.800   4.818 -1.2705 -2.4435  0.1368
 2241TIP3    H228139   1.546   1.900   4.709 -2.0459  0.3249  2.7694
 2242TIP3   OH228140   3.648   3.044   0.745 -0.1133  0.3458  0.0180
 2242TIP3    H128141   3.553   3.050   0.736  0.0293  2.3959 -0.7990
 2242TIP3    H228142   3.668   3.103   0.818  0.5468 -0.0367  0.1528
 2243TIP3   OH228143   5.682   4.822   1.156  0.0348  0.6833  0.4624
 2243TIP3    H128144   5.606   4.775   1.190 -0.1689  0.7840  0.1532
 2243TIP3    H228145   5.732   4.755   1.110 -0.4133  0.8187 -0.2437
 2244TIP3   OH228146   0.443   1.511   4.048 -0.0627 -0.4292  0.1081
 2244TIP3    H128147   0.354   1.476   4.050 -0.6078  0.8888  0.0215
 2244TIP3    H228148   0.492   1.455   4.108 -1.0997 -0.7768  0.6518
 2245TIP3   OH228149   4.618   4.320   3.136 -0.3244  0.0307  0.1845
 2245TIP3    H128150   4.658   4.273   3.063  0.6796 -0.1438  0.8206
 2245TIP3    H228151   4.559   4.383   3.095 -1.1258 -1.2751 -0.7024
 2246TIP3   OH228152   5.091   2.666   0.552  0.4453 -0.3070 -0.5448
 2246TIP3    H128153   5.034   2.737   0.521  0.3195 -0.9006 -1.7240
 2246TIP3    H228154   5.072   2.593   0.494 -0.8570 -1.9788  1.8449
 2247TIP3   OH228155   4.656   4.571  13.849  0.0620  0.4996 -0.0679
 2247TIP3    H128156   4.735   4.583  13.901  0.7189  0.8543 -1.1159
 2247TIP3    H228157   4.595   4.526  13.908  1.6352 -1.3808  0.2198
 2248TIP3   OH228158   3.213   6.463  14.689  0.0813 -0.3889 -0.1952
 2248TIP3    H128159   3.224   6.550  14.727 -2.1695  1.1950 -2.8214
 2248TIP3    H228160   3.302   6.435  14.665  1.0110  0.4283  2.0918
 2249TIP3   OH228161   1.596   1.231   6.106 -0.5266 -0.0182  0.4989
 2249TIP3    H128162   1.688   1.215   6.130 -0.2799  0.1940 -0.2730
 2249TIP3    H228163   1.601   1.295   6.035 -1.2902  0.1958  0.6360
 2250TIP3   OH228164   4.960   4.174   4.311  0.4174  0.8714  0.5135
 2250TIP3    H128165   4.874   4.214   4.299 -0.1000 -0.2045  0.4441
 2250TIP3    H228166   4.949   4.117   4.388  0.5067 -0.6457 -0.5384
 2251TIP3   OH228167   5.066   1.366   1.011  0.0487  0.6502 -0.4742
 2251TIP3    H128168   5.082   1.354   0.918 -0.3721  0.5978 -0.5432
 2251TIP3    H228169   4.973   1.344   1.022  0.1729  0.3627  0.0081
 2252TIP3   OH228170   0.173   2.393   6.079 -0.1901  0.2679  0.4742
 2252TIP3    H128171   0.180   2.459   6.148 -0.9247  2.0602 -1.0714
 2252TIP3    H228172   0.233   2.424   6.011 -0.8223 -0.4634 -0.4367
 2253TIP3   OH228173   5.588   3.083   4.683  0.0393  0.5257 -0.2512
 2253TIP3    H128174   5.632   3.067   4.766 -2.1290 -0.0397  0.8505
 2253TIP3    H228175   5.543   3.001   4.663 -0.2193  0.9487 -1.5160
 2254TIP3   OH228176   0.352   2.770   5.312 -0.5886 -0.2701  0.4697
 2254TIP3    H128177   0.289   2.760   5.241 -0.6055 -2.0883  0.6933
 2254TIP3    H228178   0.435   2.790   5.268 -0.9669  0.4772  0.0743
 2255TIP3   OH228179   2.140   1.524   6.534  0.1347 -0.1116 -0.3471
 2255TIP3    H128180   2.175   1.477   6.609 -1.5736 -1.7819 -0.5181
 2255TIP3    H228181   2.216   1.564   6.492  1.3349 -0.6934  1.2141
 2256TIP3   OH228182   1.965   0.083   2.644 -0.7369  0.0323 -0.1046
 2256TIP3    H128183   1.959   0.114   2.735  2.3872 -0.6748  0.4373
 2256TIP3    H228184   1.998   0.158   2.595  0.9780 -0.5557  0.0753
 2257TIP3   OH228185   6.629   1.238   2.735  0.5870 -0.2371  0.1103
 2257TIP3    H128186   6.654   1.192   2.655  5.0041  3.8166 -1.2732
 2257TIP3    H228187   6.686   1.202   2.802  1.9081  1.0513 -0.2854
 2258TIP3   OH228188   4.319   6.769  14.837 -0.2625 -0.0053 -0.0958
 2258TIP3    H128189   4.352   6.839  14.779  1.4433 -0.5260  0.2054
 2258TIP3    H228190   4.307   6.812  14.922 -1.8624  0.5335 -0.5491
 2259TIP3   OH228191   4.399   4.930  12.274 -0.1971  0.3368  0.3005
 2259TIP3    H128192   4.328   4.892  12.222  0.2439  0.6344 -0.5432
 2259TIP3    H228193   4.459   4.857  12.289 -0.4935  0.1720  0.6870
 2260TIP3   OH228194   0.846   1.453   4.628  0.2231 -0.2401  0.2868
 2260TIP3    H128195   0.789   1.384   4.662  1.3934 -0.8466  1.1255
 2260TIP3    H228196   0.889   1.413   4.552  1.0058 -0.5070  0.8558
 2261TIP3   OH228197   5.491   5.878  14.350 -0.0855  0.1103  0.6818
 2261TIP3    H128198   5.511   5.965  14.387 -0.0198  0.5598 -0.3818
 2261TIP3    H228199   5.575   5.834  14.348 -0.2463 -0.2967  1.9855
 2262TIP3   OH228200   5.184   2.524   1.745  0.2598  0.5155  0.0281
 2262TIP3    H128201   5.216   2.598   1.693  1.9503  0.5048  0.9687
 2262TIP3    H228202   5.259   2.465   1.751  0.1373  0.5051  2.4114
 2263TIP3   OH228203   5.121   5.628  12.967 -0.1540  0.1925  0.2905
 2263TIP3    H128204   5.205   5.650  12.926 -0.1287  0.3303  0.4146
 2263TIP3    H228205   5.125   5.534  12.981 -0.6303 -0.0545 -1.0859
 2264TIP3   OH228206   6.397   5.934  14.125  0.1865  0.5236 -0.1791
 2264TIP3    H128207   6.433   5.846  14.124  1.7629  1.1310 -0.2085
 2264TIP3    H228208   6.343   5.939  14.046  1.6816  0.1944 -1.2577
 2265TIP3   OH228209   0.965   2.809   4.183 -0.0962 -0.2173 -0.0947
 2265TIP3    H128210   0.969   2.755   4.104 -0.2751  1.5447 -1.3562
 2265TIP3    H228211   1.005   2.754   4.251  1.8693 -1.0708 -1.8210
 2266TIP3   OH228212   6.677   0.276  11.537  0.2276 -0.1537 -0.2209
 2266TIP3    H128213   6.752   0.278  11.596 -0.1819  1.3627  0.2853
 2266TIP3    H228214   6.710   0.312  11.455  0.2123 -0.0929 -0.2005
 2267TIP3   OH228215   4.626   2.574  12.453 -0.2425 -0.1682  0.3087
 2267TIP3    H128216   4.560   2.637  12.422 -0.1394 -0.5833 -0.8013
 2267TIP3    H228217   4.673   2.549  12.374  2.2156  1.1659  1.2464
 2268TIP3   OH228218   5.016   2.370  15.423 -0.1437 -0.3678  0.0016
 2268TIP3    H128219   4.990   2.345  15.511  3.2964 -0.0665  1.2545
 2268TIP3    H228220   5.099   2.324  15.409  0.8326  1.7755 -1.9402
 2269TIP3   OH228221   4.867   6.543   5.469 -0.1612  0.0505  0.3652
 2269TIP3    H128222   4.924   6.480   5.515 -0.2779 -0.7430 -0.5446
 2269TIP3    H228223   4.916   6.566   5.391 -0.1233  1.1220  0.6940
 2270TIP3   OH228224   6.410   5.554  15.559  0.1006  0.1044 -0.4018
 2270TIP3    H128225   6.424   5.494  15.632 -0.1540 -0.5011 -0.8484
 2270TIP3    H228226   6.348   5.619  15.593  1.0213  0.6225  0.3573
 2271TIP3   OH228227   3.593   6.418  13.792  0.1771 -0.4112  0.3133
 2271TIP3    H128228   3.604   6.466  13.710  0.8729 -0.2458  0.4941
 2271TIP3    H228229   3.516   6.456  13.832  0.2238 -0.0348  0.0490
 2272TIP3   OH228230   6.121   4.420  16.950  0.0936  0.0849  0.7117
 2272TIP3    H128231   6.209   4.455  16.961 -0.2237  0.8439  0.9630
 2272TIP3    H228232   6.087   4.411  17.039 -0.2731  0.3325  0.6048
 2273TIP3   OH228233   6.302   2.668  12.347  0.0170  0.9003 -0.7301
 2273TIP3    H128234   6.361   2.686  12.274 -1.6674 -1.2612 -2.8139
 2273TIP3    H228235   6.356   2.624  12.412  1.1740  1.1520 -1.4948
 2274TIP3   OH228236   1.150   1.246   4.759 -0.1911  0.4044 -0.2457
 2274TIP3    H128237   1.120   1.208   4.676 -0.0982 -0.4115  0.0847
 2274TIP3    H228238   1.199   1.324   4.733  0.9702 -0.5596 -1.0498
 2275TIP3   OH228239   4.895   2.817  15.543 -0.7037  0.3219 -0.0352
 2275TIP3    H128240   4.939   2.899  15.522 -2.7898  1.2023 -1.2161
 2275TIP3    H228241   4.931   2.754  15.481 -0.8529  0.9323 -0.7521
 2276TIP3   OH228242   2.262   2.630  10.859  0.2613 -0.3512 -0.3804
 2276TIP3    H128243   2.243   2.539  10.881  0.1687 -0.3054 -0.2735
 2276TIP3    H228244   2.337   2.653  10.914 -0.1445 -0.1496  0.0976
 2277TIP3   OH228245   5.058   0.609   3.955 -0.0368 -0.1038 -0.3816
 2277TIP3    H128246   4.996   0.678   3.980  0.8522  1.0588 -1.2806
 2277TIP3    H228247   5.021   0.572   3.876 -1.0234 -1.3782  0.6271
 2278TIP3   OH228248   1.041   3.239  14.613  0.1308 -0.2623  0.3236
 2278TIP3    H128249   1.107   3.289  14.563 -0.0952 -0.2758  0.0081
 2278TIP3    H228250   0.957   3.273  14.581 -0.0127  0.0904  1.0688
 2279TIP3   OH228251   0.333   6.391  10.241  0.4303  0.1116  0.3755
 2279TIP3    H128252   0.418   6.434  10.252  0.8889 -0.9492  1.1570
 2279TIP3    H228253   0.353   6.298  10.233 -0.5269  0.0249 -1.6361
 2280TIP3   OH228254   0.775   6.434  12.877  0.0535  0.1045 -0.0412
 2280TIP3    H128255   0.803   6.351  12.914  1.8685  0.9621  0.6596
 2280TIP3    H228256   0.685   6.446  12.908  0.2322 -0.9767  0.9390
 2281TIP3   OH228257   3.043   3.040  15.900  0.0062 -0.0131 -0.1686
 2281TIP3    H128258   3.113   3.106  15.894  0.1571 -0.0721  0.7886
 2281TIP3    H228259   3.013   3.029  15.810  0.5766  0.7240 -0.4608
 2282TIP3   OH228260   4.408   5.137  15.775  0.2760 -0.3731 -0.1982
 2282TIP3    H128261   4.498   5.104  15.770  0.5362  0.1800  0.6456
 2282TIP3    H228262   4.383   5.123  15.866  0.1319  1.0696  0.0029
 2283TIP3   OH228263   3.115   3.444   0.010 -0.1724  0.1219  0.0576
 2283TIP3    H128264   3.131   3.495   0.090 -0.1334 -0.5535  0.4876
 2283TIP3    H228265   3.064   3.369   0.040 -2.0101  0.9450 -0.8939
 2284TIP3   OH228266   2.603   2.132   3.439 -0.0264 -0.6216  0.0897
 2284TIP3    H128267   2.672   2.196   3.452 -0.6807  0.0676  0.2114
 2284TIP3    H228268   2.641   2.049   3.469  1.2282 -0.5355 -1.1160
 2285TIP3   OH228269   2.899   5.217   0.742 -0.4186  0.0406 -0.1464
 2285TIP3    H128270   2.922   5.144   0.800 -1.6018 -0.3254 -0.1092
 2285TIP3    H228271   2.933   5.294   0.787 -1.9592 -0.1445  1.4727
 2286TIP3   OH228272   1.044   4.456  13.158  0.3643 -1.3230 -0.6477
 2286TIP3    H128273   1.029   4.370  13.200 -1.5161 -0.2432  1.1113
 2286TIP3    H228274   0.981   4.458  13.086 -2.3467 -0.1235  1.5476
 2287TIP3   OH228275   2.471   1.999  14.042  0.0412 -0.1821  0.1162
 2287TIP3    H128276   2.454   1.911  14.009  1.0931 -0.1600 -0.5351
 2287TIP3    H228277   2.567   2.005  14.044 -0.0187  1.1159 -0.3213
 2288TIP3   OH228278   6.594   3.592   0.407  0.1523 -0.1841  0.7027
 2288TIP3    H128279   6.602   3.593   0.503  0.1897 -1.3752  0.7295
 2288TIP3    H228280   6.576   3.683   0.383  0.0923  0.1181  1.8440
 2289TIP3   OH228281   0.068   1.288   1.030 -0.1619  0.5414  0.3161
 2289TIP3    H128282   0.038   1.280   1.121 -0.8581  1.8688  0.2271
 2289TIP3    H228283   0.143   1.229   1.025 -0.5664 -0.1359  1.5397
 2290TIP3   OH228284   3.319   0.954   6.001 -0.1583  0.2819  0.2198
 2290TIP3    H128285   3.343   0.876   6.050 -0.7789 -0.9775 -1.3851
 2290TIP3    H228286   3.384   0.958   5.931 -0.7316  0.6095 -0.3014
 2291TIP3   OH228287   3.270   5.762  12.984 -0.4300 -0.1358  0.1166
 2291TIP3    H128288   3.257   5.669  12.999  0.2586 -0.2373  0.1231
 2291TIP3    H228289   3.311   5.767  12.898  0.8559  0.0493  0.7155
 2292TIP3   OH228290   0.686   1.697   1.946  0.1097 -0.7293  0.5651
 2292TIP3    H128291   0.736   1.755   1.890 -1.8329  0.3778 -0.1240
 2292TIP3    H228292   0.730   1.700   2.031  1.1935  0.1611 -0.0149
 2293TIP3   OH228293   1.736   2.781  10.462 -0.1815  0.9627 -0.2407
 2293TIP3    H128294   1.678   2.856  10.450  0.2791  1.0856 -1.9275
 2293TIP3    H228295   1.823   2.812  10.437  0.1148  0.0352 -0.4237
 2294TIP3   OH228296   1.656   6.492  12.027  0.2161 -0.2472 -0.2421
 2294TIP3    H128297   1.701   6.554  12.084 -1.1794  0.6523 -0.0507
 2294TIP3    H228298   1.653   6.410  12.077  0.7330 -0.0323  0.1462
 2295TIP3   OH228299   6.626   4.046   4.793  0.3895 -0.1943 -0.5988
 2295TIP3    H128300   6.571   4.112   4.750  1.2702  2.1446  1.6110
 2295TIP3    H228301   6.694   4.026   4.730  0.7100  1.8662 -0.9722
 2296TIP3   OH228302   3.094   3.327   1.793 -0.1808 -0.4691 -0.5306
 2296TIP3    H128303   3.069   3.258   1.854 -0.1337 -0.3076 -0.3283
 2296TIP3    H228304   3.182   3.353   1.821  0.1968 -0.9918 -1.1985
 2297TIP3   OH228305   1.891   3.394  14.121  0.1861  0.0559  0.1592
 2297TIP3    H128306   1.815   3.443  14.152  0.0822  0.3339 -0.5128
 2297TIP3    H228307   1.875   3.304  14.151 -1.2612 -0.2587 -1.3498
 2298TIP3   OH228308   5.559   5.149  16.945 -0.1138 -0.2487  0.1249
 2298TIP3    H128309   5.571   5.090  17.020  0.1272 -0.2595  0.0757
 2298TIP3    H228310   5.527   5.093  16.875 -0.4364 -0.2214  0.2488
 2299TIP3   OH228311   1.809   6.152  16.349 -0.2234  0.0501  0.0736
 2299TIP3    H128312   1.729   6.133  16.300 -0.3518  0.1604  0.2364
 2299TIP3    H228313   1.858   6.070  16.349 -0.8363 -0.3244  0.8962
 2300TIP3   OH228314   5.884   3.397   1.603  0.3930 -0.2804 -0.0858
 2300TIP3    H128315   5.953   3.354   1.654 -0.3842 -1.1335  0.2734
 2300TIP3    H228316   5.891   3.360   1.515 -0.0559 -0.9128  0.1360
 2301TIP3   OH228317   6.483   3.283   2.687  0.1084  0.1599 -0.5675
 2301TIP3    H128318   6.469   3.262   2.779  1.2172 -2.0815 -0.8283
 2301TIP3    H228319   6.476   3.378   2.682 -0.7341  0.2714  1.6725
 2302TIP3   OH228320   0.452   1.115  15.367  0.1979 -0.2573 -0.1681
 2302TIP3    H128321   0.458   1.188  15.429  1.0069 -0.7765  0.3962
 2302TIP3    H228322   0.533   1.065  15.381  0.3789 -0.4105 -1.6278
 2303TIP3   OH228323   3.259   1.901   2.441 -0.2845 -0.0149  0.1565
 2303TIP3    H128324   3.260   1.809   2.469 -1.6726  0.0462  0.4481
 2303TIP3    H228325   3.252   1.896   2.346  0.7107 -0.1929  0.0731
 2304TIP3   OH228326   0.279   2.440   0.599 -0.3564  0.1736 -0.5171
 2304TIP3    H128327   0.237   2.483   0.674 -0.0505 -0.6610  0.1383
 2304TIP3    H228328   0.311   2.513   0.546 -1.5699  0.8033 -0.4264
 2305TIP3   OH228329   3.589   5.891   5.245  0.7519 -0.1084 -0.0817
 2305TIP3    H128330   3.658   5.864   5.183  0.6896 -0.4962  0.0154
 2305TIP3    H228331   3.507   5.873   5.198  0.7135  0.9762 -0.4614
 2306TIP3   OH228332   2.640   3.052  14.824 -0.1674 -0.0438  0.1843
 2306TIP3    H128333   2.708   2.986  14.811 -0.5158 -1.3472  3.7527
 2306TIP3    H228334   2.683   3.121  14.875 -1.1359 -0.3201  1.4421
 2307TIP3   OH228335   2.095   5.100   4.243 -0.1369  0.0086  0.0812
 2307TIP3    H128336   2.190   5.095   4.250 -0.1800  0.2470  0.9614
 2307TIP3    H228337   2.063   5.044   4.314 -0.6406  1.1699  0.7885
 2308TIP3   OH228338   3.225   0.153  12.054 -0.4063 -0.1798 -0.2313
 2308TIP3    H128339   3.130   0.156  12.069 -0.2934  0.1257  0.4901
 2308TIP3    H228340   3.236   0.180  11.963 -0.9449  0.7544 -0.0359
 2309TIP3   OH228341   1.095   3.932   2.277 -0.0678 -0.3363 -0.7143
 2309TIP3    H128342   1.109   3.930   2.372  2.0382  2.0738 -0.8645
 2309TIP3    H228343   1.006   3.965   2.267 -0.0878 -0.0076  0.4305
 2310TIP3   OH228344   0.149   2.428  16.413 -0.4824 -0.1318 -0.1175
 2310TIP3    H128345   0.146   2.461  16.503 -1.9761 -0.5974  0.0350
 2310TIP3    H228346   0.197   2.495  16.365 -0.3218  0.4987  0.8845
 2311TIP3   OH228347   1.092   1.312  12.127 -0.4847 -0.2478  0.2774
 2311TIP3    H128348   0.999   1.295  12.111  0.1516 -2.2135 -1.8711
 2311TIP3    H228349   1.113   1.384  12.069 -0.4999 -0.2710  0.2430
 2312TIP3   OH228350   2.093   3.231   0.498  0.0330  0.2936 -0.7279
 2312TIP3    H128351   2.130   3.174   0.566 -1.8275  0.4108  0.4323
 2312TIP3    H228352   2.155   3.224   0.425  0.6101 -2.0831 -0.0857
 2313TIP3   OH228353   4.202   5.219   5.016  0.5112 -0.4253 -0.0745
 2313TIP3    H128354   4.264   5.230   5.087 -0.3210  0.4332  0.5461
 2313TIP3    H228355   4.253   5.233   4.936  1.0673  0.5205  0.4375
 2314TIP3   OH228356   6.389   1.966   5.342 -0.4922 -0.2067  0.0484
 2314TIP3    H128357   6.436   1.977   5.259  1.2026 -1.3293  0.8153
 2314TIP3    H228358   6.335   1.888   5.329 -1.4299  0.5092 -0.4921
 2315TIP3   OH228359   3.825   4.572  14.913 -0.0229  0.6348  0.2184
 2315TIP3    H128360   3.833   4.658  14.955  2.1309  0.2733  0.6655
 2315TIP3    H228361   3.888   4.574  14.841  1.0880 -1.0114  1.0763
 2316TIP3   OH228362   2.551   2.304   5.491 -0.3722  0.1617 -0.0471
 2316TIP3    H128363   2.583   2.330   5.577 -1.6062 -0.4070  0.6108
 2316TIP3    H228364   2.557   2.383   5.438  1.3451  0.2729  0.2423
 2317TIP3   OH228365   5.977   2.460  14.230 -0.8634 -0.6285  0.1208
 2317TIP3    H128366   5.907   2.510  14.188  0.8367  2.8398  1.0373
 2317TIP3    H228367   6.049   2.461  14.166 -0.5028 -1.1516  0.5097
 2318TIP3   OH228368   4.050   0.741  13.873  0.3054  0.4998 -0.1621
 2318TIP3    H128369   4.003   0.807  13.924 -0.4035  0.0397 -0.2160
 2318TIP3    H228370   3.984   0.701  13.817  1.0471  0.9035 -1.3764
 2319TIP3   OH228371   2.897   3.836  12.891  0.4876  0.4713 -0.4163
 2319TIP3    H128372   2.908   3.744  12.870 -0.7995  0.5589 -1.6284
 2319TIP3    H228373   2.820   3.839  12.949  1.5611  0.6447  1.0622
 2320TIP3   OH228374   5.138   2.642   0.195  0.2176  0.3577  0.3350
 2320TIP3    H128375   5.216   2.615   0.245  1.4468  0.5931 -1.3605
 2320TIP3    H228376   5.120   2.568   0.138 -1.9515 -0.4240  1.9176
 2321TIP3   OH228377   0.910   2.917  12.285 -0.0123  0.4722  0.4603
 2321TIP3    H128378   0.889   3.010  12.273  0.6057  0.5945  0.2967
 2321TIP3    H228379   0.999   2.908  12.252 -0.1955 -0.2570  0.1279
 2322TIP3   OH228380   1.828   5.570   0.481 -0.0245  0.2995 -0.8498
 2322TIP3    H128381   1.764   5.566   0.410 -0.5075 -3.2970 -0.3647
 2322TIP3    H228382   1.898   5.510   0.455 -0.2724 -1.2291  1.6857
 2323TIP3   OH228383   4.047   3.316   1.480  0.2875 -0.2702 -0.5982
 2323TIP3    H128384   4.125   3.264   1.463 -0.1290 -0.1283 -3.5981
 2323TIP3    H228385   4.052   3.388   1.416 -2.7078 -0.8144 -1.6119
 2324TIP3   OH228386   4.397   1.155  15.217  0.7204  0.5311  0.4493
 2324TIP3    H128387   4.359   1.082  15.267 -1.4504  1.7971  0.7911
 2324TIP3    H228388   4.463   1.114  15.162 -0.5544 -1.7518  0.4824
 2325TIP3   OH228389   2.033   3.705  12.406 -0.0130 -0.4063  0.3703
 2325TIP3    H128390   1.945   3.679  12.432 -0.7060  1.7236  0.4073
 2325TIP3    H228391   2.026   3.719  12.311 -0.1162  0.9999  0.5566
 2326TIP3   OH228392   5.195   3.690  15.498  0.4199  0.3270 -0.2036
 2326TIP3    H128393   5.188   3.626  15.427  1.8240 -2.5980  2.0491
 2326TIP3    H228394   5.108   3.694  15.536  0.7062 -1.9262  0.8431
 2327TIP3   OH228395   2.702   0.352   5.638 -0.5057 -0.3408  0.0588
 2327TIP3    H128396   2.751   0.433   5.623 -1.2542  0.5020  1.8829
 2327TIP3    H228397   2.759   0.299   5.693  0.5755 -1.7152 -2.2778
 2328TIP3   OH228398   0.496   4.714   1.881  0.2587  0.2543  0.3127
 2328TIP3    H128399   0.587   4.738   1.863  0.2158 -0.6891 -1.3245
 2328TIP3    H228400   0.452   4.722   1.797 -1.2598  0.9353  1.1322
 2329TIP3   OH228401   4.514   3.588   5.542 -0.0749 -0.7101  1.0032
 2329TIP3    H128402   4.432   3.613   5.584 -1.9035 -3.2318 -0.7786
 2329TIP3    H228403   4.511   3.492   5.537  1.4467 -0.7200 -1.9815
 2330TIP3   OH228404   5.652   2.373   3.747  0.4537 -0.2436 -0.4252
 2330TIP3    H128405   5.737   2.416   3.737  0.5968 -0.6148 -0.8603
 2330TIP3    H228406   5.645   2.354   3.840  0.2067  1.0727 -0.1584
 2331TIP3   OH228407   0.792   3.095   3.169 -0.2484  0.3440 -0.9844
 2331TIP3    H128408   0.863   3.044   3.129  1.1805  2.5200 -1.4228
 2331TIP3    H228409   0.735   3.030   3.209  2.0769 -1.5225 -0.4940
 2332TIP3   OH228410   6.627   6.029   4.356  0.1603 -0.0483 -0.3975
 2332TIP3    H128411   6.713   6.006   4.321 -0.6391 -2.3944 -1.0495
 2332TIP3    H228412   6.638   6.027   4.451  1.2318  1.5597 -0.4559
 2333TIP3   OH228413   4.578   5.159   0.250  0.2507 -0.5141  0.1539
 2333TIP3    H128414   4.558   5.161   0.157 -0.0031 -1.6783  0.1730
 2333TIP3    H228415   4.672   5.179   0.255  0.1049  0.3282 -0.2752
 2334TIP3   OH228416   3.556   4.206  12.947  0.1483 -0.1747  0.0097
 2334TIP3    H128417   3.640   4.188  12.989 -0.1179  1.9240  1.6113
 2334TIP3    H228418   3.498   4.136  12.976  0.6313 -0.1000  1.1741
 2335TIP3   OH228419   3.469   2.376   2.293  0.6978 -0.5215 -0.1746
 2335TIP3    H128420   3.398   2.361   2.230  1.8372  0.1895 -1.7004
 2335TIP3    H228421   3.474   2.295   2.342 -0.1223 -1.1870 -1.1235
 2336TIP3   OH228422   6.524   3.005   2.667 -0.2091  0.3124 -0.0700
 2336TIP3    H128423   6.523   3.040   2.756 -2.2391  0.1629  0.0040
 2336TIP3    H228424   6.436   3.023   2.633 -0.0521 -1.2230 -1.4010
 2337TIP3   OH228425   3.291   3.701  14.666 -0.3919 -0.3906  0.1375
 2337TIP3    H128426   3.228   3.637  14.697  0.1505  0.2870  2.9605
 2337TIP3    H228427   3.241   3.782  14.659 -0.2422 -0.2542  0.5934
 2338TIP3   OH228428   3.099   6.442   2.692  0.3055  0.1591  0.1508
 2338TIP3    H128429   3.029   6.413   2.752 -1.2440  1.3574 -0.9826
 2338TIP3    H228430   3.147   6.362   2.671 -1.2029 -0.8628  0.3972
 2339TIP3   OH228431   2.379   3.707  13.255 -0.0647 -0.1467  0.5404
 2339TIP3    H128432   2.471   3.700  13.228 -1.0358  0.3130 -3.6113
 2339TIP3    H228433   2.376   3.785  13.310  2.0678 -0.5488  1.3430
 2340TIP3   OH228434   3.493   5.220   2.503  0.6750 -0.0431  0.1944
 2340TIP3    H128435   3.420   5.177   2.547 -1.4554  2.1797 -0.9354
 2340TIP3    H228436   3.477   5.207   2.410  2.0415  0.0696 -0.0863
 2341TIP3   OH228437   4.498   4.813   5.890  0.2225 -0.7972  0.6422
 2341TIP3    H128438   4.580   4.827   5.841  1.0544 -1.6685  1.7229
 2341TIP3    H228439   4.471   4.901   5.917  1.9781 -0.6287  2.0541
 2342TIP3   OH228440   2.268   2.165   1.421 -0.0199  0.0764  0.6534
 2342TIP3    H128441   2.244   2.183   1.512 -0.3306 -0.1670  0.6200
 2342TIP3    H228442   2.204   2.101   1.391 -0.6177  1.0135 -0.0997
 2343TIP3   OH228443   4.660   1.976  14.434 -0.4006  0.0257 -0.1547
 2343TIP3    H128444   4.741   1.926  14.426 -0.4703 -0.2867  0.9823
 2343TIP3    H228445   4.606   1.945  14.361 -0.2749 -1.2321  0.2604
 2344TIP3   OH228446   2.228   3.748  10.671  0.2428  0.0326 -0.1779
 2344TIP3    H128447   2.284   3.796  10.732 -0.1349  1.5188 -0.9613
 2344TIP3    H228448   2.287   3.686  10.628  1.0905  0.8788 -0.2735
 2345TIP3   OH228449   0.807   0.409   5.744  0.6191 -0.4472 -0.5039
 2345TIP3    H128450   0.784   0.450   5.828 -0.3407  0.0552 -0.9913
 2345TIP3    H228451   0.761   0.325   5.745  0.6113 -0.4433 -0.5204
 2346TIP3   OH228452   0.310   1.435   4.339  0.0284 -0.4700  0.3237
 2346TIP3    H128453   0.237   1.405   4.285 -0.6599  0.2509  0.8373
 2346TIP3    H228454   0.303   1.530   4.339 -0.5364 -0.4564  2.3899
 2347TIP3   OH228455   5.228   5.138   3.585 -0.3939 -0.3119  0.2974
 2347TIP3    H128456   5.282   5.193   3.528 -0.8647 -0.2115 -0.0485
 2347TIP3    H228457   5.259   5.049   3.568  0.5345 -0.1478  1.0321
 2348TIP3   OH228458   1.586   4.608   4.382  0.1847  0.3484 -0.0390
 2348TIP3    H128459   1.514   4.563   4.338  0.4139  0.7749 -0.8810
 2348TIP3    H228460   1.574   4.588   4.475  0.0752 -1.1321 -0.3529
 2349TIP3   OH228461   3.064   5.282  15.694 -0.2799  0.0688 -0.4162
 2349TIP3    H128462   3.066   5.300  15.600  0.8529  0.9410 -0.2457
 2349TIP3    H228463   3.155   5.263  15.717 -0.9252 -2.8273  0.0412
 2350TIP3   OH228464   1.354   3.761  14.264  0.2239 -0.2950 -0.0490
 2350TIP3    H128465   1.447   3.781  14.256  0.0411  0.8954  0.5316
 2350TIP3    H228466   1.344   3.724  14.352  0.5127 -2.9051 -1.0115
 2351TIP3   OH228467   3.661   1.693  15.066  0.5234  0.3894 -0.9172
 2351TIP3    H128468   3.688   1.665  14.979  3.2661  3.2893 -1.1681
 2351TIP3    H228469   3.668   1.614  15.120 -0.3238 -1.2430 -3.0418
 2352TIP3   OH228470   4.004   0.316   3.284 -0.5233  0.6594  1.1797
 2352TIP3    H128471   3.929   0.308   3.344 -1.0476  2.3256  0.7969
 2352TIP3    H228472   3.983   0.257   3.211 -0.0148 -1.1739  2.4405
 2353TIP3   OH228473   3.607   2.862  11.835  0.4838  0.0300  0.1641
 2353TIP3    H128474   3.545   2.892  11.768 -0.6771 -2.6125 -0.0639
 2353TIP3    H228475   3.691   2.859  11.790  0.0480 -0.0056 -0.6755
 2354TIP3   OH228476   4.886   1.603  15.475  0.0655  0.0118  0.3545
 2354TIP3    H128477   4.904   1.517  15.512  1.9248  0.2810  0.1312
 2354TIP3    H228478   4.964   1.654  15.493 -0.4617  1.2526 -0.7184
 2355TIP3   OH228479   4.932   5.482   3.770 -0.2570 -0.1868 -0.8963
 2355TIP3    H128480   5.006   5.478   3.710  0.3386  0.3193 -0.2077
 2355TIP3    H228481   4.929   5.394   3.810  0.1867 -0.1036 -0.6754
 2356TIP3   OH228482   6.363   1.220   5.153  0.5775  0.1366 -0.4177
 2356TIP3    H128483   6.413   1.239   5.074  1.1971  0.4596  0.0419
 2356TIP3    H228484   6.346   1.306   5.192  1.1871 -0.0810  0.3445
 2357TIP3   OH228485   1.278   5.552  11.260  0.1695  0.7657 -0.0859
 2357TIP3    H128486   1.289   5.577  11.168 -1.9837 -0.5006 -0.7354
 2357TIP3    H228487   1.292   5.458  11.262 -0.0518  0.7399  0.8464
 2358TIP3   OH228488   6.658   5.325  13.460  0.0557 -0.1136 -0.2869
 2358TIP3    H128489   6.672   5.331  13.365  0.0939  1.6041 -0.2138
 2358TIP3    H228490   6.670   5.415  13.491  0.9433 -0.7907  1.4867
 2359TIP3   OH228491   5.768   4.652  12.605  0.1962  0.4752 -0.2995
 2359TIP3    H128492   5.751   4.582  12.669  0.4518 -1.1941 -1.9554
 2359TIP3    H228493   5.693   4.648  12.546  1.1076  0.3375 -1.4799
 2360TIP3   OH228494   3.840   6.059  14.776 -0.7492  0.0435 -0.3126
 2360TIP3    H128495   3.883   6.110  14.707 -0.2193  1.0192  0.6845
 2360TIP3    H228496   3.856   5.968  14.753 -0.2159  0.3581 -1.2420
 2361TIP3   OH228497   5.969   5.419   3.398 -0.0711  0.1732 -0.0103
 2361TIP3    H128498   5.896   5.369   3.435  0.5942  0.8316  2.4087
 2361TIP3    H228499   6.047   5.380   3.438  0.8651  0.0260 -1.8933
 2362TIP3   OH228500   5.242   5.301   5.523  0.2659  0.1785  0.0929
 2362TIP3    H128501   5.218   5.336   5.609 -0.5570  1.5495 -0.6689
 2362TIP3    H228502   5.333   5.329   5.510  0.5898 -0.5313  0.7431
 2363TIP3   OH228503   4.914   0.520  17.154  0.1033 -0.5204 -0.2323
 2363TIP3    H128504   4.948   0.477  17.076  1.1742  0.7759 -0.5210
 2363TIP3    H228505   4.936   0.612  17.142 -3.5885  0.4767 -0.4456
 2364TIP3   OH228506   2.043   2.085  11.347 -0.4836 -0.0533  0.7134
 2364TIP3    H128507   2.092   2.103  11.428 -2.4008 -0.0512  1.9453
 2364TIP3    H228508   2.093   2.016  11.304  0.9994  0.4795  1.5143
 2365TIP3   OH228509   5.588   0.648  15.651 -0.0851  0.0831  0.9775
 2365TIP3    H128510   5.551   0.732  15.627 -0.0563  0.2101  1.3735
 2365TIP3    H228511   5.524   0.609  15.710  0.0566 -0.0269  1.0602
 2366TIP3   OH228512   1.441   3.335  15.169  0.0534  0.4059  0.3735
 2366TIP3    H128513   1.441   3.431  15.171 -0.4495  0.6990 -3.8737
 2366TIP3    H228514   1.427   3.314  15.077 -0.5724 -3.8103  1.2585
 2367TIP3   OH228515   6.128   1.774  16.293 -0.6227 -0.4344  0.2854
 2367TIP3    H128516   6.134   1.694  16.240  1.1506 -1.2307  1.5911
 2367TIP3    H228517   6.191   1.834  16.253  0.8977 -1.1226  1.5488
 2368TIP3   OH228518   0.344   0.540   2.833  0.3365 -0.2085  0.1486
 2368TIP3    H128519   0.382   0.623   2.805 -1.5838 -0.0337 -2.2191
 2368TIP3    H228520   0.399   0.473   2.792  0.3577 -0.0496 -0.0826
 2369TIP3   OH228521   6.445   6.017  12.032 -0.1934  0.0818  0.0522
 2369TIP3    H128522   6.462   5.967  11.952 -1.1472 -0.4431  0.1678
 2369TIP3    H228523   6.402   6.097  12.002  1.8219  1.1332 -0.1853
 2370TIP3   OH228524   5.476   4.110   2.175 -0.0478  0.5837  0.0365
 2370TIP3    H128525   5.391   4.070   2.190  0.4490 -0.3035  0.5763
 2370TIP3    H228526   5.538   4.037   2.179  0.8229  1.3193  0.4580
 2371TIP3   OH228527   1.026   3.293   3.096  0.3203  0.0750  0.4232
 2371TIP3    H128528   0.951   3.286   3.154  0.2406 -2.2270  0.1150
 2371TIP3    H228529   1.028   3.210   3.049  3.4563 -0.2485  0.9187
 2372TIP3   OH228530   1.963   1.329   6.026 -0.1301  0.0285  0.6229
 2372TIP3    H128531   1.967   1.248   6.077 -2.0638 -0.0371  0.7432
 2372TIP3    H228532   1.923   1.393   6.086  2.4903  1.4944  0.9778
 2373TIP3   OH228533   3.354   5.039   2.705 -0.2399  0.5337 -0.5509
 2373TIP3    H128534   3.398   5.052   2.790  0.2838  0.2867 -0.7800
 2373TIP3    H228535   3.271   5.086   2.714 -0.4783 -0.0279  0.3275
 2374TIP3   OH228536   1.494   1.503  14.566 -0.0574 -0.6974 -0.0212
 2374TIP3    H128537   1.446   1.564  14.510 -1.9134 -0.6778  1.4770
 2374TIP3    H228538   1.490   1.542  14.653 -1.4705 -2.9839  1.0258
 2375TIP3   OH228539   0.144   1.475   0.540  0.0757  0.0733  0.1804
 2375TIP3    H128540   0.236   1.448   0.534  0.2608  0.4750  1.1398
 2375TIP3    H228541   0.118   1.452   0.629  0.3451  3.3432  1.2232
 2376TIP3   OH228542   5.951   6.209  16.405  0.1993 -0.2102 -0.1997
 2376TIP3    H128543   5.942   6.299  16.437  2.4381  0.5258 -1.4427
 2376TIP3    H228544   5.976   6.159  16.483 -1.4888  0.1028  0.5925
 2377TIP3   OH228545   6.354   2.307  12.231  0.1190 -0.3705  0.3651
 2377TIP3    H128546   6.382   2.223  12.195 -0.0828  0.3128 -1.5042
 2377TIP3    H228547   6.344   2.364  12.154 -0.2442  1.2155  1.5365
 2378TIP3   OH228548   4.048   4.434  14.216  0.1845 -0.4568 -0.6645
 2378TIP3    H128549   4.097   4.416  14.297 -1.2417 -1.6828 -0.0269
 2378TIP3    H228550   4.074   4.523  14.192 -2.0870  1.5764  3.2603
 2379TIP3   OH228551   2.216   4.755  15.223  0.2619  0.5717 -0.5375
 2379TIP3    H128552   2.213   4.837  15.273  3.3800 -0.7223  2.1564
 2379TIP3    H228553   2.262   4.778  15.143  2.0918  1.3340  0.6631
 2380TIP3   OH228554   1.001   3.398   0.753  0.2609  0.4337 -0.0560
 2380TIP3    H128555   0.971   3.318   0.796  1.5737  0.4678  1.0067
 2380TIP3    H228556   1.041   3.367   0.671 -0.2951  0.1329 -0.2173
 2381TIP3   OH228557   4.767   4.773   1.562  0.1289  0.5887  0.1364
 2381TIP3    H128558   4.726   4.717   1.496  1.1580 -0.3205  0.2500
 2381TIP3    H228559   4.696   4.791   1.624 -0.4140  0.0484 -0.3112
 2382TIP3   OH228560   2.220   5.107  11.284 -0.3604 -0.3716 -0.6714
 2382TIP3    H128561   2.275   5.096  11.206 -0.2491  1.1128 -0.8219
 2382TIP3    H228562   2.142   5.055  11.266  0.5086 -1.6555 -0.9032
 2383TIP3   OH228563   0.807   0.806  14.958  0.1384 -0.0351 -0.7549
 2383TIP3    H128564   0.833   0.756  14.881 -1.1710 -1.4715 -0.3022
 2383TIP3    H228565   0.770   0.742  15.018  1.7640  0.9115  1.4291
 2384TIP3   OH228566   0.404   2.575   1.904 -0.2306 -0.0236  0.2211
 2384TIP3    H128567   0.339   2.505   1.915  1.1488 -1.1233  2.0273
 2384TIP3    H228568   0.385   2.636   1.976 -0.2980  0.5357 -0.2640
 2385TIP3   OH228569   4.663   4.056   2.717 -0.2983  0.5361 -0.1712
 2385TIP3    H128570   4.587   4.059   2.658  0.0084  1.4461 -0.5361
 2385TIP3    H228571   4.730   4.106   2.671 -0.4487  2.3698  1.5065
 2386TIP3   OH228572   3.263   5.162  12.085  0.5328  0.1278  0.2611
 2386TIP3    H128573   3.264   5.250  12.048  0.0257 -0.2422 -0.6854
 2386TIP3    H228574   3.170   5.142  12.097  0.6715 -0.0031  1.1724
 2387TIP3   OH228575   3.382   6.416   5.021 -0.0089  0.1038 -0.8812
 2387TIP3    H128576   3.371   6.454   5.108 -1.2647  1.0782 -1.4314
 2387TIP3    H228577   3.430   6.335   5.036  0.2087  0.4914  0.6599
 2388TIP3   OH228578   2.722   5.115  15.787  0.3601 -0.2312 -0.2192
 2388TIP3    H128579   2.755   5.025  15.796  0.1712 -0.5607 -2.3568
 2388TIP3    H228580   2.627   5.106  15.792  0.3257 -0.2141 -0.7468
 2389TIP3   OH228581   4.537   2.016  16.843 -0.0638  0.3266  0.0181
 2389TIP3    H128582   4.612   2.009  16.903  0.4857 -0.2266 -0.7089
 2389TIP3    H228583   4.482   1.941  16.865 -0.9473  1.2823  1.2359
 2390TIP3   OH228584   4.380   6.157   3.610 -0.0170 -0.5956  0.0649
 2390TIP3    H128585   4.345   6.068   3.617  0.5741 -1.0703 -2.1542
 2390TIP3    H228586   4.461   6.154   3.661 -0.6346 -0.9462  1.0501
 2391TIP3   OH228587   2.802   4.897   5.998 -0.5343 -0.5333 -0.3603
 2391TIP3    H128588   2.777   4.844   5.923 -0.4703  0.4213 -1.0839
 2391TIP3    H228589   2.886   4.936   5.973 -0.4818 -0.2459  0.2283
 2392TIP3   OH228590   1.567   3.705   0.158  0.8524 -0.4252 -0.3749
 2392TIP3    H128591   1.637   3.639   0.148  0.5384 -0.8929  0.4365
 2392TIP3    H228592   1.523   3.705   0.073  1.7462 -0.2289 -0.8489
 2393TIP3   OH228593   2.615   6.717   3.550 -0.1544  0.3207  0.1022
 2393TIP3    H128594   2.609   6.794   3.607 -1.2485  1.5676 -1.5939
 2393TIP3    H228595   2.545   6.730   3.485 -0.6218 -2.2955 -0.0383
 2394TIP3   OH228596   3.681   5.094  14.697 -0.0694 -0.1786  0.7457
 2394TIP3    H128597   3.763   5.138  14.674 -0.2444  0.3252  1.0774
 2394TIP3    H228598   3.688   5.007  14.656  0.4937 -0.0267  0.5141
 2395TIP3   OH228599   3.850   1.798   5.983 -0.1460  0.2562  0.5733
 2395TIP3    H128600   3.864   1.713   6.025 -1.9442 -0.5004 -0.2648
 2395TIP3    H228601   3.816   1.778   5.896  0.2134  1.8387  0.0230
 2396TIP3   OH228602   2.703   6.746  11.647 -0.3074 -0.8111 -0.3437
 2396TIP3    H128603   2.764   6.720  11.717  0.7381  0.7022 -0.6376
 2396TIP3    H228604   2.643   6.808  11.689  0.0361 -0.2541 -0.6545
 2397TIP3   OH228605   0.596   2.308  11.556  0.4413 -0.5312 -0.3715
 2397TIP3    H128606   0.669   2.310  11.619 -0.2538 -3.4884  0.6835
 2397TIP3    H228607   0.519   2.332  11.608  0.3405  0.7098 -1.0461
 2398TIP3   OH228608   5.333   4.770   2.012  0.3690 -0.2119  0.2207
 2398TIP3    H128609   5.253   4.815   1.982  0.4423 -0.3187 -0.1430
 2398TIP3    H228610   5.301   4.704   2.073  0.3731  1.2637  1.9084
 2399TIP3   OH228611   6.479   2.558   1.257  0.2571  0.2872 -0.6420
 2399TIP3    H128612   6.547   2.599   1.205 -0.6096 -0.5407 -2.5088
 2399TIP3    H228613   6.407   2.620   1.257  1.0768  1.3655  1.7135
 2400TIP3   OH228614   5.752   5.119   3.768 -0.5194  0.2786  0.4263
 2400TIP3    H128615   5.800   5.135   3.686 -0.0783 -1.7068  0.2501
 2400TIP3    H228616   5.821   5.112   3.834 -0.6111 -1.3313  0.3861
 2401TIP3   OH228617   1.941   4.992  13.217 -0.2740 -0.4168  0.1869
 2401TIP3    H128618   1.930   5.081  13.186 -0.4242 -0.4660  0.1018
 2401TIP3    H228619   1.936   4.937  13.139 -0.1635 -0.4995  0.2360
 2402TIP3   OH228620   2.046   3.654  16.291  0.0504  0.4877 -0.5707
 2402TIP3    H128621   2.125   3.681  16.338  0.3978 -0.3145 -0.6802
 2402TIP3    H228622   1.974   3.699  16.338  0.4876  0.5834  0.0270
 2403TIP3   OH228623   2.162   5.597   0.496  0.7126  0.2823 -0.8715
 2403TIP3    H128624   2.205   5.519   0.530  1.1289  0.7327 -0.3420
 2403TIP3    H228625   2.096   5.619   0.562  0.2540  0.0958 -1.2605
 2404TIP3   OH228626   1.999   1.838   3.155 -0.6939 -0.1403 -0.2088
 2404TIP3    H128627   2.039   1.840   3.243 -1.0525  1.3180 -0.0457
 2404TIP3    H228628   2.063   1.791   3.102  0.3081  0.3473  0.5003
 2405TIP3   OH228629   3.388   4.241   1.591 -0.4128  0.1492 -0.3784
 2405TIP3    H128630   3.443   4.309   1.553 -0.5313  0.4902  0.0477
 2405TIP3    H228631   3.299   4.275   1.584 -0.8185 -1.1665 -2.7178
 2406TIP3   OH228632   1.804   2.158   4.853  0.2281 -0.2558  0.3874
 2406TIP3    H128633   1.821   2.095   4.783  0.4631  0.7476 -0.4882
 2406TIP3    H228634   1.884   2.209   4.860  0.0913 -0.1301  1.1766
 2407TIP3   OH228635   0.782   3.795   4.952 -0.7879 -0.1038  0.5014
 2407TIP3    H128636   0.740   3.729   5.008  0.3461 -1.1188  0.1982
 2407TIP3    H228637   0.817   3.859   5.013 -1.4180 -0.0622  0.8316
 2408TIP3   OH228638   2.857   1.686  11.718 -0.0549  0.2431 -0.3866
 2408TIP3    H128639   2.767   1.720  11.716 -0.0269  0.3250 -2.4234
 2408TIP3    H228640   2.911   1.760  11.688  0.4034 -0.4816 -1.4241
 2409TIP3   OH228641   3.234   4.638  17.074 -0.1392 -0.2506 -0.0233
 2409TIP3    H128642   3.271   4.716  17.032 -1.5955 -0.6165 -2.1513
 2409TIP3    H228643   3.163   4.611  17.015  0.6095 -3.4687  0.3809
 2410TIP3   OH228644   5.915   5.206   4.063 -0.3497 -0.1782  0.2667
 2410TIP3    H128645   5.827   5.170   4.068 -1.5430  2.5856  0.9219
 2410TIP3    H228646   5.904   5.292   4.022  1.8682  0.7551  1.4365
 2411TIP3   OH228647   1.508   5.151   3.975  1.0516 -0.3989  0.4955
 2411TIP3    H128648   1.463   5.235   3.967  2.3897  0.2210 -1.6664
 2411TIP3    H228649   1.601   5.173   3.962  1.2561 -2.3677 -2.4038
 2412TIP3   OH228650   2.212   2.027   6.156  0.5556  0.0452  0.2314
 2412TIP3    H128651   2.245   2.032   6.066 -0.2024 -0.2869 -0.0665
 2412TIP3    H228652   2.262   1.955   6.195  1.8465  1.0332  0.4981
 2413TIP3   OH228653   6.044   3.993   6.603 -0.6671 -0.1777  0.5028
 2413TIP3    H128654   6.103   3.969   6.675 -1.6855 -0.6545  1.1898
 2413TIP3    H228655   6.103   4.022   6.533  0.5533 -2.5938  0.4003
 2414TIP3   OH228656   3.223   5.167   4.380 -0.0225 -0.1896  0.0501
 2414TIP3    H128657   3.168   5.140   4.307 -0.0716  1.6302 -0.6364
 2414TIP3    H228658   3.179   5.133   4.458 -1.9319  0.8837 -0.5179
 2415TIP3   OH228659   0.183   6.276  13.380 -0.1958 -0.1721  0.0252
 2415TIP3    H128660   0.216   6.191  13.350  0.4329  0.1943 -0.3478
 2415TIP3    H228661   0.260   6.321  13.413 -0.8946 -0.6478  2.4835
 2416TIP3   OH228662   6.610   5.910   3.982  0.3972  0.1987 -0.6372
 2416TIP3    H128663   6.589   5.986   4.036  0.9318  0.8755 -1.3625
 2416TIP3    H228664   6.526   5.866   3.968  0.2455 -0.0074  0.7422
 2417TIP3   OH228665   5.172   3.009   4.607 -0.5337  0.0765  0.0666
 2417TIP3    H128666   5.228   3.078   4.641  0.1822 -0.6158  0.3334
 2417TIP3    H228667   5.114   3.053   4.545  0.5627  0.7582 -0.5132
 2418TIP3   OH228668   3.555   5.338   3.295 -0.6171  0.6870 -0.4585
 2418TIP3    H128669   3.512   5.423   3.307  2.1175  2.1794 -0.5961
 2418TIP3    H228670   3.575   5.309   3.384 -0.0048  1.0470 -0.4747
 2419TIP3   OH228671   0.686   1.182   0.361 -0.0832  0.4602 -0.1383
 2419TIP3    H128672   0.644   1.097   0.373 -0.2829  0.3258 -1.5877
 2419TIP3    H228673   0.780   1.162   0.355 -0.0947  0.3864 -0.0604
 2420TIP3   OH228674   0.535   2.664  13.988 -0.4223 -0.1730 -0.0631
 2420TIP3    H128675   0.548   2.735  13.926  0.7542 -0.1794  0.1596
 2420TIP3    H228676   0.560   2.702  14.073 -3.8415  0.4732  0.8211
 2421TIP3   OH228677   6.482   6.509   2.260 -0.5105  0.2712 -0.0260
 2421TIP3    H128678   6.557   6.451   2.278 -0.3470  0.2093 -0.8528
 2421TIP3    H228679   6.521   6.587   2.220 -0.8102  0.6060  0.3255
 2422TIP3   OH228680   6.765   5.057  16.364  0.4923  0.5072 -0.3733
 2422TIP3    H128681   6.718   5.125  16.411 -1.3636 -1.5004  0.8629
 2422TIP3    H228682   6.835   5.031  16.423  0.1695  0.2088 -0.1212
 2423TIP3   OH228683   0.327   4.846  16.924  0.3820  0.5142 -0.4250
 2423TIP3    H128684   0.363   4.771  16.877 -0.3038 -0.0682 -0.0371
 2423TIP3    H228685   0.385   4.856  17.000  1.5130  1.4811 -1.3805
 2424TIP3   OH228686   2.394   6.624  12.837  0.5538  0.1194  0.0135
 2424TIP3    H128687   2.344   6.548  12.810  0.3832  0.7186 -1.4266
 2424TIP3    H228688   2.344   6.661  12.910  1.3087 -1.8330  1.6362
 2425TIP3   OH228689   4.329   2.573  10.783  0.2908  0.1322  0.8892
 2425TIP3    H128690   4.287   2.632  10.846 -2.8326 -2.4434  1.4423
 2425TIP3    H228691   4.292   2.487  10.801  1.9642 -1.4051 -2.1652
 2426TIP3   OH228692   2.121   2.610   2.705 -0.1042 -0.1180 -0.2638
 2426TIP3    H128693   2.215   2.605   2.722 -0.4318  0.1914  2.0134
 2426TIP3    H228694   2.107   2.697   2.668  0.4611 -0.0172 -0.2500
 2427TIP3   OH228695   1.822   5.674  11.165 -0.2501  0.0293  0.3610
 2427TIP3    H128696   1.875   5.619  11.108 -0.4597  1.2873 -1.1043
 2427TIP3    H228697   1.869   5.757  11.169 -0.3793  0.0670  1.8495
 2428TIP3   OH228698   4.600   0.261   0.439 -0.3550  0.0668 -1.0205
 2428TIP3    H128699   4.533   0.307   0.491  0.5089  0.4620 -0.2124
 2428TIP3    H228700   4.608   0.314   0.360 -0.5721  0.3631 -0.8518
 2429TIP3   OH228701   5.992   5.700   3.375  0.0924 -0.2181  0.1335
 2429TIP3    H128702   6.007   5.605   3.383  0.2361 -0.0922  1.8260
 2429TIP3    H228703   5.900   5.712   3.398  0.3857  0.1613  1.1551
 2430TIP3   OH228704   2.293   0.346  12.973 -0.1273  0.1337 -0.2851
 2430TIP3    H128705   2.327   0.258  12.960  1.1907  0.2020  2.0918
 2430TIP3    H228706   2.324   0.396  12.898 -1.0856 -1.4105 -1.7983
 2431TIP3   OH228707   0.529   4.858  15.339 -0.0784 -0.2821  0.3514
 2431TIP3    H128708   0.470   4.929  15.363 -1.2025 -0.2318 -2.2301
 2431TIP3    H228709   0.570   4.886  15.257 -0.9371 -2.7380 -1.0306
 2432TIP3   OH228710   2.250   2.948   1.041 -0.3148  0.5881 -0.4520
 2432TIP3    H128711   2.158   2.940   1.018 -0.3860 -0.1784  0.0623
 2432TIP3    H228712   2.256   3.030   1.091 -0.5400  1.1132 -1.2586
 2433TIP3   OH228713   5.458   0.089   4.450 -0.2877 -0.1280  0.6697
 2433TIP3    H128714   5.529   0.061   4.393 -1.5181 -0.7497 -0.6224
 2433TIP3    H228715   5.450   0.183   4.435  1.2956  0.2655  2.0615
 2434TIP3   OH228716   6.608   0.719  14.311 -0.2931 -0.2168  0.3531
 2434TIP3    H128717   6.675   0.690  14.250  1.4081  2.8744  0.5746
 2434TIP3    H228718   6.542   0.761  14.256 -1.1320 -1.5158  0.3176
 2435TIP3   OH228719   2.124   4.155  13.792 -0.0829  0.2053  0.7450
 2435TIP3    H128720   2.218   4.176  13.791  0.0910 -0.3717 -1.4253
 2435TIP3    H228721   2.096   4.172  13.702 -1.6669 -1.3082  0.9115
 2436TIP3   OH228722   5.475   1.096  16.149  0.5383  0.5355 -0.6799
 2436TIP3    H128723   5.477   1.191  16.136  0.3777  0.2291 -3.6290
 2436TIP3    H228724   5.497   1.084  16.241 -2.6567  3.5869  0.7407
 2437TIP3   OH228725   0.431   6.180   5.799 -0.2954 -0.4981 -0.0655
 2437TIP3    H128726   0.429   6.266   5.758 -1.0700 -0.6953 -0.4748
 2437TIP3    H228727   0.407   6.196   5.890  1.9027  0.0069  0.4860
 2438TIP3   OH228728   0.527   3.876  17.219  0.1994  0.2783  0.0848
 2438TIP3    H128729   0.458   3.817  17.189 -0.7129 -0.1787  2.8184
 2438TIP3    H228730   0.509   3.889  17.312  3.0441  1.2383  0.6033
 2439TIP3   OH228731   6.448   4.853   1.766 -0.4804 -0.0977 -0.2766
 2439TIP3    H128732   6.439   4.895   1.852  2.0710  1.4355 -0.6384
 2439TIP3    H228733   6.486   4.767   1.785  0.3844  0.3596  0.1556
 2440TIP3   OH228734   4.940   5.331   3.084  0.3615  0.2381 -0.1180
 2440TIP3    H128735   4.914   5.319   3.175 -0.5063 -0.1224 -0.3963
 2440TIP3    H228736   5.035   5.320   3.084  0.7425  2.8134  1.1308
 2441TIP3   OH228737   2.245   2.813  13.322  0.5523 -0.6428 -0.0382
 2441TIP3    H128738   2.299   2.844  13.394 -1.1835  1.7075  0.3481
 2441TIP3    H228739   2.307   2.789  13.253  2.1328 -0.1909  1.1907
 2442TIP3   OH228740   3.626   2.736   0.929  0.0635 -0.8994 -0.2044
 2442TIP3    H128741   3.626   2.741   0.834  0.5955 -0.4202 -0.1813
 2442TIP3    H228742   3.671   2.815   0.958 -0.5590 -0.7711  0.4595
 2443TIP3   OH228743   2.083   2.526  16.596  0.3132  0.1668 -0.0015
 2443TIP3    H128744   2.177   2.516  16.613  0.6173  2.4431 -0.0307
 2443TIP3    H228745   2.072   2.497  16.506  1.1470  0.6735 -0.2728
 2444TIP3   OH228746   1.568   2.333  14.764 -0.5055 -0.3722 -0.2456
 2444TIP3    H128747   1.647   2.377  14.731  0.1915 -0.5836  1.0744
 2444TIP3    H228748   1.582   2.241  14.744  0.0865 -0.5506  0.8936
 2445TIP3   OH228749   3.111   3.044   3.947 -0.3549 -0.2077  0.4209
 2445TIP3    H128750   3.186   2.995   3.913  0.7428  1.5714  0.1547
 2445TIP3    H228751   3.149   3.112   4.002 -1.5218  2.2141 -1.5137
 2446TIP3   OH228752   1.788   3.781  11.693  0.8028  0.2006 -0.0622
 2446TIP3    H128753   1.702   3.818  11.675  0.2355 -2.0824 -2.7788
 2446TIP3    H228754   1.827   3.769  11.606  2.8007 -1.2212  0.9582
 2447TIP3   OH228755   3.991   4.147   1.888  0.0170 -0.0058  0.2280
 2447TIP3    H128756   3.937   4.161   1.966 -0.5453 -0.5446 -0.0548
 2447TIP3    H228757   3.934   4.100   1.828  0.3134  0.7502 -0.6730
 2448TIP3   OH228758   5.074   3.669   1.391 -0.0378 -0.5656  0.2399
 2448TIP3    H128759   4.994   3.620   1.373 -0.1611 -0.8960  1.6116
 2448TIP3    H228760   5.080   3.673   1.487  0.2836  1.5801  0.1993
 2449TIP3   OH228761   1.746   1.883   5.554 -0.2311  0.2266  0.3958
 2449TIP3    H128762   1.693   1.824   5.500  1.7216 -0.6141 -0.6869
 2449TIP3    H228763   1.813   1.826   5.592  1.0544  1.5716  0.2086
 2450TIP3   OH228764   5.503   1.113   5.878 -0.2041 -0.2031 -0.3251
 2450TIP3    H128765   5.449   1.057   5.933  0.0068 -0.1080 -0.0172
 2450TIP3    H228766   5.593   1.096   5.907 -0.2166  1.2125  0.6440
 2451TIP3   OH228767   2.964   0.932  10.680 -0.2743  0.0295 -0.3170
 2451TIP3    H128768   2.979   0.886  10.597  0.5023 -1.3635  0.5425
 2451TIP3    H228769   2.923   1.014  10.655  0.2699 -0.1928 -2.1115
 2452TIP3   OH228770   5.604   1.787  12.034  0.2278  0.3020  0.2530
 2452TIP3    H128771   5.602   1.710  12.091 -0.6333 -0.2021 -0.4407
 2452TIP3    H228772   5.586   1.860  12.094  2.4060  0.1626  1.1561
 2453TIP3   OH228773   4.598   5.826   4.743  0.2204  0.2273 -0.1515
 2453TIP3    H128774   4.655   5.779   4.682  1.3859  1.7045 -0.2491
 2453TIP3    H228775   4.512   5.826   4.701  0.7511  0.2454 -1.2652
 2454TIP3   OH228776   6.641   4.647   3.639  0.0039 -0.4776 -0.1436
 2454TIP3    H128777   6.628   4.731   3.594  1.3616  0.1707  0.6051
 2454TIP3    H228778   6.731   4.652   3.673 -0.0267 -2.0856  0.2455
 2455TIP3   OH228779   1.300   0.196   1.915  0.2790 -0.0727 -0.7254
 2455TIP3    H128780   1.337   0.175   2.000  3.2983  0.4864 -1.7901
 2455TIP3    H228781   1.270   0.286   1.923  0.7731  0.0557 -0.3161
 2456TIP3   OH228782   5.678   1.729  15.845  0.2218  0.1818 -0.4366
 2456TIP3    H128783   5.631   1.663  15.895  0.8278 -0.0870 -0.2218
 2456TIP3    H228784   5.725   1.780  15.910  0.5417  0.2040 -0.6820
 2457TIP3   OH228785   1.934   2.122   2.253 -0.1236  0.4012  0.1144
 2457TIP3    H128786   1.865   2.180   2.286 -1.1393  0.6201 -2.2147
 2457TIP3    H228787   1.946   2.058   2.323 -0.7817  1.9072  1.6994
 2458TIP3   OH228788   5.191   6.548   2.430 -0.5621  0.1171  0.6079
 2458TIP3    H128789   5.174   6.561   2.524 -1.2560 -0.0509  0.5091
 2458TIP3    H228790   5.208   6.455   2.421  1.4020  0.4113  0.8464
 2459TIP3   OH228791   4.328   1.924  15.531 -0.4051  0.5708  0.6288
 2459TIP3    H128792   4.414   1.907  15.570  0.6437 -3.7367 -2.6970
 2459TIP3    H228793   4.273   1.852  15.563 -1.1727  0.3159 -1.1354
 2460TIP3   OH228794   3.771   3.316  17.285 -0.2944 -0.6891  0.2343
 2460TIP3    H128795   3.770   3.327  17.380 -0.0705  1.1022  0.0503
 2460TIP3    H228796   3.712   3.383  17.252  0.9583 -0.1203 -0.9787
 2461TIP3   OH228797   5.199   6.685   3.386 -0.3264 -0.3554  0.7102
 2461TIP3    H128798   5.191   6.777   3.409 -1.3113 -0.3649  0.4733
 2461TIP3    H228799   5.293   6.671   3.374 -0.2003  0.7276  0.3082
 2462TIP3   OH228800   1.617   0.303  16.367  0.1730  0.2286 -0.4294
 2462TIP3    H128801   1.566   0.362  16.312 -2.6921 -1.7520 -0.0788
 2462TIP3    H228802   1.579   0.216  16.351  0.9477 -0.8066  2.7274
 2463TIP3   OH228803   0.611   1.131  16.475 -0.6684 -0.1549 -0.1147
 2463TIP3    H128804   0.543   1.067  16.497  0.0906 -0.5870  1.1189
 2463TIP3    H228805   0.629   1.117  16.382 -1.6751 -0.5988 -0.2480
 2464TIP3   OH228806   1.392   5.449   1.734 -0.5161  0.6494 -0.1665
 2464TIP3    H128807   1.426   5.504   1.664  0.8586 -1.7832 -1.5484
 2464TIP3    H228808   1.398   5.360   1.700  2.7920 -1.0236  3.8979
 2465TIP3   OH228809   2.101   0.705  12.189 -0.6984  0.2661 -0.1602
 2465TIP3    H128810   2.144   0.790  12.201  0.0083  0.3514 -2.8036
 2465TIP3    H228811   2.018   0.726  12.146 -0.2740 -0.3862 -1.3431
 2466TIP3   OH228812   4.447   4.024   4.795  0.5586 -0.2226 -0.1100
 2466TIP3    H128813   4.428   3.984   4.880 -2.2442 -0.2409 -0.6558
 2466TIP3    H228814   4.467   3.950   4.737  0.3521 -0.4106  0.0549
 2467TIP3   OH228815   4.133   5.954   1.962  0.3732  0.0309 -0.2696
 2467TIP3    H128816   4.183   5.924   2.037 -0.1392 -0.3353 -0.0717
 2467TIP3    H228817   4.176   5.915   1.887  2.0938  1.9614 -0.3711
 2468TIP3   OH228818   3.806   1.302   1.813  0.2499 -0.3413 -0.1484
 2468TIP3    H128819   3.850   1.305   1.728  4.1835 -1.2647  1.6750
 2468TIP3    H228820   3.801   1.394   1.841  0.0019 -0.1451 -0.8078
 2469TIP3   OH228821   1.185   3.035   0.569  0.4599  0.0417  0.0141
 2469TIP3    H128822   1.160   3.016   0.659  0.0374  0.6879  0.0425
 2469TIP3    H228823   1.177   3.130   0.562  0.0434 -0.0525 -0.8360
 2470TIP3   OH228824   0.482   4.968  11.667 -0.4093  0.1477  0.0828
 2470TIP3    H128825   0.395   4.928  11.663 -0.5777  0.5301 -4.1565
 2470TIP3    H228826   0.525   4.939  11.587  3.0157  0.8820  1.5160
 2471TIP3   OH228827   4.873   1.853  15.687  0.4513 -0.6429 -0.6972
 2471TIP3    H128828   4.812   1.876  15.617 -0.5399  1.3607  0.7117
 2471TIP3    H228829   4.953   1.902  15.667  1.0314 -1.9207 -1.6279
 2472TIP3   OH228830   4.711   0.345  14.913 -0.1359  0.1825 -0.4717
 2472TIP3    H128831   4.618   0.368  14.923 -0.0994  0.0349  0.2684
 2472TIP3    H228832   4.749   0.364  14.999  0.4957  0.1379 -0.7434
 2473TIP3   OH228833   5.182   5.328  15.586  0.5906 -0.7296 -0.0524
 2473TIP3    H128834   5.259   5.383  15.567  0.2301  0.8661  2.5565
 2473TIP3    H228835   5.116   5.358  15.524  0.8134  0.9475  0.4577
 2474TIP3   OH228836   5.547   0.386  16.660 -0.3163  0.2920  0.2062
 2474TIP3    H128837   5.526   0.479  16.652  1.6646  0.8319  0.8017
 2474TIP3    H228838   5.589   0.363  16.577 -0.1396  0.1138  0.3445
 2475TIP3   OH228839   2.670   5.441   0.705  0.0717  0.4637  0.8565
 2475TIP3    H128840   2.762   5.443   0.731 -0.0257 -0.0674  1.2733
 2475TIP3    H228841   2.622   5.461   0.786 -0.1452  2.3188  0.3169
 2476TIP3   OH228842   1.610   1.336   3.481 -0.0117  0.1849  0.5165
 2476TIP3    H128843   1.647   1.422   3.500  1.2993 -0.0041 -0.9756
 2476TIP3    H228844   1.649   1.311   3.397 -1.1545 -1.4257  0.4202
 2477TIP3   OH228845   3.769   5.473   5.218  0.3394 -0.0008  0.0738
 2477TIP3    H128846   3.850   5.524   5.217 -0.4331  1.2496  0.2999
 2477TIP3    H228847   3.736   5.479   5.129  1.1274 -1.6005 -0.3711
 2478TIP3   OH228848   2.701   0.263  13.586  0.4914 -0.3208 -0.2460
 2478TIP3    H128849   2.660   0.298  13.507 -1.4453  0.2794  0.9321
 2478TIP3    H228850   2.773   0.323  13.605  0.3321  0.1176 -0.9948
 2479TIP3   OH228851   1.959   6.441   1.673 -0.3110 -0.1104 -0.2932
 2479TIP3    H128852   2.015   6.489   1.611  0.8746 -1.1760 -0.0881
 2479TIP3    H228853   1.957   6.496   1.751 -1.0392  0.7895 -0.9173
 2480TIP3   OH228854   6.616   3.873  12.931  0.1719  0.3838 -0.1411
 2480TIP3    H128855   6.660   3.956  12.949 -0.9038  0.6761  1.3556
 2480TIP3    H228856   6.526   3.887  12.959  0.1472 -1.5355  0.9748
 2481TIP3   OH228857   2.021   6.200  12.780  0.0740 -0.0503  0.1966
 2481TIP3    H128858   2.040   6.288  12.811 -0.0866  0.1012 -0.1279
 2481TIP3    H228859   1.929   6.185  12.801  0.2967 -0.4399  0.9460
 2482TIP3   OH228860   2.167   6.091  16.300  0.6395 -0.2824 -0.3002
 2482TIP3    H128861   2.218   6.032  16.355  1.7524  0.8757 -0.0418
 2482TIP3    H228862   2.233   6.137  16.247 -0.3056 -0.3904 -1.6210
 2483TIP3   OH228863   0.938   1.297   2.649  0.3271  0.5235 -0.0431
 2483TIP3    H128864   0.926   1.339   2.734  2.4519  2.7459 -0.7264
 2483TIP3    H228865   1.029   1.268   2.648 -0.3408 -1.8302 -0.6611
 2484TIP3   OH228866   0.913   1.064  15.853 -0.2168  0.6873 -0.2212
 2484TIP3    H128867   0.872   1.005  15.916  0.9937  1.0992  0.9743
 2484TIP3    H228868   0.897   1.151  15.887  1.1387  0.8808 -0.0257
 2485TIP3   OH228869   2.099   2.210   4.601  0.0896 -0.8317 -0.0576
 2485TIP3    H128870   2.149   2.189   4.522 -1.5841 -1.0392 -1.1164
 2485TIP3    H228871   2.123   2.300   4.622  0.4034 -0.7057 -0.9334
 2486TIP3   OH228872   4.181   3.843   0.600 -0.0129 -0.4427  0.0099
 2486TIP3    H128873   4.230   3.791   0.536 -0.0808  1.2004 -1.4537
 2486TIP3    H228874   4.245   3.904   0.635 -0.1448 -0.8728  1.0505
 2487TIP3   OH228875   2.055   0.024  12.997  0.1512  0.0239 -0.4083
 2487TIP3    H128876   2.044  -0.057  13.048  2.1516  0.5525  0.9933
 2487TIP3    H228877   2.148   0.045  13.006 -0.4182  2.7806 -0.2559
 2488TIP3   OH228878   3.246   3.365  11.639 -0.1185  0.9243 -0.3474
 2488TIP3    H128879   3.322   3.309  11.624  2.4163  3.6471  1.1747
 2488TIP3    H228880   3.185   3.311  11.689  1.0802 -1.1534 -1.0171
 2489TIP3   OH228881   4.369   4.525  13.263 -0.5249  1.0943 -0.3042
 2489TIP3    H128882   4.287   4.510  13.309  0.4213 -1.0966  0.7977
 2489TIP3    H228883   4.431   4.551  13.332 -0.0263  1.6994 -0.9614
 2490TIP3   OH228884   5.117   1.387  14.903 -0.1430  0.1003 -0.5622
 2490TIP3    H128885   5.075   1.309  14.866  1.3316 -0.6701 -0.7136
 2490TIP3    H228886   5.050   1.428  14.957 -0.7142 -1.7463  0.1957
 2491TIP3   OH228887   0.226   2.252  17.252 -0.2604 -0.0874  0.1045
 2491TIP3    H128888   0.254   2.296  17.332  0.1265  1.3862 -0.7927
 2491TIP3    H228889   0.307   2.232  17.206 -0.5097  0.9103 -0.8235
 2492TIP3   OH228890   4.116   0.670  17.072 -0.1543  0.1585 -0.4316
 2492TIP3    H128891   4.047   0.614  17.036 -0.3127  1.1285 -1.7423
 2492TIP3    H228892   4.172   0.611  17.121 -1.0857 -0.9053 -0.6105
 2493TIP3   OH228893   0.503   4.195   2.472  0.4316 -0.1378  0.3703
 2493TIP3    H128894   0.555   4.271   2.497  0.6499 -0.1106 -0.1468
 2493TIP3    H228895   0.500   4.140   2.550  0.6950  0.1685  0.5945
 2494TIP3   OH228896   1.443   4.604   2.292  0.3202  0.0922 -0.4255
 2494TIP3    H128897   1.361   4.650   2.275 -0.7982 -0.3714  2.9062
 2494TIP3    H228898   1.511   4.671   2.285 -0.4064  0.6740 -2.4000
 2495TIP3   OH228899   1.015   0.842   2.722  0.2516  0.0403 -0.1444
 2495TIP3    H128900   1.039   0.801   2.639 -0.0477 -1.8922  0.6637
 2495TIP3    H228901   1.089   0.899   2.743  0.7812 -0.2214 -1.2397
 2496TIP3   OH228902   2.788   6.441  16.771 -0.0022 -0.0229  0.3286
 2496TIP3    H128903   2.771   6.509  16.837  3.1403 -0.2077  1.5165
 2496TIP3    H228904   2.751   6.361  16.809 -0.5814  0.3627  0.5962
 2497TIP3   OH228905   6.401   2.680  11.506  0.3055  0.3862 -0.7742
 2497TIP3    H128906   6.442   2.762  11.534  1.3117 -0.5084  0.4993
 2497TIP3    H228907   6.352   2.650  11.582  0.8576 -0.7290 -0.8304
 2498TIP3   OH228908   5.294   5.076  15.640 -0.4089 -0.1048 -0.2995
 2498TIP3    H128909   5.251   5.030  15.712  1.6537  0.5727  1.4798
 2498TIP3    H228910   5.252   5.162  15.639 -1.3590 -0.5699 -0.8047
 2499TIP3   OH228911   3.654   5.068   3.163 -0.6574 -0.4721  0.2602
 2499TIP3    H128912   3.623   5.123   3.235 -0.5798 -0.3135  0.1724
 2499TIP3    H228913   3.677   4.985   3.205  1.1160  0.2033  0.7419
 2500TIP3   OH228914   1.065   0.590  12.537  0.1864 -0.3473  0.4548
 2500TIP3    H128915   1.035   0.680  12.550 -1.8761 -0.8887 -0.1796
 2500TIP3    H228916   1.075   0.554  12.625 -2.0034 -0.3824  0.7580
 2501TIP3   OH228917   2.329   4.353  16.244  0.0615  0.1632  0.3723
 2501TIP3    H128918   2.326   4.375  16.150 -0.2591 -1.9512 -0.1642
 2501TIP3    H228919   2.372   4.268  16.247 -0.7418 -0.2181  2.0776
 2502TIP3   OH228920   3.504   0.382   4.195  0.0635  0.1155 -0.7192
 2502TIP3    H128921   3.594   0.384   4.164  0.3634 -1.8514 -0.0900
 2502TIP3    H228922   3.495   0.460   4.250  1.1287  0.7437 -1.4176
 2503TIP3   OH228923   0.027   4.849   4.051  0.1854 -0.2036  0.4073
 2503TIP3    H128924  -0.062   4.836   4.019 -0.3786 -1.9465  2.4641
 2503TIP3    H228925   0.080   4.789   3.997  0.0661  0.4950 -0.5049
 2504TIP3   OH228926   0.180   4.108   5.593  0.5893  0.1514  0.1892
 2504TIP3    H128927   0.223   4.191   5.616  0.8702 -0.0462  0.3817
 2504TIP3    H228928   0.127   4.129   5.517  0.3352  0.6071  0.4901
 2505TIP3   OH228929   2.940   3.335   3.339 -0.1806 -0.1218 -0.1101
 2505TIP3    H128930   2.846   3.352   3.333 -0.4017 -0.0402  2.4896
 2505TIP3    H228931   2.946   3.247   3.376  0.7567 -0.1309 -0.2705
 2506TIP3   OH228932   5.588   2.251   1.717 -0.0812 -0.0785  0.9668
 2506TIP3    H128933   5.577   2.157   1.726 -0.6915 -0.3135 -1.3646
 2506TIP3    H228934   5.530   2.275   1.644  1.3292  1.7901  0.3602
 2507TIP3   OH228935   2.513   3.405   1.549 -0.7077  0.6685 -0.3950
 2507TIP3    H128936   2.552   3.492   1.542 -1.2223  1.1214  1.8322
 2507TIP3    H228937   2.578   3.353   1.595 -0.6644  0.0164 -1.1676
 2508TIP3   OH228938   2.127   4.787   1.025  0.3833 -0.1280 -0.3138
 2508TIP3    H128939   2.126   4.694   1.002  0.0356  0.2707 -2.1242
 2508TIP3    H228940   2.037   4.808   1.046  0.3559 -0.0945 -0.4590
 2509TIP3   OH228941   5.857   4.248   2.187 -0.1610  0.1474  0.2246
 2509TIP3    H128942   5.773   4.205   2.167 -0.6625  1.0477  0.3323
 2509TIP3    H228943   5.923   4.183   2.164 -0.8790 -0.4455 -0.2270
 2510TIP3   OH228944   3.767   5.390  13.039 -0.5545 -0.3531  0.2802
 2510TIP3    H128945   3.777   5.459  13.104 -1.8814 -0.4175  0.5940
 2510TIP3    H228946   3.706   5.426  12.975  0.1561 -0.5690 -0.5419
 2511TIP3   OH228947   1.496   0.851  14.411  0.0504  0.3204 -0.1137
 2511TIP3    H128948   1.427   0.790  14.435 -0.1460  0.1840 -1.0032
 2511TIP3    H228949   1.450   0.934  14.394 -0.1688 -0.2567 -2.6112
 2512TIP3   OH228950   3.990   4.138   1.496  0.0482 -0.4285  0.0613
 2512TIP3    H128951   3.975   4.049   1.463  1.1171 -0.5655 -0.1011
 2512TIP3    H228952   3.908   4.162   1.539  0.1249 -1.9658  1.1809
 2513TIP3   OH228953   3.209   6.238  13.113 -0.2026 -0.2342 -0.5666
 2513TIP3    H128954   3.250   6.197  13.036  0.2082  0.9685 -1.0124
 2513TIP3    H228955   3.260   6.204  13.187  0.3028 -0.3230 -0.9449
 2514TIP3   OH228956   3.976   4.867   3.553  0.5492 -0.0431  0.0505
 2514TIP3    H128957   3.968   4.872   3.458 -0.8610  1.6956  0.2188
 2514TIP3    H228958   4.028   4.944   3.577  1.7452 -0.9998  0.6374
 2515TIP3   OH228959   2.105   0.948  16.365  0.8315 -0.1725 -0.1355
 2515TIP3    H128960   2.043   0.875  16.366 -1.4723  1.5892 -1.8592
 2515TIP3    H228961   2.132   0.958  16.456 -1.0322 -1.3825  0.6197
 2516TIP3   OH228962   3.392   0.483   1.744 -0.4097 -0.4625 -0.5434
 2516TIP3    H128963   3.422   0.403   1.787  0.8511  0.3107  0.0774
 2516TIP3    H228964   3.460   0.547   1.763 -1.0689  0.5862 -1.5960
 2517TIP3   OH228965   2.976   1.577   3.670  0.8971 -0.0139  0.3364
 2517TIP3    H128966   2.961   1.634   3.746 -1.9949  0.8201 -0.7061
 2517TIP3    H228967   2.897   1.523   3.665  2.2058 -1.9398 -0.5689
 2518TIP3   OH228968   2.378   4.781   4.307 -0.1454 -0.1196 -0.2332
 2518TIP3    H128969   2.330   4.784   4.224 -1.1884 -1.1345  0.3043
 2518TIP3    H228970   2.356   4.864   4.350 -2.4953 -1.0379  0.5243
 2519TIP3   OH228971   4.161   0.000  11.713 -0.4667 -0.4575 -0.1608
 2519TIP3    H128972   4.171  -0.000  11.809 -0.0369  0.4801 -0.1824
 2519TIP3    H228973   4.251  -0.002  11.680 -0.4580  1.7959 -0.4815
 2520TIP3   OH228974   5.893   2.770   2.162  0.1707 -0.2500  0.5358
 2520TIP3    H128975   5.855   2.762   2.250  1.0585 -1.1340  0.8541
 2520TIP3    H228976   5.833   2.829   2.116 -0.8086 -0.4948  1.4498
 2521TIP3   OH228977   1.407   0.829  12.124  0.3465  0.2904  0.0880
 2521TIP3    H128978   1.401   0.769  12.049 -0.3892 -0.7491  0.9467
 2521TIP3    H228979   1.397   0.772  12.200  2.2504  1.1549  1.0446
 2522TIP3   OH228980   3.096   4.907  12.979  0.0024  0.1069 -0.2791
 2522TIP3    H128981   3.149   4.903  13.059 -2.7256  0.2835  1.6624
 2522TIP3    H228982   3.049   4.823  12.977  0.1105  0.0547 -1.7928
 2523TIP3   OH228983   3.334   3.618  16.016  0.1591 -0.2671  0.2295
 2523TIP3    H128984   3.365   3.605  16.106  1.6522  1.6112  0.0715
 2523TIP3    H228985   3.239   3.615  16.023  0.2246  0.2462  1.9585
 2524TIP3   OH228986   4.000   1.572  15.501  0.1233  0.3721 -0.2942
 2524TIP3    H128987   3.913   1.558  15.463 -0.2774  1.7292  0.0663
 2524TIP3    H228988   4.051   1.496  15.473 -1.6420 -1.3517  0.9262
 2525TIP3   OH228989   3.304   6.669  12.361 -0.0588 -0.0470 -0.1002
 2525TIP3    H128990   3.232   6.727  12.337 -0.4884 -1.0239 -1.2865
 2525TIP3    H228991   3.305   6.671  12.457 -0.8625  0.9332 -0.0928
 2526TIP3   OH228992   5.654   3.750  14.052 -0.2942 -0.2287 -0.4861
 2526TIP3    H128993   5.585   3.732  13.988 -1.9025 -0.0129  1.1062
 2526TIP3    H228994   5.615   3.813  14.112  1.1271 -0.4742  0.7437
 2527TIP3   OH228995   3.802   1.865   1.715 -0.1638 -0.6548  0.0884
 2527TIP3    H128996   3.806   1.802   1.642 -0.3601 -0.4308 -0.1143
 2527TIP3    H228997   3.712   1.897   1.715 -0.3449 -1.1272  0.8356
 2528TIP3   OH228998   4.722   4.337  17.074  0.0957  0.1131  0.5971
 2528TIP3    H128999   4.643   4.366  17.029  0.8519  0.2768 -0.6715
 2528TIP3    H229000   4.794   4.377  17.025  1.1379 -2.9062 -0.5818
 2529TIP3   OH229001   6.130   1.862   3.615 -0.5705  0.2964  0.0064
 2529TIP3    H129002   6.178   1.814   3.682  1.1100  1.4083 -0.3138
 2529TIP3    H229003   6.138   1.954   3.641  2.9548  1.1712 -3.1525
 2530TIP3   OH229004   1.545   6.346  16.950 -0.1153  0.1915 -0.0446
 2530TIP3    H129005   1.552   6.307  16.863  1.0105 -1.1157  0.5756
 2530TIP3    H229006   1.504   6.278  17.003  1.1901  0.1023  0.9044
 2531TIP3   OH229007   6.074   5.955   3.724 -0.0041  0.0973 -0.1843
 2531TIP3    H129008   6.116   5.882   3.769 -0.8512 -0.4326 -0.2299
 2531TIP3    H229009   5.981   5.939   3.735 -0.2134  0.4227 -1.3799
 2532TIP3   OH229010   4.265   4.084   2.522 -0.0010  0.3474  0.0138
 2532TIP3    H129011   4.250   3.990   2.508  2.3710  0.0019 -0.7915
 2532TIP3    H229012   4.209   4.127   2.459 -0.1810 -0.6117 -0.5025
 2533TIP3   OH229013   5.356   4.418   4.752 -0.3895  0.1277 -0.1992
 2533TIP3    H129014   5.435   4.472   4.741 -0.5906  0.3596 -0.5116
 2533TIP3    H229015   5.320   4.410   4.664  0.4427 -1.7773 -0.4248
 2534TIP3   OH229016   5.334   0.956   4.677  0.4603 -0.1838 -0.0180
 2534TIP3    H129017   5.406   0.967   4.614 -0.3332 -0.2196 -0.9614
 2534TIP3    H229018   5.366   0.890   4.738  1.1852 -0.2963 -0.4957
 2535TIP3   OH229019   3.364   0.391  14.262 -0.2913  0.0000 -0.2970
 2535TIP3    H129020   3.352   0.343  14.180  0.1182  0.3056 -0.5429
 2535TIP3    H229021   3.460   0.397  14.272 -0.3143  1.5390 -0.7428
 2536TIP3   OH229022   1.265   2.822   2.973  0.2727  0.4037 -0.1338
 2536TIP3    H129023   1.275   2.912   3.002 -0.9883  0.0501  1.5715
 2536TIP3    H229024   1.193   2.825   2.910  0.4863  0.6413 -0.3677
 2537TIP3   OH229025   5.135   6.034   2.436 -0.2501  0.7733 -0.5925
 2537TIP3    H129026   5.199   5.965   2.457  0.8261  1.4582 -1.5024
 2537TIP3    H229027   5.115   6.075   2.520 -3.1505 -2.4087  0.5282
 2538TIP3   OH229028   0.600   5.632   3.773 -0.3437  0.4497 -0.0834
 2538TIP3    H129029   0.661   5.563   3.749 -0.2493  0.9751 -1.5170
 2538TIP3    H229030   0.516   5.603   3.738 -0.4082  0.8130 -0.2410
 2539TIP3   OH229031   0.571   4.635  15.843  0.1036 -0.2984 -0.4365
 2539TIP3    H129032   0.561   4.588  15.761 -2.7424 -3.4080  1.4527
 2539TIP3    H229033   0.556   4.727  15.820  0.7455 -0.8659 -3.5093
 2540TIP3   OH229034   4.957   0.951  12.252 -0.3260  0.1268 -0.1443
 2540TIP3    H129035   4.984   1.021  12.312 -1.1138  0.3115 -0.0031
 2540TIP3    H229036   4.910   0.997  12.182 -1.9534 -0.3678  0.5817
 2541TIP3   OH229037   5.274   1.630  14.101  0.4740  1.0262  0.2822
 2541TIP3    H129038   5.367   1.639  14.122  0.6194 -0.5280  0.4490
 2541TIP3    H229039   5.267   1.664  14.012  1.8517 -1.5055 -0.9443
 2542TIP3   OH229040   2.426   6.012   3.152  0.2750  0.3556  0.0432
 2542TIP3    H129041   2.451   5.986   3.241 -1.9679 -1.1130  0.3134
 2542TIP3    H229042   2.510   6.027   3.107  1.4620  0.8907  2.2867
 2543TIP3   OH229043   1.934   5.905  11.233  0.2681  0.0711 -0.0918
 2543TIP3    H129044   1.873   5.972  11.200 -0.6678 -1.5518 -1.8490
 2543TIP3    H229045   1.902   5.884  11.320 -2.0194 -0.9945 -1.1023
 2544TIP3   OH229046   1.154   2.462  14.744 -0.2949 -0.1341  0.3257
 2544TIP3    H129047   1.198   2.410  14.677  1.1077 -1.6032  2.2448
 2544TIP3    H229048   1.149   2.550  14.708  1.0731 -0.7099 -1.3949
 2545TIP3   OH229049   3.431   1.692  12.441 -0.2205  0.1546  0.3088
 2545TIP3    H129050   3.386   1.665  12.521  0.0305  0.9375  0.7213
 2545TIP3    H229051   3.456   1.783  12.456 -1.7137  0.9043 -1.3276
 2546TIP3   OH229052   4.117   2.437   5.416  0.1869  0.1981 -0.3257
 2546TIP3    H129053   4.200   2.451   5.370  0.8192 -0.7429  0.4922
 2546TIP3    H229054   4.096   2.523   5.453  1.4205  0.1899  0.4535
 2547TIP3   OH229055   1.531   1.218  13.025 -0.4975  0.2797  0.1737
 2547TIP3    H129056   1.546   1.305  13.063 -2.1788  0.9707 -0.6318
 2547TIP3    H229057   1.436   1.209  13.021 -0.3833 -0.7277 -1.6394
 2548TIP3   OH229058   3.253   5.608   3.654 -0.0351 -0.2612 -0.4199
 2548TIP3    H129059   3.251   5.683   3.714  0.2040  0.3275 -1.1274
 2548TIP3    H229060   3.207   5.539   3.701  1.4390 -0.2907  1.0646
 2549TIP3   OH229061   0.345   3.070  17.099 -0.1275  0.0303 -0.0555
 2549TIP3    H129062   0.424   3.117  17.072 -0.1034 -0.3406 -0.6400
 2549TIP3    H229063   0.376   3.010  17.167 -0.3113  1.4583  1.3590
 2550TIP3   OH229064   4.645   0.716  14.697  0.2165 -0.0353 -0.0589
 2550TIP3    H129065   4.720   0.680  14.745  0.6424 -1.2991 -1.6103
 2550TIP3    H229066   4.632   0.803  14.737  0.7466 -0.8599  2.0706
 2551TIP3   OH229067   5.790   1.868   0.671  0.5391  0.0463 -0.3804
 2551TIP3    H129068   5.799   1.778   0.704 -1.4232 -0.1751 -0.2887
 2551TIP3    H229069   5.879   1.902   0.667  1.3324 -1.9261 -0.4672
 2552TIP3   OH229070   6.155   0.927   1.605 -0.2182 -0.7179 -0.2782
 2552TIP3    H129071   6.068   0.958   1.630 -0.6230 -0.4280 -1.9153
 2552TIP3    H229072   6.215   0.987   1.649 -0.9085  0.2757 -0.6471
 2553TIP3   OH229073   0.183   4.746   0.424 -0.2940 -0.1897  0.2428
 2553TIP3    H129074   0.223   4.694   0.353  0.7116 -0.5471  1.0465
 2553TIP3    H229075   0.135   4.681   0.476  0.8607 -0.3304  1.1778
 2554TIP3   OH229076   2.282   1.402   1.735  0.5412  0.0479 -0.5522
 2554TIP3    H129077   2.301   1.317   1.694  2.7410  1.0273 -1.7376
 2554TIP3    H229078   2.291   1.465   1.664 -0.9289  1.3311  0.3484
 2555TIP3   OH229079   6.743   4.206   4.284 -0.7049  0.8294 -0.5611
 2555TIP3    H129080   6.833   4.177   4.297 -1.1476 -0.7052 -0.6331
 2555TIP3    H229081   6.723   4.260   4.361  0.6596  2.2614 -1.1759
 2556TIP3   OH229082   2.554   3.463   5.950  0.1879  0.0029 -0.4511
 2556TIP3    H129083   2.594   3.449   6.036  1.3559 -0.6013 -1.0654
 2556TIP3    H229084   2.588   3.547   5.920  1.7698 -0.8916 -1.3368
 2557TIP3   OH229085   1.047   5.544  13.532  0.2557  0.7624 -0.1589
 2557TIP3    H129086   1.123   5.595  13.504  0.9218 -0.3724 -0.4727
 2557TIP3    H229087   1.042   5.472  13.469 -1.7215  1.3739 -0.7897
 2558TIP3   OH229088   4.710   2.066  15.412 -0.4486  0.3504  0.0591
 2558TIP3    H129089   4.795   2.109  15.401  0.0292 -0.6807 -0.4729
 2558TIP3    H229090   4.680   2.048  15.323 -0.2616 -1.0751  0.2525
 2559TIP3   OH229091   6.548   4.841  13.491 -0.0294 -0.6629  0.8625
 2559TIP3    H129092   6.514   4.780  13.426 -0.2580  0.4232 -0.0713
 2559TIP3    H229093   6.471   4.873  13.538  0.1624 -1.7020  1.9410
 2560TIP3   OH229094   2.736   1.461   3.592  0.3969  0.1878  1.0138
 2560TIP3    H129095   2.758   1.500   3.508  0.8132 -0.6213  0.7339
 2560TIP3    H229096   2.643   1.481   3.604  0.4549  0.7322  0.6020
 2561TIP3   OH229097   5.129   5.633  17.243  0.8282  0.6755  0.1405
 2561TIP3    H129098   5.211   5.598  17.207  0.1606  1.0891 -1.9748
 2561TIP3    H229099   5.130   5.607  17.335  1.4973 -2.8034 -0.6911
 2562TIP3   OH229100   6.518   4.607   5.273 -0.0170  0.8284 -0.2968
 2562TIP3    H129101   6.475   4.580   5.353  0.5447  0.2491 -0.1851
 2562TIP3    H229102   6.480   4.693   5.253  1.2121  1.8688  1.6294
 2563TIP3   OH229103   3.378   1.749   6.435  0.0642  0.6315 -0.0644
 2563TIP3    H129104   3.450   1.688   6.418  0.5283  0.9653  0.6289
 2563TIP3    H229105   3.413   1.810   6.500 -1.1213  0.2838  0.9530
 2564TIP3   OH229106   0.018   1.587  15.003  0.3991 -0.4122  0.3784
 2564TIP3    H129107   0.037   1.619  14.915  0.9829 -0.8212  0.3442
 2564TIP3    H229108   0.098   1.606  15.053  0.1239 -0.3090  0.7861
 2565TIP3   OH229109   3.123   2.940  13.222 -0.8798  0.0421 -0.0178
 2565TIP3    H129110   3.118   3.025  13.180 -1.5201  0.8972  1.6843
 2565TIP3    H229111   3.215   2.932  13.249 -0.7181 -0.0164 -0.5834
 2566TIP3   OH229112   3.437   1.839  13.012  0.4553 -0.0618  0.4859
 2566TIP3    H129113   3.469   1.820  12.924  0.3387  1.1978  0.1464
 2566TIP3    H229114   3.429   1.754  13.054  0.0263 -0.7350 -0.8898
 2567TIP3   OH229115   4.591   5.506   5.191 -0.1976 -0.6619 -0.4127
 2567TIP3    H129116   4.671   5.500   5.245 -0.1134  1.7384 -0.1480
 2567TIP3    H229117   4.608   5.579   5.132 -1.7333 -0.9423 -1.2495
 2568TIP3   OH229118   0.974   4.411   0.074  0.2918 -0.5628  0.0206
 2568TIP3    H129119   0.943   4.352   0.006 -0.5621  0.9635 -0.9542
 2568TIP3    H229120   0.932   4.379   0.154  0.6778 -1.8813 -0.2727
 2569TIP3   OH229121   5.960   3.842   1.516  0.1389  0.1201  0.7542
 2569TIP3    H129122   5.885   3.826   1.459  0.6833  0.5003 -0.0823
 2569TIP3    H229123   5.958   3.936   1.533  2.2998  0.8312 -2.0559
 2570TIP3   OH229124   3.316   4.504  16.439 -0.5299  0.0285  0.0830
 2570TIP3    H129125   3.389   4.442  16.450 -0.5750  0.1922  1.4148
 2570TIP3    H229126   3.283   4.519  16.527 -2.9701 -0.9476 -0.5796
 2571TIP3   OH229127   2.643   5.195   1.465 -0.3095 -0.1743  0.1642
 2571TIP3    H129128   2.632   5.279   1.420 -2.0524  0.3031  1.4214
 2571TIP3    H229129   2.681   5.138   1.398  0.8391  1.5574 -0.7519
 2572TIP3   OH229130   0.156   2.524   3.118  0.0977  0.4982  0.0861
 2572TIP3    H129131   0.225   2.493   3.060 -0.7866 -1.4233 -0.0139
 2572TIP3    H229132   0.197   2.594   3.169  1.5043  0.7666 -1.3407
 2573TIP3   OH229133   6.009   6.644   1.858  0.7708  0.5162  0.2506
 2573TIP3    H129134   5.953   6.653   1.935  0.5272  0.9119  0.0277
 2573TIP3    H229135   5.977   6.565   1.814  0.9026  0.2962  0.5398
 2574TIP3   OH229136   0.051   0.672  16.558  0.1508 -0.2285  0.3091
 2574TIP3    H129137   0.107   0.614  16.609  0.2156 -0.6546 -0.2358
 2574TIP3    H229138   0.053   0.755  16.605 -2.6866 -1.5305  3.0745
 2575TIP3   OH229139   1.150   5.587  12.915 -0.2370  0.2969  0.4408
 2575TIP3    H129140   1.134   5.541  12.833  0.9511  0.4658  0.0886
 2575TIP3    H229141   1.064   5.601  12.952 -0.7370 -0.5824 -0.3411
 2576TIP3   OH229142   4.803   3.253  11.748 -0.4365  0.1946 -0.2805
 2576TIP3    H129143   4.851   3.233  11.668 -0.6199  0.5726 -0.4902
 2576TIP3    H229144   4.815   3.176  11.804 -0.9961 -0.4244 -1.0015
 2577TIP3   OH229145   5.522   2.391   5.683 -0.6518 -0.6909 -0.0837
 2577TIP3    H129146   5.469   2.343   5.619 -1.2290  1.4867 -1.3578
 2577TIP3    H229147   5.608   2.349   5.679 -0.8045 -0.9243 -2.0043
 2578TIP3   OH229148   4.716   0.029  16.634  0.0962  0.0531 -0.0438
 2578TIP3    H129149   4.681  -0.059  16.618 -0.6941  0.4726 -0.6891
 2578TIP3    H229150   4.793   0.014  16.689  1.3441 -1.2737 -2.0098
 2579TIP3   OH229151   3.112   6.323   5.917  0.0764 -0.3853  0.4519
 2579TIP3    H129152   3.066   6.378   5.980  3.1774 -0.3185  2.8929
 2579TIP3    H229153   3.075   6.235   5.931 -2.4523  0.3187 -1.0450
 2580TIP3   OH229154   2.070   3.352  15.182 -0.3853  0.6409  0.0348
 2580TIP3    H129155   2.120   3.272  15.197 -1.7080 -0.4703 -1.1243
 2580TIP3    H229156   2.129   3.423  15.206 -0.3435 -0.6708  4.5950
 2581TIP3   OH229157   5.464   2.132   4.708 -0.1730  0.2947 -0.8570
 2581TIP3    H129158   5.548   2.096   4.677  0.8860  1.2243  0.7836
 2581TIP3    H229159   5.439   2.075   4.780 -1.9800 -1.1017 -2.4905
 2582TIP3   OH229160   6.246   1.983   6.423 -0.6158  0.1262 -0.4744
 2582TIP3    H129161   6.311   2.045   6.391 -0.5299  1.0773  1.3839
 2582TIP3    H229162   6.292   1.900   6.431  0.5348  0.8716  1.1719
 2583TIP3   OH229163   2.942   4.556  13.532 -0.3207  0.3722  0.0921
 2583TIP3    H129164   2.970   4.586  13.619  1.2126 -0.3457 -0.1318
 2583TIP3    H229165   2.950   4.633  13.476 -0.0270  0.5024  0.3125
 2584TIP3   OH229166   6.080   2.160  12.427  0.1872 -0.4901  0.5910
 2584TIP3    H129167   6.135   2.236  12.411 -0.6946  0.2429  0.9488
 2584TIP3    H229168   6.140   2.086  12.428  0.6065 -0.4628 -4.0862
 2585TIP3   OH229169   4.349   3.781  11.657 -0.3786  0.2886 -0.2297
 2585TIP3    H129170   4.315   3.851  11.713 -0.0813  0.4420 -0.2384
 2585TIP3    H229171   4.444   3.786  11.668 -0.3993 -0.9166  0.7589
 2586TIP3   OH229172   3.617   6.138  12.715  0.0956  0.1099  0.1788
 2586TIP3    H129173   3.580   6.061  12.759 -1.8705 -1.0621 -3.2029
 2586TIP3    H229174   3.590   6.129  12.624  4.3260  2.0705 -1.5393
 2587TIP3   OH229175   3.777   0.397   4.696 -0.5991 -0.0751 -0.0732
 2587TIP3    H129176   3.701   0.393   4.754 -0.2914 -0.5871  0.3041
 2587TIP3    H229177   3.825   0.475   4.725 -0.2021 -0.5906  0.6732
 2588TIP3   OH229178   2.901   6.116  15.990  0.2278  0.0992  0.7672
 2588TIP3    H129179   2.987   6.143  15.956  0.4890  0.4130  1.6527
 2588TIP3    H229180   2.913   6.024  16.015 -0.2718 -0.4722 -0.9551
 2589TIP3   OH229181   5.668   2.855  11.222 -0.6080  0.3142  0.8570
 2589TIP3    H129182   5.688   2.842  11.315  1.7743  0.9834  0.5083
 2589TIP3    H229183   5.668   2.767  11.186  1.3180  0.1996  1.0265
 2590TIP3   OH229184   6.754   5.715  15.231 -0.2650 -0.1935  0.1341
 2590TIP3    H129185   6.737   5.660  15.307 -0.3843  0.0083  0.2560
 2590TIP3    H229186   6.668   5.733  15.194 -0.5716  2.3583  1.8353
 2591TIP3   OH229187   4.028   3.612   5.671 -0.0026 -0.4106  0.2694
 2591TIP3    H129188   4.047   3.684   5.731  0.2893  0.7446 -1.1294
 2591TIP3    H229189   3.946   3.638   5.628 -0.7753 -1.7304  0.9021
 2592TIP3   OH229190   1.448   0.255  13.802  0.0024  0.6574 -0.5066
 2592TIP3    H129191   1.499   0.178  13.777 -0.9811  0.7001 -2.8779
 2592TIP3    H229192   1.393   0.224  13.874  0.2177 -0.6211 -0.8555
 2593TIP3   OH229193   2.969   0.250  12.108 -0.0166  0.3746 -0.4216
 2593TIP3    H129194   3.000   0.310  12.175  1.1109 -1.7892  1.1265
 2593TIP3    H229195   2.894   0.205  12.148 -0.7069  0.5634 -1.4532
 2594TIP3   OH229196   3.301   4.585  12.380 -0.1292 -0.4048 -0.2805
 2594TIP3    H129197   3.261   4.555  12.462 -1.3833  0.6847 -0.4588
 2594TIP3    H229198   3.393   4.559  12.387 -0.0461  0.2976  1.7749
 2595TIP3   OH229199   1.652   3.242  15.293 -0.3266 -0.5368  0.3627
 2595TIP3    H129200   1.570   3.231  15.246  0.3426 -0.6460 -0.8305
 2595TIP3    H229201   1.713   3.275  15.228  0.4869 -0.0723  1.3227
 2596TIP3   OH229202   2.474   3.393  14.724  0.0052 -0.6394 -0.6633
 2596TIP3    H129203   2.390   3.368  14.761 -0.7187  0.8022 -1.2644
 2596TIP3    H229204   2.519   3.439  14.795 -1.0392  1.3790 -1.2399
 2597TIP3   OH229205   1.126   0.694  15.189  0.1539 -0.3428  0.7893
 2597TIP3    H129206   1.041   0.739  15.194 -1.1186 -2.3250 -1.0199
 2597TIP3    H229207   1.191   0.763  15.201 -1.6683  2.0213 -1.7223
 2598TIP3   OH229208   5.818   4.540  13.493 -0.2744  0.4964  0.0109
 2598TIP3    H129209   5.901   4.511  13.454 -0.2369  0.1039  0.3792
 2598TIP3    H229210   5.844   4.602  13.562 -0.3238  0.9178 -0.3440
 2599TIP3   OH229211   5.110   2.382  10.726  0.5585  0.3312 -0.4737
 2599TIP3    H129212   5.204   2.399  10.726  0.9664 -1.6215  0.2393
 2599TIP3    H229213   5.097   2.321  10.799 -1.1379 -0.0277 -1.0343
 2600TIP3   OH229214   1.029   2.609   4.012  0.0825 -0.2274  0.0641
 2600TIP3    H129215   1.016   2.647   3.925  1.4066 -1.2802 -0.6366
 2600TIP3    H229216   1.047   2.517   3.994  1.5783 -0.2109  1.3739
 2601TIP3   OH229217   5.331   6.489  16.541 -0.2238 -0.6993  0.3194
 2601TIP3    H129218   5.356   6.531  16.459 -0.7939 -0.7977  0.0904
 2601TIP3    H229219   5.404   6.430  16.561  0.9472  0.9266  1.0491
 2602TIP3   OH229220   4.775   4.719  16.043 -0.3250  0.1861 -0.5291
 2602TIP3    H129221   4.865   4.749  16.054 -0.2486 -0.2939  0.2058
 2602TIP3    H229222   4.778   4.625  16.062 -0.9742  0.1580 -0.5159
 2603TIP3   OH229223   5.609   0.419   0.098  0.1993  0.3297 -0.6993
 2603TIP3    H129224   5.553   0.342   0.105  1.2299 -0.4476 -0.8022
 2603TIP3    H229225   5.698   0.385   0.098  0.9368  1.7171  3.2334
 2604TIP3   OH229226   1.857   3.720   0.853 -0.0091 -0.8541  0.2902
 2604TIP3    H129227   1.943   3.756   0.874  0.6989 -1.2781 -1.6171
 2604TIP3    H229228   1.809   3.793   0.815 -0.2394 -0.7921  0.6982
 2605TIP3   OH229229   5.865   6.123   4.615  0.0222  0.1452  0.2698
 2605TIP3    H129230   5.804   6.194   4.596  0.0320  0.1449  0.2373
 2605TIP3    H229231   5.933   6.164   4.668  1.7186  0.9394 -2.3225
 2606TIP3   OH229232   6.295   5.723   2.618  0.2131 -0.4551 -0.1842
 2606TIP3    H129233   6.200   5.732   2.617  0.1746  0.4478  2.5573
 2606TIP3    H229234   6.328   5.812   2.625  1.1539 -0.8610  0.8451
 2607TIP3   OH229235   4.524   4.473   4.732  0.4286  0.8532  0.0251
 2607TIP3    H129236   4.602   4.506   4.687  1.3508 -0.2842  0.7185
 2607TIP3    H229237   4.558   4.410   4.795 -1.2111 -1.8312 -1.5767
 2608TIP3   OH229238   0.858   3.127   3.836  0.2371 -0.2435  0.0416
 2608TIP3    H129239   0.899   3.041   3.845 -0.3512 -0.4287  1.0835
 2608TIP3    H229240   0.795   3.132   3.908  0.0858  0.9685 -0.1474
 2609TIP3   OH229241   6.526   6.374  16.632 -0.7911 -0.1920  0.1820
 2609TIP3    H129242   6.498   6.355  16.721 -1.3116 -1.4659 -0.2334
 2609TIP3    H229243   6.565   6.292  16.601  1.2779  0.8035 -0.0833
 2610TIP3   OH229244   2.314   5.439   3.583 -0.0820 -0.1758  0.1987
 2610TIP3    H129245   2.317   5.371   3.651  0.1755 -2.0059 -1.5453
 2610TIP3    H229246   2.402   5.476   3.583  0.1105 -0.6272  0.4063
 2611TIP3   OH229247   0.448   3.823  14.306  0.4966  0.5271  0.3694
 2611TIP3    H129248   0.380   3.755  14.311  0.2821  0.8199  3.2178
 2611TIP3    H229249   0.427   3.872  14.227 -0.3570 -1.6537 -0.8477
 2612TIP3   OH229250   3.594   5.569  12.835  0.0067  0.0608  0.4082
 2612TIP3    H129251   3.634   5.651  12.806 -0.9268  0.7477  1.0209
 2612TIP3    H229252   3.569   5.585  12.926  0.6099 -1.2147  0.8309
 2613TIP3   OH229253   6.609   1.562  12.746 -0.2079  0.6385  0.1055
 2613TIP3    H129254   6.627   1.482  12.696  1.2205  0.2415  1.1975
 2613TIP3    H229255   6.514   1.574  12.737 -0.3929 -0.9370 -0.4400
 2614TIP3   OH229256   4.895   3.334  12.863  0.0937 -0.2530  0.3889
 2614TIP3    H129257   4.964   3.293  12.915  0.5781 -0.5403 -0.4508
 2614TIP3    H229258   4.865   3.265  12.804 -0.9231 -0.1248  0.7419
 2615TIP3   OH229259   1.869   4.198   2.859 -0.2133 -0.2998  0.4290
 2615TIP3    H129260   1.913   4.121   2.825 -1.8394 -1.8415  1.6227
 2615TIP3    H229261   1.801   4.218   2.794  1.2116  1.1968 -0.6916
 2616TIP3   OH229262   2.041   2.720  14.540  0.0248 -0.3954 -0.1020
 2616TIP3    H129263   1.972   2.740  14.603 -0.9164 -1.8277 -0.6128
 2616TIP3    H229264   2.098   2.797  14.541 -2.3024  1.4543 -0.6582
 2617TIP3   OH229265   4.406   4.963  15.986 -0.3831  0.0984 -0.0225
 2617TIP3    H129266   4.400   4.877  15.943  0.9456  0.0700 -0.1968
 2617TIP3    H229267   4.472   4.951  16.054  1.1969  1.4314 -1.2447
 2618TIP3   OH229268   6.056   5.813  13.818  0.4285  0.8011  0.0951
 2618TIP3    H129269   5.967   5.844  13.801  0.8489  2.4545  0.6810
 2618TIP3    H229270   6.109   5.850  13.748  0.7007 -0.0238 -0.1472
 2619TIP3   OH229271   5.019   6.078  13.947  0.1845  0.2530  0.0679
 2619TIP3    H129272   5.054   6.055  13.861 -1.4949 -1.2370 -0.2684
 2619TIP3    H229273   4.939   6.126  13.928  0.3475  0.8328  0.8174
 2620TIP3   OH229274   4.047   3.238  13.918  0.5581  0.0009 -0.3314
 2620TIP3    H129275   3.996   3.260  13.840 -0.2304  1.0680  0.4623
 2620TIP3    H229276   4.098   3.162  13.892 -0.1679 -0.0536 -1.6889
 2621TIP3   OH229277   4.573   0.777   1.697 -0.1208 -0.1003  0.4289
 2621TIP3    H129278   4.628   0.760   1.620 -0.9728  0.4221 -0.3282
 2621TIP3    H229279   4.621   0.843   1.746 -0.9129  1.8285 -1.2386
 2622TIP3   OH229280   2.024   6.639  15.127  0.5881 -0.1714 -0.3619
 2622TIP3    H129281   2.000   6.552  15.093  1.6587 -0.2432 -0.9744
 2622TIP3    H229282   2.067   6.683  15.054  1.2120  0.3922  0.3207
 2623TIP3   OH229283   3.836   1.802   6.417  0.4188  0.7354  0.7048
 2623TIP3    H129284   3.752   1.756   6.413  1.1062 -0.8490  2.6316
 2623TIP3    H229285   3.828   1.859   6.494  0.8886  1.0653  0.5131
 2624TIP3   OH229286   1.777   5.305   0.743 -0.1814 -0.1166  0.0464
 2624TIP3    H129287   1.767   5.357   0.823  0.2157 -1.2104  0.8220
 2624TIP3    H229288   1.833   5.359   0.686 -1.5399  1.2557 -0.0486
 2625TIP3   OH229289   2.566   3.159   2.079  0.6373 -0.5280  0.0398
 2625TIP3    H129290   2.535   3.074   2.048  2.9417 -1.5598  0.3838
 2625TIP3    H229291   2.659   3.160   2.058  0.9682  1.3092  1.3544
 2626TIP3   OH229292   1.695   0.876   1.483  0.1333  0.3862  0.9289
 2626TIP3    H129293   1.704   0.936   1.409 -1.1604 -2.1918 -1.5490
 2626TIP3    H229294   1.602   0.878   1.505 -0.2765 -1.6831 -0.2745
 2627TIP3   OH229295   6.584   3.157  11.539 -0.3647 -0.0119 -0.5041
 2627TIP3    H129296   6.622   3.120  11.460  1.0227 -2.0019  1.0041
 2627TIP3    H229297   6.489   3.147  11.527 -0.1525 -0.8144 -1.6626
 2628TIP3   OH229298   6.430   4.747   5.525  0.1651  0.3712  0.2812
 2628TIP3    H129299   6.458   4.824   5.475  2.5875  0.0842  1.0714
 2628TIP3    H229300   6.334   4.750   5.522  0.2064  2.6022 -0.9094
 2629TIP3   OH229301   0.213   3.544  16.697  0.3401 -0.0844  0.1049
 2629TIP3    H129302   0.287   3.483  16.695  0.6679  0.0822  3.1661
 2629TIP3    H229303   0.138   3.490  16.721 -1.0395 -0.5297 -4.2888
 2630TIP3   OH229304   4.620   4.948   2.940 -0.5961 -0.4299 -0.1330
 2630TIP3    H129305   4.548   4.961   2.877 -0.8474  0.5802  0.3508
 2630TIP3    H229306   4.673   5.027   2.934 -0.3694 -0.5151  0.6085
 2631TIP3   OH229307   6.187   5.422  14.363 -0.2830 -0.6173 -0.3820
 2631TIP3    H129308   6.124   5.448  14.295  1.6243  1.0804 -1.5883
 2631TIP3    H229309   6.147   5.450  14.445 -0.9872  0.7202 -1.1486
 2632TIP3   OH229310   1.659   4.094   5.054  0.4561 -0.1695  0.6929
 2632TIP3    H129311   1.745   4.061   5.028 -0.0682 -0.4892 -0.6938
 2632TIP3    H229312   1.648   4.063   5.144  1.1722 -1.3770  0.3905
 2633TIP3   OH229313   5.948   5.806  15.655 -0.0126  0.5452 -0.2918
 2633TIP3    H129314   5.866   5.813  15.704  1.2725  1.0871  1.9109
 2633TIP3    H229315   5.974   5.715  15.665  0.6754  0.8473  0.8147
 2634TIP3   OH229316   3.522   4.423  12.380  0.5745  0.0523  0.3312
 2634TIP3    H129317   3.591   4.455  12.438  0.1174 -0.6501  1.2839
 2634TIP3    H229318   3.568   4.367  12.317  0.9931  0.2947  0.4212
 2635TIP3   OH229319   3.548   6.362  16.342 -0.4068 -0.1808  0.4966
 2635TIP3    H129320   3.590   6.278  16.359  0.4198  0.5881  2.5819
 2635TIP3    H229321   3.620   6.425  16.342 -1.1410  0.6887  0.0749
 2636TIP3   OH229322   4.845   1.452   2.609 -0.1444  0.3608  0.0314
 2636TIP3    H129323   4.815   1.453   2.700 -0.3150  0.9431 -0.0276
 2636TIP3    H229324   4.792   1.384   2.567 -3.4595  3.0946 -0.7303
 2637TIP3   OH229325   1.443   1.925   4.255 -0.3077 -0.1440  0.1386
 2637TIP3    H129326   1.515   1.952   4.198 -0.0197 -1.7474 -0.3111
 2637TIP3    H229327   1.365   1.962   4.215  0.0777  0.1439 -0.3555
 2638TIP3   OH229328   0.591   5.142  11.940  0.4366  0.3287  0.3183
 2638TIP3    H129329   0.552   5.180  11.862  0.1613  0.2292  0.4084
 2638TIP3    H229330   0.520   5.138  12.003  0.1497 -1.4378 -0.0652
 2639TIP3   OH229331   4.407   3.801  16.207  0.1871 -0.8341 -0.6485
 2639TIP3    H129332   4.324   3.769  16.242  0.3292 -0.6408 -0.1231
 2639TIP3    H229333   4.416   3.889  16.244 -0.1080 -0.2468 -1.9167
 2640TIP3   OH229334   6.388   5.993  10.777  0.2659  0.3102 -0.4560
 2640TIP3    H129335   6.432   6.077  10.767 -1.3889  1.2167 -0.3747
 2640TIP3    H229336   6.460   5.929  10.782  1.5308  1.4325 -2.6971
 2641TIP3   OH229337   4.809   5.248   3.785  0.6325 -0.3514  0.5316
 2641TIP3    H129338   4.843   5.217   3.701  0.9125  0.6645  0.2545
 2641TIP3    H229339   4.716   5.263   3.769  0.9139  0.9977  0.0329
 2642TIP3   OH229340   1.707   3.052  16.028  0.1277  0.2115  0.5961
 2642TIP3    H129341   1.763   2.991  16.075  1.6422 -0.0989 -1.4760
 2642TIP3    H229342   1.754   3.136  16.032  0.7083 -0.0014 -0.9651
 2643TIP3   OH229343   4.292   0.735  12.418 -0.3444  0.6243 -0.0785
 2643TIP3    H129344   4.344   0.809  12.447 -0.9196  0.4017  1.5862
 2643TIP3    H229345   4.305   0.668  12.485  0.5163 -0.9862 -1.7452
 2644TIP3   OH229346   1.494   6.038   0.027  0.7838  0.1641 -0.3042
 2644TIP3    H129347   1.523   5.963  -0.024  1.0392 -0.3129  0.5293
 2644TIP3    H229348   1.480   6.107  -0.037  0.8565 -0.5028 -1.0422
 2645TIP3   OH229349   3.228   6.434  11.325  0.2098 -0.2817  0.6138
 2645TIP3    H129350   3.153   6.461  11.378  0.3498  1.7979 -0.1920
 2645TIP3    H229351   3.291   6.402  11.390 -1.0144 -1.2910  1.3681
 2646TIP3   OH229352   2.689   2.488   4.226  0.4823  0.4856  0.5669
 2646TIP3    H129353   2.600   2.524   4.225 -0.0995 -0.5736  3.6324
 2646TIP3    H229354   2.710   2.475   4.133 -2.5451  0.7600 -0.2756
 2647TIP3   OH229355   5.994   4.888  17.093 -0.2610 -0.8015 -0.3531
 2647TIP3    H129356   5.924   4.850  17.039 -0.5670  0.2499 -0.7119
 2647TIP3    H229357   5.965   4.977  17.111  0.3506 -0.7910  0.6622
 2648TIP3   OH229358   2.600   5.902   5.037 -0.2562 -0.4490 -0.8508
 2648TIP3    H129359   2.519   5.881   5.083 -0.1829 -1.4191 -1.1561
 2648TIP3    H229360   2.573   5.961   4.967 -0.6564 -0.5293 -0.7662
 2649TIP3   OH229361   2.952   6.517  16.124  0.0207 -0.3597  0.2235
 2649TIP3    H129362   2.889   6.496  16.193  0.3014 -0.2924  0.5014
 2649TIP3    H229363   3.011   6.581  16.164  1.0226 -1.3619  0.3850
 2650TIP3   OH229364   1.028   6.151   2.789  0.4063 -0.2713  0.2078
 2650TIP3    H129365   0.933   6.152   2.774  0.3972 -0.2325  0.2688
 2650TIP3    H229366   1.052   6.243   2.803  0.1638 -0.4329  1.9752
 2651TIP3   OH229367   1.538   2.902  17.004 -0.0574  0.3272  0.4443
 2651TIP3    H129368   1.460   2.943  16.966 -0.6066 -0.3417  0.8343
 2651TIP3    H229369   1.524   2.908  17.099  0.3103  0.0761  0.5161
 2652TIP3   OH229370   1.804   0.574   2.849 -0.7295 -0.6685 -0.2967
 2652TIP3    H129371   1.827   0.646   2.908 -2.7824 -0.3397  0.1945
 2652TIP3    H229372   1.807   0.496   2.905  1.4476 -1.0275 -0.8178
 2653TIP3   OH229373   0.028   0.288   3.010  0.0588  0.1627 -0.0547
 2653TIP3    H129374   0.105   0.281   3.066 -0.0144 -1.0850 -0.1029
 2653TIP3    H229375  -0.046   0.270   3.067 -0.0826 -0.2448 -0.3649
 2654TIP3   OH229376   4.649   4.019   4.547 -0.0092  0.3783  0.1252
 2654TIP3    H129377   4.666   3.992   4.637  1.0140  0.9065  0.1024
 2654TIP3    H229378   4.735   4.042   4.512 -0.2164 -0.9951 -1.3850
 2655TIP3   OH229379   0.016   6.380   5.625 -0.4754  0.1547  0.0579
 2655TIP3    H129380   0.025   6.408   5.717 -0.3889  1.3052 -0.2809
 2655TIP3    H229381   0.010   6.462   5.576 -0.3442 -0.4476 -0.9905
 2656TIP3   OH229382   3.283   0.296   4.485  0.4308  0.0341  1.0039
 2656TIP3    H129383   3.362   0.247   4.508 -0.2869 -1.4162  0.5291
 2656TIP3    H229384   3.211   0.248   4.526 -0.4394 -0.1501 -0.6365
 2657TIP3   OH229385   4.714   0.835  15.337 -0.1496 -0.1119 -0.2878
 2657TIP3    H129386   4.782   0.831  15.404 -0.0770  0.1187 -0.3471
 2657TIP3    H229387   4.637   0.797  15.379 -0.8755  2.4057  0.8510
 2658TIP3   OH229388   4.385   0.409   3.651 -0.0128 -0.6955 -0.3122
 2658TIP3    H129389   4.440   0.480   3.620 -1.0740  1.0020  1.4427
 2658TIP3    H229390   4.303   0.452   3.677 -1.1903 -2.7537 -0.3913
 2659TIP3   OH229391   6.004   2.523   5.360 -0.5345  0.2739  0.6558
 2659TIP3    H129392   5.987   2.616   5.342 -1.3345  0.1547  0.7736
 2659TIP3    H229393   6.019   2.520   5.455  0.8918  0.4799  0.4634
 2660TIP3   OH229394   4.889   5.244  14.311 -0.1456  0.3215 -0.2451
 2660TIP3    H129395   4.962   5.301  14.287  0.4704  0.6554  2.1858
 2660TIP3    H229396   4.845   5.289  14.383 -0.7321 -1.4226  0.5451
 2661TIP3   OH229397   0.198   5.240  10.564 -0.2380  0.1209 -0.2458
 2661TIP3    H129398   0.131   5.234  10.632 -0.4743 -1.6850 -0.5975
 2661TIP3    H229399   0.252   5.162  10.577  0.9369  0.8009 -0.8825
 2662TIP3   OH229400   3.783   4.787   1.954 -0.2982  0.2430 -0.0434
 2662TIP3    H129401   3.850   4.801   1.887 -0.2514 -1.5460 -0.4290
 2662TIP3    H229402   3.833   4.768   2.033 -0.3094 -1.2507 -0.3675
 2663TIP3   OH229403   0.068   4.677  12.211  0.0202 -0.0092 -0.4610
 2663TIP3    H129404   0.160   4.671  12.239 -0.0796  2.3824  0.6733
 2663TIP3    H229405   0.020   4.624  12.274  0.5055 -0.5058 -0.4957
 2664TIP3   OH229406   5.250   5.138   3.862  0.0809 -0.5313 -0.2159
 2664TIP3    H129407   5.226   5.139   3.769 -0.5236 -0.7475 -0.0650
 2664TIP3    H229408   5.340   5.171   3.863 -0.0025 -0.2601 -0.8485
 2665TIP3   OH229409   2.639   3.082  15.597  0.3191  0.7509  0.1382
 2665TIP3    H129410   2.678   3.157  15.552 -1.0094  1.2794 -0.1763
 2665TIP3    H229411   2.619   3.020  15.527 -0.0114  0.7677  0.2168
 2666TIP3   OH229412   5.701   5.727  14.388 -0.0930  0.5709 -0.4376
 2666TIP3    H129413   5.765   5.739  14.318 -0.6861  1.1178 -0.8998
 2666TIP3    H229414   5.730   5.785  14.458 -0.6512  1.6322 -1.0571
 2667TIP3   OH229415   3.522   4.867   4.024 -0.4958 -0.0055 -0.3845
 2667TIP3    H129416   3.566   4.932   3.969  0.7849  0.1884  0.8149
 2667TIP3    H229417   3.512   4.910   4.109  0.5766 -1.4049  0.5084
 2668TIP3   OH229418   2.357   0.308   3.105 -0.5268 -0.0981  0.5099
 2668TIP3    H129419   2.400   0.345   3.028 -0.5863  1.3731  1.1510
 2668TIP3    H229420   2.305   0.235   3.070 -0.7324  0.6776 -0.8880
 2669TIP3   OH229421   2.708   4.141   0.373  0.1710 -0.7028  0.1467
 2669TIP3    H129422   2.780   4.083   0.347 -0.3755 -1.1520 -0.3901
 2669TIP3    H229423   2.687   4.190   0.293  0.7939  0.4343  0.6573
 2670TIP3   OH229424   3.428   3.015  10.947 -0.1454 -1.4890 -0.5401
 2670TIP3    H129425   3.390   3.004  10.860  0.3065  0.7176 -1.0780
 2670TIP3    H229426   3.462   2.928  10.969  0.1502 -2.0023 -2.7508
 2671TIP3   OH229427   3.582   4.597  12.119  0.2746  0.3178 -0.3639
 2671TIP3    H129428   3.528   4.518  12.117 -0.7802  1.0315 -0.9527
 2671TIP3    H229429   3.616   4.601  12.208  0.7645 -1.0564 -0.4529
 2672TIP3   OH229430   1.032   1.791  11.009  0.1482  0.2020 -0.2634
 2672TIP3    H129431   0.979   1.842  11.070  1.2334 -0.2514  1.1248
 2672TIP3    H229432   1.041   1.847  10.932  0.3334  1.6433  0.7577
 2673TIP3   OH229433   4.015   1.230  11.847 -0.1022  0.3246  0.2615
 2673TIP3    H129434   3.927   1.267  11.851  0.7395  2.4055  0.4005
 2673TIP3    H229435   4.052   1.245  11.933  0.7483  0.3647 -0.1013
 2674TIP3   OH229436   2.974   5.315   1.211  0.2228  0.2013 -0.3087
 2674TIP3    H129437   2.922   5.308   1.291  1.4400  1.0167  0.5828
 2674TIP3    H229438   3.064   5.303   1.239  0.5859 -0.8395 -1.7735
 2675TIP3   OH229439   4.260   3.674  13.507 -0.1970  0.2230  0.1898
 2675TIP3    H129440   4.312   3.627  13.573 -0.3976 -1.9205 -1.0902
 2675TIP3    H229441   4.170   3.653  13.530 -0.3300  0.6562  0.0631
 2676TIP3   OH229442   4.419   2.926  17.240  0.4668 -0.3932  0.3848
 2676TIP3    H129443   4.430   2.831  17.233 -1.4991 -0.6060 -0.3841
 2676TIP3    H229444   4.503   2.962  17.213  0.5372 -1.8807 -1.5445
 2677TIP3   OH229445   2.748   4.503  12.292  0.2322  0.2631 -0.1445
 2677TIP3    H129446   2.695   4.472  12.219  0.9209  0.0221 -0.5508
 2677TIP3    H229447   2.695   4.571  12.334  0.2524  1.1751 -1.5164
 2678TIP3   OH229448   1.685   4.598  12.092 -0.0678 -0.1574  0.0126
 2678TIP3    H129449   1.623   4.661  12.131  0.1489  0.1676 -0.1638
 2678TIP3    H229450   1.647   4.577  12.007 -0.3291 -0.5495  0.2245
 2679TIP3   OH229451   4.955   0.328   5.064 -0.1003 -0.2856 -0.7703
 2679TIP3    H129452   5.001   0.379   4.997 -0.6735  0.0320 -0.9300
 2679TIP3    H229453   4.974   0.375   5.146  2.7487 -2.0948 -0.2467
 2680TIP3   OH229454   0.437   2.113   0.670  0.5142  0.1773  0.5392
 2680TIP3    H129455   0.446   2.103   0.765  1.7267 -0.8513  0.3524
 2680TIP3    H229456   0.348   2.082   0.651 -0.1273  1.3726  1.4255
 2681TIP3   OH229457   2.744   1.124   4.187  0.3566 -0.5346  0.2482
 2681TIP3    H129458   2.837   1.112   4.174 -0.1454 -2.0050 -2.7655
 2681TIP3    H229459   2.735   1.216   4.214  2.6052 -0.2813  0.2973
 2682TIP3   OH229460   1.876   4.690   5.627 -0.3463  0.1998  0.6299
 2682TIP3    H129461   1.820   4.751   5.675  0.5162  2.9414 -1.6322
 2682TIP3    H229462   1.816   4.638   5.574 -0.9689  0.1592  1.3527
 2683TIP3   OH229463   5.493   0.998  14.562 -0.5216  0.4306  0.0286
 2683TIP3    H129464   5.541   0.928  14.607  0.4756  1.1694  0.1394
 2683TIP3    H229465   5.401   0.978  14.580 -0.1705  0.5481  2.1967
 2684TIP3   OH229466   4.406   1.517   1.239 -0.3072 -0.0315 -0.1856
 2684TIP3    H129467   4.359   1.464   1.303 -1.3662  1.2867  0.1763
 2684TIP3    H229468   4.413   1.461   1.162 -1.0009 -0.8544  0.3368
 2685TIP3   OH229469   4.179   2.390   4.437 -0.1912 -0.3557 -0.0341
 2685TIP3    H129470   4.186   2.335   4.514  0.4190 -1.5983 -0.9519
 2685TIP3    H229471   4.108   2.351   4.386 -0.2284  0.1377 -0.3703
 2686TIP3   OH229472   1.565   1.864  13.619 -0.1447 -0.6390  0.0924
 2686TIP3    H129473   1.483   1.862  13.570 -0.4156  0.1011  0.5074
 2686TIP3    H229474   1.631   1.835  13.555 -0.6190 -0.5254 -0.4615
 2687TIP3   OH229475   3.682   3.524   6.437 -0.4202  0.0595 -0.5952
 2687TIP3    H129476   3.769   3.485   6.437 -0.4440 -0.1681  2.1268
 2687TIP3    H229477   3.694   3.608   6.482 -1.8910 -0.8746  1.6949
 2688TIP3   OH229478   5.858   5.716  14.977  0.5023 -0.4388  0.7033
 2688TIP3    H129479   5.783   5.702  14.918  0.4023 -0.4982  0.8434
 2688TIP3    H229480   5.912   5.780  14.931 -1.1998  2.1009  1.9929
 2689TIP3   OH229481   4.504   0.536  15.983 -0.4778  0.2443  0.4214
 2689TIP3    H129482   4.591   0.520  16.020 -0.6513 -0.6530  0.4605
 2689TIP3    H229483   4.488   0.461  15.926  0.3957  2.1992 -2.6776
 2690TIP3   OH229484   0.291   0.257  14.649 -0.0837 -0.2920  0.0447
 2690TIP3    H129485   0.311   0.249  14.556  0.9026  0.5474  0.1707
 2690TIP3    H229486   0.251   0.343  14.658 -2.7421 -1.4151  0.0068
 2691TIP3   OH229487   5.753   2.245  13.274  0.2374 -0.3217 -0.1617
 2691TIP3    H129488   5.830   2.192  13.253 -0.0854 -0.7359 -0.3074
 2691TIP3    H229489   5.707   2.255  13.191 -0.7254 -1.4662  0.2050
 2692TIP3   OH229490   5.238   4.933  14.559  0.2196 -0.1364 -0.8608
 2692TIP3    H129491   5.289   4.889  14.490 -0.0582 -3.4837  0.8803
 2692TIP3    H229492   5.298   4.939  14.633 -0.6530 -0.2488 -0.1328
 2693TIP3   OH229493   4.919   2.928   4.404 -0.5853 -0.0070 -0.1586
 2693TIP3    H129494   4.972   3.008   4.407  0.6261 -0.7845  0.0921
 2693TIP3    H229495   4.979   2.862   4.368 -1.6286 -0.7550 -0.5581
 2694TIP3   OH229496   0.730   2.326  11.271 -0.2377 -0.1827 -0.2634
 2694TIP3    H129497   0.758   2.250  11.220  3.6012  0.5002  0.4865
 2694TIP3    H229498   0.718   2.291  11.360  0.1481 -0.1668 -0.2029
 2695TIP3   OH229499   6.549   2.834  16.118 -0.0476  0.4609  0.1399
 2695TIP3    H129500   6.585   2.920  16.138  0.2872  0.4856 -0.5463
 2695TIP3    H229501   6.622   2.785  16.081 -0.0885 -0.3220  1.0743
 2696TIP3   OH229502   6.154   6.405   2.076 -0.4998  0.0991 -0.1690
 2696TIP3    H129503   6.083   6.361   2.030 -0.8755 -1.9591  2.1835
 2696TIP3    H229504   6.234   6.366   2.040 -0.4880  1.7905 -2.1885
 2697TIP3   OH229505   0.762   6.347  11.662  0.2241  0.1217 -0.0325
 2697TIP3    H129506   0.787   6.431  11.623  0.3487 -0.9985 -2.5894
 2697TIP3    H229507   0.670   6.335  11.636  0.3123 -0.6699 -0.0020
 2698TIP3   OH229508   4.431   4.281   1.039  0.0081  0.1059 -0.0652
 2698TIP3    H129509   4.378   4.360   1.049  0.1990  0.1504  0.6885
 2698TIP3    H229510   4.387   4.215   1.093  0.9609  0.2764  0.9685
 2699TIP3   OH229511   5.773   2.453   5.142  0.1105 -0.1325  0.6984
 2699TIP3    H129512   5.774   2.545   5.167 -0.9766 -0.1748  0.9406
 2699TIP3    H229513   5.803   2.453   5.050  0.1593  0.4460  0.7124
 2700TIP3   OH229514   1.897   5.371   3.644 -0.0144 -0.4539  0.0283
 2700TIP3    H129515   1.901   5.278   3.623  1.1844 -0.4613  0.2431
 2700TIP3    H229516   1.817   5.381   3.696 -0.7723 -1.1530 -0.9667
 2701TIP3   OH229517   5.223   5.653   2.115 -0.1287  0.2615 -0.1504
 2701TIP3    H129518   5.234   5.568   2.072 -0.7559  0.7642 -1.3571
 2701TIP3    H229519   5.129   5.672   2.107  0.3874  2.3404 -2.4519
 2702TIP3   OH229520   4.127   6.286   2.164 -0.2085 -0.5323  0.0414
 2702TIP3    H129521   4.100   6.237   2.086  1.2990 -1.8469  0.2865
 2702TIP3    H229522   4.181   6.357   2.130 -0.5339 -0.3932 -0.1851
 2703TIP3   OH229523   0.181   0.016   4.856 -0.0677 -0.0451  0.5269
 2703TIP3    H129524   0.092  -0.003   4.827 -0.3658  2.1892 -0.2613
 2703TIP3    H229525   0.228   0.039   4.776  1.4363 -1.8224  0.8467
 2704TIP3   OH229526   4.684   2.138  16.392 -0.0033  0.2698  0.2341
 2704TIP3    H129527   4.614   2.097  16.442  1.1716 -1.4479  0.5857
 2704TIP3    H229528   4.736   2.064  16.358  2.2336  1.4430  0.8800
 2705TIP3   OH229529   3.669   2.608  14.189 -0.5742  0.2915 -0.2536
 2705TIP3    H129530   3.751   2.654  14.210 -1.5977  1.5784  1.0959
 2705TIP3    H229531   3.688   2.562  14.107  1.8209 -0.2781  0.5409
 2706TIP3   OH229532   2.530   5.531   5.071 -0.2749  0.9169  0.2580
 2706TIP3    H129533   2.484   5.448   5.057  0.9046  0.4176 -0.7747
 2706TIP3    H229534   2.545   5.534   5.166 -0.8355  0.2382  0.3754
 2707TIP3   OH229535   4.311   3.333   4.552 -0.0128 -0.0408  0.8807
 2707TIP3    H129536   4.356   3.418   4.560 -2.0820  1.2308 -0.1714
 2707TIP3    H229537   4.226   3.355   4.513 -0.2521 -2.7336 -0.2831
 2708TIP3   OH229538   5.047   0.463  12.425 -0.0174 -0.0140 -0.3305
 2708TIP3    H129539   5.066   0.377  12.462  1.9978 -0.1972 -1.6272
 2708TIP3    H229540   5.005   0.444  12.341 -2.5508  0.3698  0.7598
 2709TIP3   OH229541   3.682   5.601   5.931 -0.2190  0.3808  0.6455
 2709TIP3    H129542   3.706   5.624   5.842 -1.5763 -0.3566  0.0665
 2709TIP3    H229543   3.587   5.612   5.935 -0.1177  0.9568  2.1739
 2710TIP3   OH229544   1.404   1.070  16.405  0.2501  0.4028 -0.3865
 2710TIP3    H129545   1.399   1.162  16.427  1.3561  0.4846 -0.4455
 2710TIP3    H229546   1.497   1.051  16.397  0.1859 -1.2395  1.8080
 2711TIP3   OH229547   2.205   6.426  14.887 -0.1820 -0.4063 -0.1951
 2711TIP3    H129548   2.167   6.344  14.919 -1.9382  1.1550  2.1189
 2711TIP3    H229549   2.299   6.418  14.906 -0.2339 -2.0251 -0.4640
 2712TIP3   OH229550   2.291   3.949   3.155 -0.2606 -0.4169 -0.6539
 2712TIP3    H129551   2.305   4.043   3.165  0.4819 -0.4436 -1.3210
 2712TIP3    H229552   2.292   3.915   3.245  1.4507 -0.0374 -0.4825
 2713TIP3   OH229553   2.453   4.788   5.641 -0.0133  0.4570  0.2999
 2713TIP3    H129554   2.516   4.860   5.647 -1.0929  1.3505  1.3954
 2713TIP3    H229555   2.372   4.829   5.611 -1.5247  0.3447  3.7580
 2714TIP3   OH229556   1.925   0.462   4.280  0.8244  0.1818  0.3237
 2714TIP3    H129557   1.924   0.392   4.345 -2.9420  2.0324  2.6084
 2714TIP3    H229558   1.839   0.457   4.238  0.6655  2.9429  0.1168
 2715TIP3   OH229559   2.849   5.122   2.087  0.0057  0.2064  0.0503
 2715TIP3    H129560   2.904   5.154   2.015 -0.1924 -0.8524 -0.5987
 2715TIP3    H229561   2.855   5.190   2.154  0.6321  0.9657 -0.7488
 2716TIP3   OH229562   5.230   3.372   2.863 -0.1429 -0.1533 -0.6880
 2716TIP3    H129563   5.324   3.381   2.844  0.5776  0.8828  2.7734
 2716TIP3    H229564   5.223   3.291   2.913 -1.3626 -0.8939 -1.9810
 2717TIP3   OH229565   5.692   4.469   3.383  0.1574 -0.1194 -0.0549
 2717TIP3    H129566   5.725   4.487   3.295  1.5430  1.4904  0.7280
 2717TIP3    H229567   5.767   4.433   3.430 -0.6019 -1.0682  0.4624
 2718TIP3   OH229568   3.139   6.662   6.570  0.2086  0.0268  0.2641
 2718TIP3    H129569   3.137   6.602   6.645  0.0860  0.3851  0.5561
 2718TIP3    H229570   3.046   6.683   6.554  0.2512  0.1483  0.1757
 2719TIP3   OH229571   2.013   1.633  12.528 -0.2269  0.1760  0.7886
 2719TIP3    H129572   2.083   1.572  12.504 -0.1359  0.5455  0.0754
 2719TIP3    H229573   1.937   1.602  12.480 -0.2008  0.5749  0.4862
 2720TIP3   OH229574   0.808   1.084  15.033 -0.3395  0.6072 -0.4645
 2720TIP3    H129575   0.833   0.991  15.029 -1.8136  0.1896 -0.5937
 2720TIP3    H229576   0.724   1.088  14.988  0.0748  2.1707 -1.1567
 2721TIP3   OH229577   6.720   2.861   0.195  0.3157 -0.5470 -0.1718
 2721TIP3    H129578   6.790   2.871   0.130  0.5229  0.1879  0.1561
 2721TIP3    H229579   6.727   2.770   0.224  1.1066 -0.4865 -0.1680
 2722TIP3   OH229580   6.127   2.558   5.856 -0.1584  0.2807  0.3385
 2722TIP3    H129581   6.202   2.617   5.858  2.0615 -2.3708  1.4278
 2722TIP3    H229582   6.118   2.527   5.946 -0.0684 -2.3153 -0.4767
 2723TIP3   OH229583   1.301   4.874   2.568 -0.3543  0.4991  0.4238
 2723TIP3    H129584   1.295   4.940   2.500  0.0994  1.7280  1.5432
 2723TIP3    H229585   1.212   4.864   2.600 -0.0833  2.6010  2.0722
 2724TIP3   OH229586   6.408   2.548  14.909  0.7660  0.2567 -0.0726
 2724TIP3    H129587   6.362   2.614  14.960  1.4642  1.1646 -0.5914
 2724TIP3    H229588   6.395   2.576  14.818 -2.4009 -2.5289 -0.6729
 2725TIP3   OH229589   2.416   2.885  17.063 -0.4919  0.2007 -0.2615
 2725TIP3    H129590   2.328   2.890  17.103 -1.0183  0.7194 -1.4448
 2725TIP3    H229591   2.425   2.793  17.038 -1.0997  0.3242 -0.9802
 2726TIP3   OH229592   2.893   2.751   4.873  0.5221  0.5325 -0.4608
 2726TIP3    H129593   2.977   2.741   4.918 -1.0918  0.9753  2.9955
 2726TIP3    H229594   2.911   2.728   4.782  3.9117 -1.3617  0.5364
 2727TIP3   OH229595   2.139   6.584  16.650 -0.1297 -0.2875  0.2600
 2727TIP3    H129596   2.223   6.573  16.695 -1.0373 -0.6238  1.9797
 2727TIP3    H229597   2.120   6.498  16.613  0.6344 -0.0048 -0.8352
 2728TIP3   OH229598   0.680   1.942  15.609 -0.4616  0.1933 -0.8664
 2728TIP3    H129599   0.694   1.931  15.515 -0.2294  0.5077 -0.8731
 2728TIP3    H229600   0.732   2.019  15.631 -0.5042  0.1104 -0.4767
 2729TIP3   OH229601   0.959   2.043  11.148 -0.2795 -0.2486  0.0090
 2729TIP3    H129602   0.867   2.028  11.171 -0.2497 -1.8956 -0.7605
 2729TIP3    H229603   0.955   2.089  11.064 -0.3669  3.1526  1.7401
 2730TIP3   OH229604   1.847   1.514   3.804 -0.4684 -0.1121 -0.3828
 2730TIP3    H129605   1.893   1.589   3.766 -2.4932  0.2343 -2.3448
 2730TIP3    H229606   1.905   1.439   3.785  0.4568  0.6129 -0.5002
 2731TIP3   OH229607   4.391   4.801  14.004 -0.2707  0.4226  1.1494
 2731TIP3    H129608   4.467   4.825  13.951  0.3607  2.1188  2.7171
 2731TIP3    H229609   4.421   4.810  14.095 -1.0646 -3.1213  1.9205
 2732TIP3   OH229610   4.160   4.072   4.244  0.1208 -0.1011  0.0335
 2732TIP3    H129611   4.251   4.052   4.221  0.6126  0.6599  1.2576
 2732TIP3    H229612   4.121   3.987   4.263  1.4873 -0.2516  2.6679
 2733TIP3   OH229613   3.891   4.060   5.807 -0.3033 -0.2277 -0.2793
 2733TIP3    H129614   3.941   4.142   5.806 -1.4190  0.4727  0.2615
 2733TIP3    H229615   3.916   4.018   5.890  0.4580 -0.5785 -0.6701
 2734TIP3   OH229616   0.556   5.400   2.430  0.2314  0.2989  0.4651
 2734TIP3    H129617   0.464   5.424   2.422  0.3023  0.7088  0.8366
 2734TIP3    H229618   0.566   5.324   2.373 -0.4413 -0.0250  0.7656
 2735TIP3   OH229619   3.953   2.471  16.364 -0.8200  0.0448 -0.1321
 2735TIP3    H129620   3.951   2.409  16.291 -2.9864 -0.2030  0.0746
 2735TIP3    H229621   3.948   2.417  16.442  0.6238  0.3532  0.1917
 2736TIP3   OH229622   0.848   6.662  16.787 -0.4130  0.1909 -0.0132
 2736TIP3    H129623   0.897   6.585  16.757  0.5270  1.3819 -1.6676
 2736TIP3    H229624   0.800   6.692  16.710 -1.4026  0.8134  0.8153
 2737TIP3   OH229625   4.896   1.635   3.418  0.9510  0.6789 -0.3883
 2737TIP3    H129626   4.822   1.575   3.409  0.8402  0.9944 -1.7781
 2737TIP3    H229627   4.973   1.581   3.402  0.8345  0.9283 -1.9578
 2738TIP3   OH229628   5.639   5.671   4.149 -0.4294  0.3317  0.6420
 2738TIP3    H129629   5.718   5.628   4.115  0.2383  0.7716  1.5763
 2738TIP3    H229630   5.651   5.669   4.244 -2.0852 -0.5912  0.8637
 2739TIP3   OH229631   5.549   5.102  12.515  0.4014 -0.0938 -0.0022
 2739TIP3    H129632   5.572   5.154  12.592  1.7466 -0.0744 -0.3958
 2739TIP3    H229633   5.626   5.049  12.498 -1.0207 -2.5250  0.5788
 2740TIP3   OH229634   3.756   2.182  15.468  0.3623 -0.1459 -0.0474
 2740TIP3    H129635   3.693   2.216  15.531  0.3159  2.5183 -1.3611
 2740TIP3    H229636   3.840   2.185  15.513  0.1222  0.3650  0.3751
 2741TIP3   OH229637   2.027   5.787   1.829  0.2503  0.6006  0.2344
 2741TIP3    H129638   2.020   5.806   1.736 -1.6100 -1.7434 -0.1919
 2741TIP3    H229639   2.109   5.739   1.838 -0.0386 -0.0334 -0.4034
 2742TIP3   OH229640   3.081   5.461   3.807  0.0806 -0.2537 -0.0049
 2742TIP3    H129641   3.011   5.428   3.751  1.2752 -0.5290 -1.3960
 2742TIP3    H229642   3.097   5.391   3.870 -0.1353 -0.6492 -0.3863
 2743TIP3   OH229643   4.970   1.695   0.122 -0.1624 -0.1620 -0.2876
 2743TIP3    H129644   4.876   1.684   0.111 -0.1230  1.4096 -3.0482
 2743TIP3    H229645   4.982   1.788   0.142  0.8719 -0.0435 -1.3560
 2744TIP3   OH229646   0.193   0.346  15.517  0.6221 -0.1075  0.1063
 2744TIP3    H129647   0.112   0.294  15.522 -0.1513  1.0674  0.2412
 2744TIP3    H229648   0.184   0.397  15.437  1.0460  0.3292  0.3329
 2745TIP3   OH229649   1.127   2.220  11.377  0.2859 -0.4722  0.0499
 2745TIP3    H129650   1.122   2.315  11.390  0.0908 -0.3700 -0.7274
 2745TIP3    H229651   1.180   2.189  11.451  1.4410  0.3991 -0.3817
 2746TIP3   OH229652   5.985   6.291   1.269  0.0991  0.3136  0.6375
 2746TIP3    H129653   5.944   6.374   1.295 -0.1562  0.4279 -0.1145
 2746TIP3    H229654   5.927   6.224   1.304 -0.9514  0.4752 -0.7255
 2747TIP3   OH229655   4.888   3.025   1.353 -0.2050  0.4380 -0.0467
 2747TIP3    H129656   4.905   3.012   1.259  0.0748  0.3322  0.0181
 2747TIP3    H229657   4.795   3.045   1.357 -0.1386  0.8273 -0.3852
 2748TIP3   OH229658   2.601   1.484  17.068  0.1301 -0.1760  0.2852
 2748TIP3    H129659   2.648   1.460  17.148 -0.4975 -1.1480  0.3726
 2748TIP3    H229660   2.664   1.467  16.997  0.1535 -0.8277  0.4543
 2749TIP3   OH229661   0.600   3.027  15.032 -0.0642 -0.2363  0.1322
 2749TIP3    H129662   0.559   3.108  15.062  1.3763  0.2980  0.7603
 2749TIP3    H229663   0.662   3.005  15.102  1.8757 -0.1087 -1.4808
 2750TIP3   OH229664   4.434   3.232  15.448 -0.2541 -0.1991  0.7000
 2750TIP3    H129665   4.421   3.325  15.432  2.5239  0.2316  0.4680
 2750TIP3    H229666   4.427   3.192  15.361  2.7673  0.4637  0.0495
 2751TIP3   OH229667   1.412   1.428   0.180 -0.1602 -0.0993  0.2230
 2751TIP3    H129668   1.445   1.518   0.177  0.9175 -0.4709  0.5475
 2751TIP3    H229669   1.421   1.397   0.090 -0.3629  0.0552  0.1480
 2752TIP3   OH229670   0.846   4.461   2.453 -0.1444  0.0960 -0.0995
 2752TIP3    H129671   0.901   4.539   2.462 -0.9981  0.9089 -1.5398
 2752TIP3    H229672   0.902   4.396   2.410  0.4237  0.0644  0.6710
 2753TIP3   OH229673   0.186   5.817  17.268  0.2651 -0.1519  0.0265
 2753TIP3    H129674   0.143   5.739  17.304  2.2763 -0.6346  1.5563
 2753TIP3    H229675   0.187   5.802  17.174 -0.7528 -1.2402  0.1642
 2754TIP3   OH229676   5.338   1.620   1.264  0.4358  0.1730 -0.2463
 2754TIP3    H129677   5.400   1.668   1.209  1.9629 -2.1870 -0.7680
 2754TIP3    H229678   5.325   1.537   1.218 -2.1341  0.0538  0.5497
 2755TIP3   OH229679   1.301   0.604   3.643  0.0736 -0.0833 -0.2569
 2755TIP3    H129680   1.317   0.599   3.549 -0.4166 -1.5593 -0.2871
 2755TIP3    H229681   1.318   0.516   3.675 -0.6854  0.1599  0.8811
 2756TIP3   OH229682   2.741   4.022  12.151 -0.1729  0.2141 -0.7003
 2756TIP3    H129683   2.790   3.953  12.107 -1.5829 -0.4496 -1.2894
 2756TIP3    H229684   2.661   4.033  12.099 -0.4931  1.5118  0.0098
 2757TIP3   OH229685   6.208   1.857   1.685  0.4660  0.5409 -0.2044
 2757TIP3    H129686   6.172   1.807   1.758  2.0855  0.5461  0.6401
 2757TIP3    H229687   6.155   1.831   1.610 -0.0497 -0.8658  0.6125
 2758TIP3   OH229688   2.447   1.175  15.964  0.2767  0.3652 -0.9137
 2758TIP3    H129689   2.488   1.109  16.020  1.4870  0.4259 -1.6836
 2758TIP3    H229690   2.370   1.204  16.013  0.5446 -0.5545  0.0931
 2759TIP3   OH229691   4.289   2.026   1.232 -0.7519 -0.1856  0.2699
 2759TIP3    H129692   4.267   2.000   1.142  0.5237 -1.6294  0.3133
 2759TIP3    H229693   4.205   2.047   1.273 -1.3276  0.8215 -1.3320
 2760TIP3   OH229694   1.230   6.476   0.637  0.6736 -0.0619  0.7158
 2760TIP3    H129695   1.171   6.517   0.573  1.3495  0.7605  0.5961
 2760TIP3    H229696   1.174   6.459   0.713 -0.0065 -0.5086  0.1232
 2761TIP3   OH229697   3.489   4.523  11.575 -0.6454  0.7154  0.2577
 2761TIP3    H129698   3.475   4.532  11.670 -1.5464 -2.1657  0.5035
 2761TIP3    H229699   3.533   4.438  11.566  1.7976  2.0736 -1.8010
 2762TIP3   OH229700   0.966   1.280  13.559 -0.4539 -0.0971  0.5335
 2762TIP3    H129701   0.928   1.366  13.545 -0.0648 -0.0706 -0.4373
 2762TIP3    H229702   1.030   1.270  13.489 -1.4022 -1.6995 -0.1627
 2763TIP3   OH229703   2.334   1.694   3.290  0.6669  0.4836 -0.7337
 2763TIP3    H129704   2.309   1.687   3.198  0.1225  0.0876 -0.5617
 2763TIP3    H229705   2.394   1.769   3.293  2.6293 -0.9542 -1.8196
 2764TIP3   OH229706   4.206   6.519   4.510 -0.3371  0.0690 -0.6708
 2764TIP3    H129707   4.235   6.592   4.455  0.6069 -0.6105 -1.1000
 2764TIP3    H229708   4.121   6.494   4.473 -0.9158  1.2539 -0.2049
 2765TIP3   OH229709   3.121   0.920  11.284  0.7727 -0.4246 -0.1263
 2765TIP3    H129710   3.059   0.994  11.291  1.4152  0.0577  0.7043
 2765TIP3    H229711   3.206   0.961  11.268  1.1013 -1.0000  0.1189
 2766TIP3   OH229712   0.535   1.376  15.884 -0.1283  0.4231 -0.7404
 2766TIP3    H129713   0.595   1.304  15.871  2.3628  2.2110  0.1569
 2766TIP3    H229714   0.550   1.434  15.809  1.5691  2.3337  0.9671
 2767TIP3   OH229715   5.837   6.520  15.689 -0.1349  0.0011 -0.7466
 2767TIP3    H129716   5.873   6.465  15.620  0.9585  1.5296 -1.4525
 2767TIP3    H229717   5.748   6.541  15.659 -0.5894 -1.3956 -0.4305
 2768TIP3   OH229718   3.045   0.065  14.571 -0.3394  0.0450 -0.8414
 2768TIP3    H129719   3.018  -0.026  14.561 -0.9619  0.2742 -1.2842
 2768TIP3    H229720   3.075   0.091  14.484 -1.6050  0.7157 -1.0966
 2769TIP3   OH229721   4.018   3.074   5.978 -0.4921  0.2961 -0.4492
 2769TIP3    H129722   3.954   3.139   6.008 -0.4857  0.4231 -0.7120
 2769TIP3    H229723   4.013   3.077   5.883 -1.1907 -0.7821 -0.4574
 2770TIP3   OH229724   1.852   3.319  16.087  0.1996  0.5312 -0.5233
 2770TIP3    H129725   1.881   3.409  16.071  1.4105  0.6030  1.6707
 2770TIP3    H229726   1.933   3.269  16.100 -0.4808 -0.6551 -0.6460
 2771TIP3   OH229727   1.100   6.659   1.255 -0.1933  0.0245  0.1576
 2771TIP3    H129728   1.193   6.675   1.235  0.2703 -0.5192  1.7628
 2771TIP3    H229729   1.054   6.697   1.180  1.2857  0.9106 -0.3674
 2772TIP3   OH229730   4.996   1.990   1.370 -0.2735  0.2578 -0.1664
 2772TIP3    H129731   4.995   1.901   1.406 -0.3465  0.4013  0.1917
 2772TIP3    H229732   4.906   2.022   1.382 -0.6487 -0.1537 -1.6561
 2773TIP3   OH229733   2.922   0.600   4.026 -0.1270 -0.3835  0.6786
 2773TIP3    H129734   2.984   0.674   4.027  0.3228 -0.7534  0.4958
 2773TIP3    H229735   2.910   0.578   4.118  2.6323 -2.4489  0.6843
 2774TIP3   OH229736   1.492   2.649   5.413  0.1514  0.1137 -0.0527
 2774TIP3    H129737   1.434   2.608   5.477  0.8032 -0.5227  0.1390
 2774TIP3    H229738   1.472   2.603   5.331  0.0001  0.2680 -0.1027
 2775TIP3   OH229739   0.065   1.430  13.335  0.3163 -0.8722  0.1966
 2775TIP3    H129740   0.015   1.490  13.280  1.6139  0.3259  0.2944
 2775TIP3    H229741   0.003   1.403  13.403  0.1125  1.6645  1.1347
 2776TIP3   OH229742   4.121   4.412   1.074  0.4646 -0.2523 -0.3670
 2776TIP3    H129743   4.171   4.486   1.040 -0.2417  0.8909  0.9487
 2776TIP3    H229744   4.064   4.385   1.002  1.8671 -0.5783 -1.3741
 2777TIP3   OH229745   5.647   0.676   4.495  0.5312  0.1175  0.4394
 2777TIP3    H129746   5.604   0.591   4.493  2.7431 -1.0346 -0.3129
 2777TIP3    H229747   5.705   0.672   4.570 -0.1513  1.4326  1.0793
 2778TIP3   OH229748   5.764   2.414  14.659  0.2035  0.2416 -0.1866
 2778TIP3    H129749   5.807   2.468  14.725  0.2556  0.6451 -0.5508
 2778TIP3    H229750   5.764   2.467  14.580  0.0168 -0.1869 -0.4797
 2779TIP3   OH229751   5.717   4.628  14.742  0.3666  0.1712  0.1430
 2779TIP3    H129752   5.750   4.640  14.831  0.9879 -1.2050  0.1226
 2779TIP3    H229753   5.770   4.557  14.706 -1.2070 -0.6685 -0.6276
 2780TIP3   OH229754   3.697   2.557   0.344 -0.9064  0.1567 -0.7136
 2780TIP3    H129755   3.792   2.542   0.346 -0.4064  2.7854 -0.3081
 2780TIP3    H229756   3.678   2.573   0.251 -1.4476 -2.5773 -1.1537
 2781TIP3   OH229757   0.966   1.577   4.176  0.0384 -0.1551 -0.9499
 2781TIP3    H129758   0.904   1.504   4.171  0.7243 -0.7106 -1.5438
 2781TIP3    H229759   0.919   1.645   4.224 -1.3511 -0.2483 -2.0887
 2782TIP3   OH229760   6.198   1.988   0.123  0.1682  0.4823 -0.1824
 2782TIP3    H129761   6.123   2.046   0.132  0.7852  1.0762  1.5590
 2782TIP3    H229762   6.272   2.040   0.154  1.0321 -0.6220 -0.3455
 2783TIP3   OH229763   2.947   5.348  16.408 -0.5002 -0.6551  0.4311
 2783TIP3    H129764   2.993   5.345  16.492  1.0194 -2.7688 -0.3964
 2783TIP3    H229765   2.904   5.263  16.402 -0.1230 -0.7586 -1.1486
 2784TIP3   OH229766   3.237   1.552   3.549  0.5712 -0.3036  0.7394
 2784TIP3    H129767   3.146   1.544   3.578  0.0713  0.5082 -0.5167
 2784TIP3    H229768   3.246   1.488   3.478  0.4137  0.8429 -0.3658
 2785TIP3   OH229769   4.214   5.499   3.912  0.2395 -0.1374  0.5543
 2785TIP3    H129770   4.182   5.433   3.973  0.8458 -1.9487 -0.9722
 2785TIP3    H229771   4.141   5.512   3.851  0.8695 -1.1666 -0.4771
 2786TIP3   OH229772   3.597   3.967   0.426 -0.3683 -0.2040 -0.0780
 2786TIP3    H129773   3.683   3.946   0.390  0.3075  0.9043  0.8318
 2786TIP3    H229774   3.581   3.899   0.491  1.1176  1.0860  1.7512
 2787TIP3   OH229775   5.584   1.133   4.944 -0.3501 -0.7405 -0.0823
 2787TIP3    H129776   5.588   1.061   4.882 -0.8383 -0.1735 -0.7970
 2787TIP3    H229777   5.573   1.091   5.030 -3.6174 -1.5208 -0.7337
 2788TIP3   OH229778   2.624   1.004  12.681  0.3998  0.0850 -0.4320
 2788TIP3    H129779   2.536   1.033  12.655  0.1596  0.2243  0.4968
 2788TIP3    H229780   2.673   1.085  12.694  0.1905  0.0618  0.6028
 2789TIP3   OH229781   0.690   2.093   0.993  0.1154 -0.1037 -0.1199
 2789TIP3    H129782   0.693   2.020   0.932 -0.0688 -0.2042 -0.0097
 2789TIP3    H229783   0.764   2.149   0.968  1.4832 -1.3183  1.0568
 2790TIP3   OH229784   0.674   3.272   0.291 -0.0932 -0.0798 -0.4841
 2790TIP3    H129785   0.761   3.262   0.328  0.0270  1.1382 -0.3849
 2790TIP3    H229786   0.683   3.341   0.225 -0.3258 -2.1272 -2.7957
 2791TIP3   OH229787   5.702   3.312  16.934  0.0867  0.0370 -0.1055
 2791TIP3    H129788   5.751   3.386  16.897 -1.9879  0.0342 -3.2010
 2791TIP3    H229789   5.758   3.236  16.917  1.6927  0.6221  2.0353
 2792TIP3   OH229790   1.491   4.298  14.356 -0.3117 -0.7087 -0.2017
 2792TIP3    H129791   1.539   4.332  14.281  0.3925  0.8547  0.8922
 2792TIP3    H229792   1.525   4.210  14.369 -0.5461 -1.0658 -1.7586
 2793TIP3   OH229793   5.426   6.350   0.890  0.0561 -0.5281  0.0543
 2793TIP3    H129794   5.348   6.363   0.836  0.0746  1.3128  0.4259
 2793TIP3    H229795   5.395   6.297   0.964 -0.5214 -0.9388 -0.4647
 2794TIP3   OH229796   5.498   0.286   1.919  0.6397 -1.0220  0.0328
 2794TIP3    H129797   5.570   0.319   1.865  1.5300 -1.6786  0.7858
 2794TIP3    H229798   5.541   0.239   1.990 -0.4896  0.1285  1.5479
 2795TIP3   OH229799   5.897   0.419   4.600  0.1519 -0.1118 -0.2873
 2795TIP3    H129800   5.926   0.376   4.519  2.1467  0.5959 -0.0168
 2795TIP3    H229801   5.978   0.453   4.639 -0.5591 -1.4985  2.6762
 2796TIP3   OH229802   0.625   6.063  14.570  0.2871  0.3949  0.1780
 2796TIP3    H129803   0.648   6.141  14.620  0.2576  1.0068 -0.7531
 2796TIP3    H229804   0.688   5.997  14.599  0.0971  0.6595  1.2166
 2797TIP3   OH229805   3.001   2.400   4.236  0.0285 -0.2129 -0.0843
 2797TIP3    H129806   2.954   2.394   4.318 -0.1981 -2.6649 -0.3120
 2797TIP3    H229807   3.087   2.435   4.260  0.6916 -2.7221  1.5897
 2798TIP3   OH229808   1.717   3.956   4.619 -0.5065  0.1054 -0.1922
 2798TIP3    H129809   1.693   3.982   4.530 -3.0492  1.2753  0.7373
 2798TIP3    H229810   1.753   4.036   4.658 -2.9500  0.7530  0.9137
 2799TIP3   OH229811   5.040   2.739   6.141  0.3664  0.5455 -0.4405
 2799TIP3    H129812   5.007   2.685   6.213  1.1897 -0.1928 -0.6015
 2799TIP3    H229813   5.039   2.828   6.176  0.4285  0.2377  0.3651
 2800TIP3   OH229814   4.691   3.398  13.156  0.2568  0.2073 -0.3270
 2800TIP3    H129815   4.716   3.463  13.222 -1.0217 -0.4596  0.8770
 2800TIP3    H229816   4.606   3.365  13.186  1.3417 -2.8499 -0.1785
 2801TIP3   OH229817   1.610   6.738   5.871  0.3852  0.4033 -0.1183
 2801TIP3    H129818   1.548   6.732   5.799  1.4131 -0.6760 -0.9712
 2801TIP3    H229819   1.591   6.662   5.926  1.4706 -0.4487 -0.8649
 2802TIP3   OH229820   1.179   1.364   5.035  0.1059  0.1975  0.3795
 2802TIP3    H129821   1.121   1.386   4.962 -0.2680  0.2978  0.6995
 2802TIP3    H229822   1.205   1.273   5.019  1.4799  0.7783 -0.8314
 2803TIP3   OH229823   4.895   5.401  10.843 -0.3633 -0.1806 -0.3615
 2803TIP3    H129824   4.918   5.421  10.934  1.6076  0.7255 -1.0036
 2803TIP3    H229825   4.800   5.394  10.843 -0.4007 -0.2376  1.7707
 2804TIP3   OH229826   1.112   1.539  11.974  0.1570 -0.3787  0.3975
 2804TIP3    H129827   1.195   1.586  11.985  0.4217 -0.9719  1.0119
 2804TIP3    H229828   1.107   1.521  11.880  1.7793 -2.1512  0.5802
 2805TIP3   OH229829   4.610   0.052   1.295  0.0136  0.5104  0.3254
 2805TIP3    H129830   4.524   0.029   1.260  1.0488 -0.9501 -1.4214
 2805TIP3    H229831   4.641  -0.029   1.337  1.1984  0.4969 -0.5303
 2806TIP3   OH229832   5.207   4.804   0.596 -0.3939 -0.0005 -0.1078
 2806TIP3    H129833   5.239   4.890   0.622 -1.1188 -0.4227  2.4717
 2806TIP3    H229834   5.265   4.742   0.640 -0.9454 -0.8124 -0.4847
 2807TIP3   OH229835   5.898   5.165  11.919 -0.0323 -0.0465  0.1878
 2807TIP3    H129836   5.868   5.217  11.994 -1.6100  1.4371 -1.3589
 2807TIP3    H229837   5.860   5.079  11.932  1.2025 -0.3735  1.9551
 2808TIP3   OH229838   2.801   3.636  17.163  0.5237 -0.6900  0.2990
 2808TIP3    H129839   2.881   3.688  17.150  0.7621 -0.8089  1.1808
 2808TIP3    H229840   2.817   3.554  17.116  1.1583 -0.9331  0.9208
 2809TIP3   OH229841   0.450   2.804  15.228  0.0205  0.4354 -0.5139
 2809TIP3    H129842   0.428   2.781  15.138 -0.6750 -0.7758 -0.0502
 2809TIP3    H229843   0.522   2.867  15.219  0.5170 -0.2752 -1.9027
 2810TIP3   OH229844   4.109   3.722   0.847  0.2246 -0.3259 -0.3065
 2810TIP3    H129845   4.134   3.630   0.833 -1.0620 -0.6016 -0.9794
 2810TIP3    H229846   4.115   3.762   0.760  0.3205  0.1128 -0.1020
 2811TIP3   OH229847   0.747   3.229   4.519 -0.0246 -0.1139 -0.3612
 2811TIP3    H129848   0.768   3.154   4.463  0.9593  0.5020 -0.8517
 2811TIP3    H229849   0.742   3.193   4.607  0.2517 -0.7880 -0.6139
 2812TIP3   OH229850   0.704   1.053   3.704  0.4155  0.1910 -0.6910
 2812TIP3    H129851   0.771   0.985   3.698  0.2891 -0.2359  1.6074
 2812TIP3    H229852   0.643   1.034   3.632  0.6419 -1.8580 -0.3982
 2813TIP3   OH229853   1.021   2.677  11.990 -0.0958 -0.4278  0.3223
 2813TIP3    H129854   1.036   2.594  11.945  3.4636 -0.9141  2.0122
 2813TIP3    H229855   0.985   2.653  12.075  2.8088 -0.6487  1.6391
 2814TIP3   OH229856   5.378   2.993  12.150 -0.7888  0.2254  0.3178
 2814TIP3    H129857   5.381   3.063  12.215  0.0168  0.4242  0.0795
 2814TIP3    H229858   5.290   2.998  12.113 -0.5686  1.4790 -0.0845
 2815TIP3   OH229859   1.075   5.159  16.120  0.2980 -0.4735  0.6997
 2815TIP3    H129860   1.016   5.161  16.044 -0.8556  0.4800  1.5922
 2815TIP3    H229861   1.147   5.103  16.092 -0.6314 -1.0252 -0.7178
 2816TIP3   OH229862   1.952   2.439   4.879  0.0821 -0.2423  0.2499
 2816TIP3    H129863   2.033   2.391   4.898  0.4262  0.3838  0.4191
 2816TIP3    H229864   1.982   2.517   4.832 -0.3051  0.5390  1.2603
 2817TIP3   OH229865   5.813   3.994  15.072  0.0039  0.1132  0.4246
 2817TIP3    H129866   5.833   4.037  14.989 -0.3593 -0.4315  0.0513
 2817TIP3    H229867   5.898   3.969  15.107  0.2697  1.6858  0.9498
 2818TIP3   OH229868   0.285   1.217  16.920 -0.8342 -0.2436 -0.2506
 2818TIP3    H129869   0.202   1.239  16.877  0.8359  1.6499 -2.7721
 2818TIP3    H229870   0.342   1.190  16.849  0.9742 -0.7919  1.3371
 2819TIP3   OH229871   0.170   2.755   2.872 -0.2458 -0.3445 -0.0405
 2819TIP3    H129872   0.129   2.822   2.926 -1.3683 -1.0370 -0.0144
 2819TIP3    H229873   0.098   2.708   2.832  0.5618 -0.2600 -1.6725
 2820TIP3   OH229874   1.010   4.997  15.260 -0.8744 -0.1490  0.1343
 2820TIP3    H129875   1.031   4.970  15.349 -0.2908 -1.1381 -0.2902
 2820TIP3    H229876   0.973   5.085  15.270 -0.4467 -0.0845  1.3103
 2821TIP3   OH229877   3.929   1.362   5.525  0.3784  0.1764 -0.3742
 2821TIP3    H129878   3.961   1.349   5.615  0.9521  2.6080 -0.1363
 2821TIP3    H229879   3.847   1.313   5.522 -0.6593  1.5306  2.1506
 2822TIP3   OH229880   6.404   1.811  11.810  0.0448 -0.8179  0.2721
 2822TIP3    H129881   6.368   1.748  11.748 -2.3756 -0.1339  0.8906
 2822TIP3    H229882   6.443   1.756  11.879 -0.6883 -1.6142  0.0685
 2823TIP3   OH229883   6.296   1.748  13.201  0.9387  0.0753 -0.2374
 2823TIP3    H129884   6.299   1.805  13.124  0.6036 -0.9339 -1.0089
 2823TIP3    H229885   6.260   1.804  13.271  1.4939  1.0741 -0.7298
 2824TIP3   OH229886   3.928   1.171  11.524 -0.2780 -0.0175 -0.8311
 2824TIP3    H129887   3.876   1.164  11.444 -0.3996  0.1289 -0.7637
 2824TIP3    H229888   3.881   1.233  11.579  0.9549  1.6570 -1.5651
 2825TIP3   OH229889   4.452   2.764  14.454 -0.1073  0.1973 -0.4955
 2825TIP3    H129890   4.446   2.838  14.393  0.6853  0.7496  0.0834
 2825TIP3    H229891   4.545   2.739  14.452 -0.0414  0.3239  0.6031
 2826TIP3   OH229892   2.959   5.001  13.594 -0.3943  0.0728 -0.0652
 2826TIP3    H129893   2.981   4.953  13.514  2.3053  0.2548  0.4523
 2826TIP3    H229894   2.903   4.940  13.643  0.8727 -1.5764 -0.5445
 2827TIP3   OH229895   2.447   0.201   5.693 -0.3625  0.4927  0.4152
 2827TIP3    H129896   2.440   0.291   5.661 -0.1344  0.0436 -0.9533
 2827TIP3    H229897   2.536   0.193   5.725 -0.3190  0.6910  0.3424
 2828TIP3   OH229898   2.681   4.751   6.677 -0.2115  0.2239 -0.1968
 2828TIP3    H129899   2.657   4.836   6.714  0.6566  0.5257 -0.3152
 2828TIP3    H229900   2.601   4.699   6.685 -0.7319  1.0190 -0.0446
 2829TIP3   OH229901   4.457   5.500  15.313 -0.1946 -0.4561 -0.1193
 2829TIP3    H129902   4.469   5.579  15.367 -2.7750 -0.1632  0.1367
 2829TIP3    H229903   4.445   5.430  15.377  0.9296 -0.8875 -0.3562
 2830TIP3   OH229904   1.451   6.228  16.716 -0.4111 -0.2571  0.0277
 2830TIP3    H129905   1.365   6.189  16.730  0.0152 -1.8475 -1.4129
 2830TIP3    H229906   1.512   6.164  16.752  0.2347 -0.0626 -0.6986
 2831TIP3   OH229907   4.140   3.302   0.159 -0.2350  0.2317  0.3145
 2831TIP3    H129908   4.086   3.360   0.213  0.2189  0.9640  0.0019
 2831TIP3    H229909   4.198   3.258   0.222 -0.7891 -0.1189  0.5860
 2832TIP3   OH229910   2.845   2.592  16.565  0.2668 -0.3675 -0.5407
 2832TIP3    H129911   2.790   2.658  16.523  0.7115  0.6239  0.3988
 2832TIP3    H229912   2.798   2.569  16.645  0.9333  0.0848 -0.0089
 2833TIP3   OH229913   2.267   4.782  13.857 -0.2629 -0.1834 -0.3116
 2833TIP3    H129914   2.241   4.833  13.934 -2.1736 -1.4550 -0.0628
 2833TIP3    H229915   2.213   4.817  13.786  1.9909  1.4786 -1.3542
 2834TIP3   OH229916   0.962   4.397   0.802 -0.0167  0.4295  0.1403
 2834TIP3    H129917   0.911   4.471   0.832  3.1801  2.4810  0.9802
 2834TIP3    H229918   0.991   4.353   0.882  1.6092  0.8845 -0.1637
 2835TIP3   OH229919   1.558   2.400   3.715  0.2927  0.0698 -0.4961
 2835TIP3    H129920   1.619   2.359   3.653  0.7864 -1.6225  1.0279
 2835TIP3    H229921   1.509   2.327   3.753  0.1067  1.0247  1.1929
 2836TIP3   OH229922   2.013   4.092  17.080 -0.1285  0.0805  0.0423
 2836TIP3    H129923   1.946   4.161  17.084  1.0811  1.2812  0.4833
 2836TIP3    H229924   2.037   4.088  16.987  0.7249  1.2407  0.1782
 2837TIP3   OH229925   4.456   5.305  16.036 -0.4011 -0.2368 -0.2796
 2837TIP3    H129926   4.499   5.361  16.101  0.1730  0.3601 -1.1514
 2837TIP3    H229927   4.425   5.229  16.086  1.7995 -0.7818  0.3601
 2838TIP3   OH229928   3.010   5.095  12.820 -0.3414 -0.1437  0.2498
 2838TIP3    H129929   3.052   5.170  12.862  0.5856  1.5188 -3.2864
 2838TIP3    H229930   3.036   5.020  12.873  1.8677  1.5810  1.7930
 2839TIP3   OH229931   4.412   2.616   3.817 -0.2089  0.0028 -0.5421
 2839TIP3    H129932   4.345   2.682   3.798 -0.6533  0.4911  2.2344
 2839TIP3    H229933   4.488   2.644   3.767 -1.5936  0.2447 -2.6583
 2840TIP3   OH229934   0.437   4.721  12.053  0.2669  0.5286  0.0231
 2840TIP3    H129935   0.389   4.655  12.003 -0.4396  1.1061 -0.0765
 2840TIP3    H229936   0.389   4.729  12.136  0.2992  0.9697  0.0025
 2841TIP3   OH229937   6.571   5.807  11.207 -0.3471 -0.3737  0.3420
 2841TIP3    H129938   6.565   5.843  11.296  2.7999  0.1664  0.4407
 2841TIP3    H229939   6.657   5.765  11.204 -0.4838 -0.6161 -2.3842
 2842TIP3   OH229940   0.657   0.978   0.951 -0.4714  0.0852  0.0700
 2842TIP3    H129941   0.665   1.031   1.030 -1.4845  0.0945  0.1737
 2842TIP3    H229942   0.747   0.951   0.931 -0.2730 -0.4421  1.5838
 2843TIP3   OH229943   6.340   1.246  14.946 -0.2071 -0.4792 -0.2894
 2843TIP3    H129944   6.419   1.294  14.972  0.5973 -1.5654 -0.6437
 2843TIP3    H229945   6.268   1.297  14.983  0.5905  1.0186 -0.6907
 2844TIP3   OH229946   3.829   2.984   4.462  0.3206 -0.6345 -0.3076
 2844TIP3    H129947   3.795   3.045   4.527  1.2930 -0.2310 -0.1701
 2844TIP3    H229948   3.839   2.901   4.509  0.5748 -0.4660 -0.0619
 2845TIP3   OH229949   2.927   2.908  14.319 -0.3405 -0.7556 -0.3036
 2845TIP3    H129950   2.948   2.841  14.255 -0.8767 -0.7607 -0.4834
 2845TIP3    H229951   2.893   2.982  14.268 -1.5029 -1.0478  0.0029
 2846TIP3   OH229952   3.747   4.045  12.179  0.0192 -0.2446 -0.7939
 2846TIP3    H129953   3.787   3.992  12.110 -1.4447  0.1969 -2.0372
 2846TIP3    H229954   3.745   3.987  12.255  0.5517 -1.1702 -1.4552
 2847TIP3   OH229955   2.419   6.493  15.247  1.0755  0.0573  0.2071
 2847TIP3    H129956   2.452   6.417  15.295 -1.0446 -0.9394  0.2091
 2847TIP3    H229957   2.347   6.526  15.301 -0.0933  0.0983 -1.3222
 2848TIP3   OH229958   5.693   4.284  13.908  0.2208  0.4897  0.4046
 2848TIP3    H129959   5.661   4.338  13.980  0.3498  1.2205 -0.0709
 2848TIP3    H229960   5.622   4.286  13.844 -0.0844 -0.5369  0.7001
 2849TIP3   OH229961   2.922   5.688  11.594  0.0585  0.6810  0.3285
 2849TIP3    H129962   2.966   5.773  11.587 -1.8087  1.5767 -1.9583
 2849TIP3    H229963   2.947   5.642  11.514 -2.9102  1.2309 -1.0820
 2850TIP3   OH229964   2.122   4.165   0.111  0.4310  0.0096  0.1971
 2850TIP3    H129965   2.138   4.088   0.165  1.7322  1.1208  1.5026
 2850TIP3    H229966   2.031   4.159   0.085  0.8176 -2.6049 -0.8095
 2851TIP3   OH229967   3.776   0.890   5.204 -0.5179  0.3713  0.1298
 2851TIP3    H129968   3.714   0.891   5.131 -1.0327  0.1539  0.5618
 2851TIP3    H229969   3.722   0.880   5.282 -0.0473  1.5435  0.6272
 2852TIP3   OH229970   0.688   6.615  16.559 -0.2697 -0.1104 -0.1628
 2852TIP3    H129971   0.596   6.615  16.585  0.5203 -0.4602  3.0499
 2852TIP3    H229972   0.706   6.524  16.534 -0.6797 -0.1199 -0.4384
 2853TIP3   OH229973   0.749   4.824  13.242  0.2560 -0.3474 -0.3160
 2853TIP3    H129974   0.703   4.907  13.231 -0.9942 -1.0132 -0.2824
 2853TIP3    H229975   0.808   4.819  13.167  1.7868  1.4382  0.6675
 2854TIP3   OH229976   4.667   3.623   4.208  0.5380  0.1258 -0.1087
 2854TIP3    H129977   4.579   3.592   4.186  0.9397 -1.5082  0.4663
 2854TIP3    H229978   4.662   3.645   4.301  0.4951  0.9573 -0.3027
 2855TIP3   OH229979   4.458   0.193   1.741  0.4027  0.2695 -0.7534
 2855TIP3    H129980   4.485   0.238   1.660  1.6497  0.5917 -0.1852
 2855TIP3    H229981   4.456   0.262   1.807  0.5967 -0.1963 -0.2510
 2856TIP3   OH229982   4.360   3.791   1.654  0.0671 -0.2054  0.2912
 2856TIP3    H129983   4.306   3.860   1.617 -1.1882 -1.2369  0.0960
 2856TIP3    H229984   4.447   3.829   1.663 -0.1191  0.7664 -1.6240
 2857TIP3   OH229985   2.765   3.961   5.723  0.2015 -0.3810  0.3609
 2857TIP3    H129986   2.777   4.040   5.775  0.0173  1.5150 -2.2849
 2857TIP3    H229987   2.670   3.947   5.721  0.0161  0.8773 -1.2205
 2858TIP3   OH229988   6.464   0.297  15.203 -0.7317  0.8232  0.7281
 2858TIP3    H129989   6.406   0.365  15.168 -1.7699 -0.3094  0.1602
 2858TIP3    H229990   6.456   0.305  15.298  0.4767  2.5586  0.7433
 2859TIP3   OH229991   6.067   1.287  15.507 -0.2174 -0.0603  0.1449
 2859TIP3    H129992   6.144   1.344  15.505  0.0162 -0.3922 -2.1770
 2859TIP3    H229993   6.076   1.239  15.590  0.2395  2.2936  1.5664
 2860TIP3   OH229994   6.342   2.001  12.142 -0.3993  0.3474 -0.4048
 2860TIP3    H129995   6.304   2.035  12.061  0.2828 -0.3340 -1.0188
 2860TIP3    H229996   6.318   1.909  12.144 -2.9243  0.9308  1.6539
 2861TIP3   OH229997   2.914   1.512   5.548 -0.4042 -0.0092 -0.7227
 2861TIP3    H129998   2.970   1.469   5.612  0.0230  1.2560 -0.2098
 2861TIP3    H229999   2.916   1.454   5.472  0.6911 -0.5533 -0.3071
 2862TIP3   OH230000   3.104   6.619   4.968 -0.2876 -0.0904  0.1395
 2862TIP3    H130001   3.126   6.592   5.057 -1.0601  0.0678  0.3854
 2862TIP3    H230002   3.188   6.619   4.922  0.0237 -0.8866  0.6743
 2863TIP3   OH230003   5.032   3.799   3.652 -0.1637  0.0013  0.5717
 2863TIP3    H130004   5.123   3.828   3.647 -0.2111  0.1954  0.8492
 2863TIP3    H230005   5.006   3.787   3.560 -0.3897  1.5984  0.4019
 2864TIP3   OH230006   5.277   2.132  14.995  0.0625 -0.9618  0.5084
 2864TIP3    H130007   5.351   2.100  14.945  0.4085  0.6783 -0.0978
 2864TIP3    H230008   5.315   2.197  15.056 -1.0670  1.8659 -1.5719
 2865TIP3   OH230009   4.030   6.647   1.607 -0.1070  0.4271  0.2151
 2865TIP3    H130010   4.016   6.566   1.557  0.6434  0.1663  0.4162
 2865TIP3    H230011   4.098   6.625   1.670  0.3981  1.3265  0.0097
 2866TIP3   OH230012   5.944   3.104   1.750  0.2806 -0.1867 -0.0820
 2866TIP3    H130013   6.037   3.126   1.746  0.1125  0.7818  1.0592
 2866TIP3    H230014   5.916   3.132   1.837 -0.6900 -2.0729  0.2833
 2867TIP3   OH230015   2.689   6.063  12.986 -0.3960 -0.2012  0.2610
 2867TIP3    H130016   2.767   6.008  12.991  1.2674  1.8726 -0.9891
 2867TIP3    H230017   2.640   6.043  13.066  2.2370 -0.4298  1.9532
 2868TIP3   OH230018   5.402   0.321   3.821  0.4555 -0.0681  0.0799
 2868TIP3    H130019   5.313   0.286   3.823 -0.2033  1.5357  1.1659
 2868TIP3    H230020   5.393   0.407   3.779  1.0100  1.2283  2.4586
 2869TIP3   OH230021   4.777   2.100   4.033  0.1775 -0.4840  0.1925
 2869TIP3    H130022   4.701   2.116   3.978 -0.6663 -1.4295  1.0530
 2869TIP3    H230023   4.754   2.136   4.119  1.5402  1.1197 -0.0701
 2870TIP3   OH230024   2.000   1.871  17.030 -0.0981  0.3851 -0.6638
 2870TIP3    H130025   1.944   1.829  16.965  0.4951  0.2792 -1.1006
 2870TIP3    H230026   2.017   1.803  17.095 -0.7482  0.5110 -0.3511
 2871TIP3   OH230027   3.345   5.474   5.445 -0.8304  0.3430 -0.8410
 2871TIP3    H130028   3.366   5.434   5.361 -1.6550 -0.1721 -0.8170
 2871TIP3    H230029   3.403   5.431   5.507 -0.5703  0.3598 -1.0717
 2872TIP3   OH230030   0.238   0.490  14.451  0.7922 -0.1334 -0.5832
 2872TIP3    H130031   0.256   0.440  14.371  3.5694  0.6942 -0.6043
 2872TIP3    H230032   0.325   0.518  14.481 -0.1252 -0.6047  2.8879
 2873TIP3   OH230033   4.792   1.298  12.905  0.6631  0.2824  0.3242
 2873TIP3    H130034   4.728   1.347  12.956 -0.4589  0.6083 -1.3227
 2873TIP3    H230035   4.809   1.219  12.956 -1.8448 -0.3099  0.3402
 2874TIP3   OH230036   3.912   5.244   5.057 -0.2374 -0.3746 -0.3488
 2874TIP3    H130037   4.006   5.232   5.061  0.2180  1.4806 -3.0459
 2874TIP3    H230038   3.891   5.299   5.133  1.0745  0.3113 -0.4551
 2875TIP3   OH230039   3.070   4.544  15.172  0.6555 -0.0294 -0.1698
 2875TIP3    H130040   3.090   4.606  15.102  0.8782  1.9256  1.5113
 2875TIP3    H230041   3.152   4.499  15.190  1.5412  1.8968  1.0154
 2876TIP3   OH230042   6.238   0.679  13.300 -0.4619 -0.6595 -0.7406
 2876TIP3    H130043   6.294   0.603  13.315  0.5717  0.5298  2.2852
 2876TIP3    H230044   6.296   0.744  13.260 -0.0240  0.0208  0.9080
 2877TIP3   OH230045   1.208   0.518  14.013  0.4948  0.3371 -0.6873
 2877TIP3    H130046   1.204   0.434  14.059  2.9764  0.2603 -0.4874
 2877TIP3    H230047   1.189   0.497  13.922 -1.4228  0.0100 -0.2624
 2878TIP3   OH230048   1.383   0.415   6.746  0.4950  0.0196  0.2220
 2878TIP3    H130049   1.297   0.451   6.768  0.1765  0.5914 -1.7910
 2878TIP3    H230050   1.444   0.488   6.760  0.3257  0.3145 -0.5607
 2879TIP3   OH230051   5.851   1.410   5.181 -0.0070  0.3116  0.4230
 2879TIP3    H130052   5.825   1.493   5.220  1.4806  0.3367  1.4364
 2879TIP3    H230053   5.787   1.347   5.213 -0.8956  0.9821 -0.0108
 2880TIP3   OH230054   6.060   0.771  16.909  0.5201 -0.2522 -0.3287
 2880TIP3    H130055   6.021   0.735  16.829  1.3084  0.8466 -1.2429
 2880TIP3    H230056   6.012   0.852  16.925  2.8789  1.6362 -2.0185
 2881TIP3   OH230057   5.072   5.349  14.730 -0.0322 -0.3802 -0.5839
 2881TIP3    H130058   5.023   5.360  14.811 -0.3054 -1.6107 -0.5549
 2881TIP3    H230059   5.087   5.438  14.698 -1.3502  0.0603 -0.0388
 2882TIP3   OH230060   0.654   4.605   4.041 -0.3260  0.2286  0.2079
 2882TIP3    H130061   0.577   4.610   3.984 -0.4916  2.9644  0.5335
 2882TIP3    H230062   0.713   4.672   4.008  1.3696 -0.9032  0.8060
 2883TIP3   OH230063   3.684   2.885   2.861 -0.5992 -0.3872  0.3723
 2883TIP3    H130064   3.753   2.838   2.908  0.8266  0.9171 -0.3135
 2883TIP3    H230065   3.612   2.892   2.924  0.5457 -0.3176  1.7082
 2884TIP3   OH230066   1.753   6.345   2.093  0.2869  0.1328 -0.1352
 2884TIP3    H130067   1.673   6.325   2.142  0.9213 -1.8963  0.1491
 2884TIP3    H230068   1.767   6.438   2.108 -2.0001  0.5383 -0.1688
 2885TIP3   OH230069   0.344   1.579  13.218 -0.3779  0.3544  0.5247
 2885TIP3    H130070   0.299   1.495  13.221 -2.9673  1.6444  0.6943
 2885TIP3    H230071   0.302   1.631  13.287  1.4099  1.6814  0.6748
 2886TIP3   OH230072   0.957   3.048  13.998  0.2461  0.0937  0.4818
 2886TIP3    H130073   0.987   2.978  14.055  0.6634  0.1339  0.3165
 2886TIP3    H230074   0.886   3.090  14.046 -1.1401 -1.4665 -0.0869
 2887TIP3   OH230075   5.453   6.106   0.338 -0.2499 -0.3620 -0.3194
 2887TIP3    H130076   5.397   6.041   0.382  1.3180 -0.0347  2.3888
 2887TIP3    H230077   5.393   6.176   0.313 -1.3239 -0.7855  0.9469
 2888TIP3   OH230078   5.697   6.308   0.962  0.0678 -0.9682  0.0256
 2888TIP3    H130079   5.748   6.252   0.904  0.4972 -0.6336  0.0699
 2888TIP3    H230080   5.624   6.339   0.909  0.8935 -0.0122 -0.6040
 2889TIP3   OH230081   1.493   6.330   0.661  0.0387 -0.0748 -0.3103
 2889TIP3    H130082   1.406   6.370   0.668 -0.7686 -1.9471  1.3549
 2889TIP3    H230083   1.519   6.313   0.752  1.1630 -1.5395 -0.8630
 2890TIP3   OH230084   2.991   2.741   1.918 -0.1536 -0.1565  0.3917
 2890TIP3    H130085   2.902   2.759   1.945 -0.4136 -0.5577 -0.1739
 2890TIP3    H230086   2.992   2.647   1.901 -0.3215  0.2354 -2.0818
 2891TIP3   OH230087   6.626   5.454  12.066 -0.4120  0.1335  0.2719
 2891TIP3    H130088   6.566   5.396  12.114 -0.0699 -0.4557  0.0008
 2891TIP3    H230089   6.606   5.541  12.099 -1.1590 -0.0974  0.4595
 2892TIP3   OH230090   6.720   4.139   6.460  0.2867  0.1280  0.3724
 2892TIP3    H130091   6.671   4.211   6.500 -2.2653 -0.1727 -1.9022
 2892TIP3    H230092   6.666   4.061   6.477  2.1380 -1.0253  1.3267
 2893TIP3   OH230093   4.534   3.059  12.002  0.0720  0.2014 -0.4632
 2893TIP3    H130094   4.617   3.055  11.955  0.7506  0.9518  0.6263
 2893TIP3    H230095   4.536   2.984  12.062 -0.6793 -0.6061 -1.4160
 2894TIP3   OH230096   6.098   4.904  16.584  0.8046 -0.1142 -0.8283
 2894TIP3    H130097   6.164   4.895  16.516 -0.5625 -0.4453 -2.1667
 2894TIP3    H230098   6.074   4.997  16.582  0.8927 -0.0869 -0.6585
 2895TIP3   OH230099   4.266   1.352  12.675  0.0223 -0.4332 -0.3483
 2895TIP3    H130100   4.224   1.434  12.701 -0.3279 -0.6336 -0.2711
 2895TIP3    H230101   4.356   1.376  12.654 -0.1722  0.0347 -0.6657
 2896TIP3   OH230102   1.343   4.613  15.960 -0.7088  0.1172  0.1452
 2896TIP3    H130103   1.350   4.663  16.041 -0.4784  0.1213  0.1241
 2896TIP3    H230104   1.415   4.645  15.906 -0.6288 -0.1574  0.0890
 2897TIP3   OH230105   0.840   6.612  13.540  0.3959 -0.4989 -0.6191
 2897TIP3    H130106   0.876   6.531  13.504  1.4846 -1.1583  1.7040
 2897TIP3    H230107   0.785   6.583  13.613 -0.5820  0.7845 -0.8111
 2898TIP3   OH230108   5.619   0.182  16.805  0.4638  0.0300 -0.6073
 2898TIP3    H130109   5.610   0.212  16.895  1.4821  1.6623 -1.0037
 2898TIP3    H230110   5.580   0.252  16.752 -3.1263 -2.2931 -1.4148
 2899TIP3   OH230111   5.640   0.318  16.045 -0.1872  0.2051 -0.2610
 2899TIP3    H130112   5.608   0.405  16.070  0.9841  0.6339 -0.2154
 2899TIP3    H230113   5.593   0.258  16.103  0.2999  0.9596  0.9555
 2900TIP3   OH230114   4.371   5.241  17.120 -0.2186 -0.5468  0.4235
 2900TIP3    H130115   4.288   5.288  17.119  0.3123  0.4317 -0.1207
 2900TIP3    H230116   4.429   5.294  17.066  1.1986 -0.3668  2.0020
 2901TIP3   OH230117   4.207   1.542  14.042 -0.0918  0.5901 -0.2170
 2901TIP3    H130118   4.285   1.597  14.041 -0.8642  1.7754 -2.6577
 2901TIP3    H230119   4.191   1.524  14.135  1.3429  2.8154  0.5380
 2902TIP3   OH230120   3.262   1.015  16.168 -0.5703  0.3037  0.0128
 2902TIP3    H130121   3.181   0.982  16.130 -1.2657  1.1715  0.6950
 2902TIP3    H230122   3.258   1.110  16.155  0.2919  0.3704  0.1405
 2903TIP3   OH230123   0.291   3.076  13.128 -0.1747  0.2080  0.4060
 2903TIP3    H130124   0.210   3.122  13.104 -0.0196 -0.1687 -0.8804
 2903TIP3    H230125   0.311   3.109  13.215 -0.5531  1.9207 -0.1155
 2904TIP3   OH230126   1.741   3.114  12.577 -0.5607  0.3670  0.3119
 2904TIP3    H130127   1.718   3.034  12.528  0.6475  0.1697  0.0429
 2904TIP3    H230128   1.787   3.168  12.514  1.0923  0.0815  1.2187
 2905TIP3   OH230129   2.254   2.445  12.251 -1.1814 -0.3901  0.0989
 2905TIP3    H130130   2.282   2.378  12.189  0.5001 -0.6926  1.1390
 2905TIP3    H230131   2.284   2.528  12.212  1.9086 -0.7496  1.4719
 2906TIP3   OH230132   1.810   5.819  14.723  0.0305 -0.2186  0.6049
 2906TIP3    H130133   1.876   5.883  14.749  1.4904 -1.6773  0.6334
 2906TIP3    H230134   1.812   5.820  14.627 -0.6162  0.4346  0.5949
 2907TIP3   OH230135   3.870   2.682   2.539  0.0723  0.2803  0.3023
 2907TIP3    H130136   3.832   2.595   2.530  2.8711 -1.0097 -0.2078
 2907TIP3    H230137   3.805   2.741   2.501 -1.3592 -1.7310 -0.5489
 2908TIP3   OH230138   4.667   0.265  16.869  0.0609 -0.0378 -0.3790
 2908TIP3    H130139   4.584   0.272  16.916 -0.6067 -1.3023 -1.3092
 2908TIP3    H230140   4.698   0.177  16.889  1.7670  0.7806  0.8300
 2909TIP3   OH230141   3.705   3.471  13.106 -0.0738  0.8053  0.2855
 2909TIP3    H130142   3.646   3.435  13.172  0.9636  0.0890  0.8417
 2909TIP3    H230143   3.790   3.476  13.150  0.6442  0.2696 -1.0025
 2910TIP3   OH230144   5.020   3.009  13.990  0.2097 -0.6368  0.5850
 2910TIP3    H130145   4.925   3.010  13.987  0.2326  0.4149 -0.4062
 2910TIP3    H230146   5.046   3.101  13.987  1.2511 -0.8735  1.6125
 2911TIP3   OH230147   5.155   0.696   0.998  0.5429 -0.5591 -0.0330
 2911TIP3    H130148   5.124   0.779   1.033  2.2341 -0.1485  0.5888
 2911TIP3    H230149   5.094   0.631   1.033 -1.3597  0.4741 -1.2888
 2912TIP3   OH230150   0.233   5.869   2.803 -0.0792  0.1627  0.1029
 2912TIP3    H130151   0.188   5.864   2.887  1.9451 -1.3003  1.1917
 2912TIP3    H230152   0.191   5.802   2.749 -1.6518  1.3733 -0.2662
 2913TIP3   OH230153   0.517   3.503  17.098 -0.3716 -0.0737 -0.4657
 2913TIP3    H130154   0.461   3.558  17.153 -0.9285  1.9031 -2.8116
 2913TIP3    H230155   0.599   3.552  17.092 -1.1854  1.1192 -3.3417
 2914TIP3   OH230156   3.045   5.893  14.975 -0.3414 -0.8061 -0.6881
 2914TIP3    H130157   3.114   5.843  15.017  0.1674  0.8915  0.5806
 2914TIP3    H230158   2.964   5.849  15.001  0.0468 -0.5402  1.0326
 2915TIP3   OH230159   0.522   0.720   1.347 -0.6300  0.2696 -0.1482
 2915TIP3    H130160   0.528   0.815   1.340 -0.1988  0.3006  0.5882
 2915TIP3    H230161   0.613   0.691   1.349 -0.7072  0.0337  1.9973
 2916TIP3   OH230162   2.649   1.865   3.967  0.0544  0.2937  0.8308
 2916TIP3    H130163   2.589   1.792   3.952 -0.1025  0.3948  0.9678
 2916TIP3    H230164   2.603   1.922   4.028 -0.0502  0.7806  0.3111
 2917TIP3   OH230165   6.724   6.633   0.588 -0.0800 -0.3046 -0.0663
 2917TIP3    H130166   6.770   6.570   0.532  2.0308  0.3607  0.8003
 2917TIP3    H230167   6.778   6.637   0.667 -1.7373  0.4829  1.0743
 2918TIP3   OH230168   6.379   3.179  14.594 -0.4808 -0.3194  0.2734
 2918TIP3    H130169   6.423   3.121  14.532  0.0563  0.0148  0.3423
 2918TIP3    H230170   6.445   3.243  14.619 -0.5792 -0.6317  1.4340
 2919TIP3   OH230171   3.903   2.586  17.208  0.4393  0.3408  0.5150
 2919TIP3    H130172   3.993   2.561  17.230 -0.1590 -1.9917  0.5041
 2919TIP3    H230173   3.904   2.598  17.113  1.0594  1.9610  0.6815
 2920TIP3   OH230174   6.581   2.095  16.997 -0.3430 -0.1610 -1.0066
 2920TIP3    H130175   6.520   2.141  17.055  0.8323  0.6868 -0.3786
 2920TIP3    H230176   6.622   2.165  16.946  2.3088 -0.2637  0.7472
 2921TIP3   OH230177   3.702   0.789  15.833 -0.8608  0.4830 -0.3763
 2921TIP3    H130178   3.790   0.769  15.864 -0.6306  0.6085 -0.9365
 2921TIP3    H230179   3.660   0.832  15.907 -0.3157  0.7824 -0.2372
 2922TIP3   OH230180   3.411   2.114   3.968 -0.4450  0.2114  0.3215
 2922TIP3    H130181   3.343   2.051   3.946 -0.0769 -0.3921  0.8554
 2922TIP3    H230182   3.364   2.186   4.010 -0.6752 -0.7023  1.7288
 2923TIP3   OH230183   4.700   5.312   4.486 -0.4846  0.8402 -0.1772
 2923TIP3    H130184   4.741   5.286   4.568 -1.0665  0.4023 -0.0134
 2923TIP3    H230185   4.606   5.317   4.507 -0.6635  0.4837 -0.8713
 2924TIP3   OH230186   3.231   4.199   4.976  0.0372  0.2872  0.0548
 2924TIP3    H130187   3.230   4.277   4.920  0.5206  0.1221 -0.1924
 2924TIP3    H230188   3.246   4.233   5.064  1.7578  0.3753 -0.2438
 2925TIP3   OH230189   6.320   0.969   3.835 -0.3715  0.4804  0.6269
 2925TIP3    H130190   6.343   1.059   3.811 -1.9541  0.8580  0.4506
 2925TIP3    H230191   6.228   0.973   3.860 -1.1683 -1.5028 -1.6268
 2926TIP3   OH230192   6.564   3.776  16.611 -0.1334 -0.7937  0.4831
 2926TIP3    H130193   6.657   3.788  16.629  0.0833 -1.6803  0.0002
 2926TIP3    H230194   6.547   3.685  16.635 -0.8272 -0.6952  0.3658
 2927TIP3   OH230195   0.621   4.464   2.295  0.4202 -0.1803  0.2450
 2927TIP3    H130196   0.706   4.468   2.339  1.3457 -3.0389 -1.0146
 2927TIP3    H230197   0.610   4.371   2.272 -1.6643  0.5436 -2.2495
 2928TIP3   OH230198   4.208   2.851   5.782  0.6528 -0.3356 -0.0285
 2928TIP3    H130199   4.295   2.886   5.761  0.5014  0.6751  0.9395
 2928TIP3    H230200   4.196   2.871   5.875 -1.2850  1.0622 -0.5246
 2929TIP3   OH230201   2.996   0.709   4.824  0.5440 -0.4674 -0.0354
 2929TIP3    H130202   2.980   0.631   4.877  0.2744 -0.5849 -0.2853
 2929TIP3    H230203   3.081   0.742   4.854  0.3411 -0.4634  0.5512
 2930TIP3   OH230204   5.760   2.232  15.737 -0.2388 -0.6528 -0.0601
 2930TIP3    H130205   5.713   2.306  15.700 -0.2352 -0.0976  0.9949
 2930TIP3    H230206   5.697   2.160  15.734 -1.0655 -0.0027  1.0186
 2931TIP3   OH230207   1.898   0.954  15.958 -0.3433  0.4060 -0.0827
 2931TIP3    H130208   1.867   0.869  15.988  1.2203  0.0454  0.5610
 2931TIP3    H230209   1.877   1.014  16.029 -0.5906  0.3891 -0.1398
 2932TIP3   OH230210   6.247   1.201   4.083  0.1946  0.1435 -0.1068
 2932TIP3    H130211   6.175   1.238   4.033 -0.1777 -2.1514 -1.3942
 2932TIP3    H230212   6.207   1.167   4.163 -0.1718 -1.0627 -0.7876
 2933TIP3   OH230213   5.386   3.830  16.895  0.0212 -0.3690 -0.0994
 2933TIP3    H130214   5.377   3.909  16.948  0.6704 -0.8720  0.7766
 2933TIP3    H230215   5.323   3.769  16.932 -0.6674 -0.1852 -0.9450
 2934TIP3   OH230216   1.715   2.423  12.828 -0.1609 -0.3477  0.1075
 2934TIP3    H130217   1.787   2.360  12.840 -0.6218 -0.7641  0.7960
 2934TIP3    H230218   1.754   2.494  12.777  0.3108 -1.3032 -0.9182
 2935TIP3   OH230219   2.652   4.621   5.890 -0.6002  0.2525 -0.0289
 2935TIP3    H130220   2.686   4.643   5.804 -0.3753 -0.1753 -0.0571
 2935TIP3    H230221   2.572   4.673   5.900 -0.9640 -0.1594 -0.7466
 2936TIP3   OH230222   2.723   5.433  12.370  0.3100 -0.0859 -0.0928
 2936TIP3    H130223   2.670   5.504  12.405  0.0005 -0.0201 -0.6822
 2936TIP3    H230224   2.772   5.399  12.446 -0.2766  0.1089  0.3756
 2937TIP3   OH230225   5.402   0.445   2.952 -0.4424  0.4192  0.6051
 2937TIP3    H130226   5.313   0.479   2.959 -0.7132 -0.3130  0.7969
 2937TIP3    H230227   5.458   0.520   2.974 -1.0273  0.6801  1.2510
 2938TIP3   OH230228   3.385   6.409   6.532  0.1867 -0.3280  0.3284
 2938TIP3    H130229   3.412   6.321   6.559  0.6670 -0.1339  0.4931
 2938TIP3    H230230   3.396   6.462   6.611  2.0999  0.3608 -0.3558
 2939TIP3   OH230231   5.042   4.652  14.721  0.1113  1.1142 -0.5246
 2939TIP3    H130232   5.055   4.634  14.814  0.0796  1.8162 -0.3774
 2939TIP3    H230233   5.122   4.620  14.679 -0.6077 -0.8243 -0.4955
 2940TIP3   OH230234   4.080   0.862   0.324  0.3465  0.1014  0.1543
 2940TIP3    H130235   4.153   0.817   0.282 -0.6476 -1.1370 -0.3136
 2940TIP3    H230236   4.121   0.921   0.387  1.8314  0.8530 -1.4100
 2941TIP3   OH230237   6.672   1.723   1.847 -0.0114  0.1949 -0.3182
 2941TIP3    H130238   6.659   1.740   1.940 -2.3262  0.8012 -0.6805
 2941TIP3    H230239   6.711   1.636   1.843  1.0493  0.5715  1.2376
 2942TIP3   OH230240   4.815   0.150  14.727  0.5174  0.3264 -0.0906
 2942TIP3    H130241   4.756   0.200  14.784  0.3554 -2.5963  2.5916
 2942TIP3    H230242   4.898   0.197  14.732 -0.2195  1.6316  0.3687
 2943TIP3   OH230243   4.972   0.667  15.214  0.5580  0.7985 -0.6070
 2943TIP3    H130244   5.055   0.625  15.235 -0.3402 -1.5085 -1.3422
 2943TIP3    H230245   4.957   0.729  15.285  0.9186 -1.7429  1.8452
 2944TIP3   OH230246   2.687   4.363  11.691 -0.1005 -0.1510  0.4327
 2944TIP3    H130247   2.671   4.309  11.614 -1.9228  0.6557  0.1937
 2944TIP3    H230248   2.698   4.451  11.657 -1.2137  0.2608  1.0762
 2945TIP3   OH230249   6.674   2.331   1.376 -0.3453  0.1639 -0.0044
 2945TIP3    H130250   6.629   2.381   1.444 -0.8098  0.6153 -0.6315
 2945TIP3    H230251   6.619   2.341   1.298 -0.2572 -1.0342 -0.2324
 2946TIP3   OH230252   5.917   4.157   4.203  0.0548  0.0090  0.1170
 2946TIP3    H130253   5.847   4.110   4.247 -0.2150  1.2085  1.0126
 2946TIP3    H230254   5.942   4.100   4.131  0.1242 -1.7424  1.4736
 2947TIP3   OH230255   5.775   4.980  12.406 -0.1234 -0.3752 -0.1631
 2947TIP3    H130256   5.696   4.954  12.359  0.6797 -0.0642 -1.7393
 2947TIP3    H230257   5.845   4.931  12.364  0.8078  0.9652 -0.2248
 2948TIP3   OH230258   2.605   4.298  11.442  0.4927  0.6421  0.6914
 2948TIP3    H130259   2.586   4.227  11.381  0.6810 -0.9529  2.3973
 2948TIP3    H230260   2.571   4.376  11.399 -0.6559 -0.6243 -0.8268
 2949TIP3   OH230261   5.792   3.448  11.055  0.3568 -0.7843  0.1908
 2949TIP3    H130262   5.823   3.376  11.000 -1.3438 -1.3258 -0.0920
 2949TIP3    H230263   5.751   3.510  10.994  2.1342  0.6862  0.3739
 2950TIP3   OH230264   6.625   5.249  11.616 -0.1196 -0.1344  0.6301
 2950TIP3    H130265   6.610   5.272  11.524  0.6917  0.3091  0.6066
 2950TIP3    H230266   6.671   5.324  11.652 -0.1792 -0.4320  1.3368
 2951TIP3   OH230267   6.504   4.410  15.689 -0.0994  0.6953  0.1599
 2951TIP3    H130268   6.563   4.340  15.715 -1.1943 -0.1771  0.3677
 2951TIP3    H230269   6.561   4.476  15.649  0.9135 -0.4699 -0.3937
 2952TIP3   OH230270   6.503   2.588   5.209 -0.9665 -0.6619 -0.2496
 2952TIP3    H130271   6.546   2.539   5.139 -0.4196  0.4873 -0.7598
 2952TIP3    H230272   6.473   2.669   5.167  0.9973  0.9214  1.1349
 2953TIP3   OH230273   0.489   6.278  11.653  0.1504  0.2035  0.3588
 2953TIP3    H130274   0.494   6.207  11.717 -3.1063 -0.9256 -0.4401
 2953TIP3    H230275   0.433   6.343  11.694  2.4803  2.0903  0.7590
 2954TIP3   OH230276   2.284   0.896  14.799  0.3074  0.4920 -1.0474
 2954TIP3    H130277   2.378   0.902  14.815  0.2347  3.1182 -1.2181
 2954TIP3    H230278   2.244   0.943  14.872 -0.8210  0.3781 -1.5718
 2955TIP3   OH230279   4.692   3.391   2.588 -0.3872  0.8752 -0.6302
 2955TIP3    H130280   4.679   3.467   2.645 -1.8809  0.0406  0.2110
 2955TIP3    H230281   4.618   3.394   2.528 -2.8794 -2.0069  1.9301
 2956TIP3   OH230282   6.139   2.857   6.613 -0.5610 -0.1803 -0.5417
 2956TIP3    H130283   6.130   2.762   6.604  2.6081 -0.5858 -0.7413
 2956TIP3    H230284   6.191   2.869   6.692  2.8676  0.9584 -2.7244
 2957TIP3   OH230285   0.054   2.984  12.150 -0.1804 -0.0327  0.8092
 2957TIP3    H130286   0.148   2.984  12.136 -0.1906  0.1445  0.7336
 2957TIP3    H230287   0.043   2.957  12.241  0.0165  1.3515  1.2615
 2958TIP3   OH230288   3.502   5.856  11.739 -0.1190 -0.0130  0.4708
 2958TIP3    H130289   3.552   5.936  11.754  2.4768 -1.9438  3.5898
 2958TIP3    H230290   3.543   5.816  11.662  0.1430  0.5580  0.3142
 2959TIP3   OH230291   2.090   3.835  12.635  0.0423  0.4604  0.1530
 2959TIP3    H130292   2.156   3.793  12.689 -1.3966 -1.8206  0.2730
 2959TIP3    H230293   2.100   3.795  12.549 -1.5562 -0.4440  0.3457
 2960TIP3   OH230294   2.086   5.636   3.991 -0.1203  0.3681 -0.0371
 2960TIP3    H130295   2.178   5.660   4.000 -0.7259  3.1179 -0.4923
 2960TIP3    H230296   2.045   5.669   4.071 -0.7553 -0.7725  0.1334
 2961TIP3   OH230297   6.658   3.881   5.520 -0.0474  0.5773  0.1599
 2961TIP3    H130298   6.702   3.954   5.478 -0.0187  0.5903  0.2128
 2961TIP3    H230299   6.728   3.829   5.559  0.0001  0.1243 -0.4970
 2962TIP3   OH230300   0.809   4.164  16.633 -0.2228 -0.6251  0.0738
 2962TIP3    H130301   0.722   4.196  16.658 -0.0547 -0.9487  1.1361
 2962TIP3    H230302   0.849   4.137  16.716  1.3327  0.5533 -0.2634
 2963TIP3   OH230303   5.351   1.714   3.103 -0.2780 -0.7744  0.3357
 2963TIP3    H130304   5.374   1.638   3.157  0.5566  0.9771  2.5755
 2963TIP3    H230305   5.423   1.776   3.117 -0.5900  0.2141 -1.9767
 2964TIP3   OH230306   5.290   3.528  16.193  0.5063  0.1222  0.3491
 2964TIP3    H130307   5.289   3.473  16.271  0.0374 -0.1408  0.1704
 2964TIP3    H230308   5.342   3.478  16.129 -1.1872 -0.8990 -0.3280
 2965TIP3   OH230309   2.963   0.100  16.334 -0.0324 -0.5620 -0.0541
 2965TIP3    H130310   3.046   0.082  16.288  0.1268 -0.2738  0.1138
 2965TIP3    H230311   2.990   0.130  16.421 -0.2413  1.2334 -0.5641
 2966TIP3   OH230312   5.848   1.025  12.933 -0.4188 -0.2262 -0.0138
 2966TIP3    H130313   5.847   0.966  13.009  2.7818 -1.0100 -0.4353
 2966TIP3    H230314   5.913   0.987  12.874 -2.6041  0.4621 -3.1576
 2967TIP3   OH230315   2.763   0.974   5.238 -0.3612  0.1714 -0.2831
 2967TIP3    H130316   2.781   0.905   5.303  0.5879  0.5457 -0.1400
 2967TIP3    H230317   2.732   1.048   5.290 -0.2245  0.2520 -0.3154
 2968TIP3   OH230318   5.526   0.439  11.561 -0.4247  0.3390 -0.2377
 2968TIP3    H130319   5.581   0.495  11.507 -1.2836  1.7943  0.3503
 2968TIP3    H230320   5.465   0.398  11.499  0.7684 -0.6677 -0.7847
 2969TIP3   OH230321   2.374   4.005  12.547  0.2859 -0.1529  0.3562
 2969TIP3    H130322   2.437   4.056  12.496  0.4057 -0.7366 -0.0926
 2969TIP3    H230323   2.289   4.043  12.526  0.2823 -0.7054 -0.6765
 2970TIP3   OH230324   3.031   2.257   0.080  0.6479 -0.1085 -0.2430
 2970TIP3    H130325   2.969   2.269   0.152 -0.5293 -0.7780 -1.1064
 2970TIP3    H230326   2.976   2.240   0.003  1.7730  2.1061 -1.6531
 2971TIP3   OH230327   5.577   0.917   2.342  0.3016 -0.0663 -0.3004
 2971TIP3    H130328   5.505   0.887   2.397  0.2780  1.6467  0.6738
 2971TIP3    H230329   5.548   1.002   2.310  1.3872  0.0904 -0.9084
 2972TIP3   OH230330   6.309   2.558   4.741  0.4804 -0.0088  0.4491
 2972TIP3    H130331   6.310   2.465   4.765  1.0487  0.2502  1.4778
 2972TIP3    H230332   6.401   2.580   4.726  0.1364 -0.3012 -2.7126
 2973TIP3   OH230333   2.164   5.021  14.440 -0.2650 -0.8615 -0.1036
 2973TIP3    H130334   2.125   4.965  14.508 -1.4813  1.2633  1.0401
 2973TIP3    H230335   2.099   5.022  14.370  0.1581 -1.5667 -0.5152
 2974TIP3   OH230336   0.200   2.464   2.704 -0.3171 -0.8069  0.2416
 2974TIP3    H130337   0.139   2.480   2.777  1.6966 -0.2811  1.8888
 2974TIP3    H230338   0.280   2.433   2.746  0.6269 -1.3919 -1.8601
 2975TIP3   OH230339   4.309   4.365   4.389 -0.1666 -0.2129  0.1570
 2975TIP3    H130340   4.335   4.447   4.429  0.7566  0.4211 -1.6509
 2975TIP3    H230341   4.337   4.298   4.451  2.3738  0.6545  0.0467
 2976TIP3   OH230342   6.319   3.683  11.131  0.3455 -0.2359  0.3665
 2976TIP3    H130343   6.297   3.695  11.039  1.2813 -0.2943  0.1277
 2976TIP3    H230344   6.271   3.605  11.157 -0.6033  0.2720  0.1634
 2977TIP3   OH230345   4.498   5.054  13.560 -0.2981 -0.1450  0.2217
 2977TIP3    H130346   4.415   5.080  13.601  0.3205 -0.1951  1.5583
 2977TIP3    H230347   4.500   5.103  13.478 -1.2449  0.5443  0.5879
 2978TIP3   OH230348   5.635   3.865   1.040 -0.1915 -0.1591 -0.6358
 2978TIP3    H130349   5.664   3.815   0.963  0.4847 -2.9213  1.2639
 2978TIP3    H230350   5.558   3.818   1.071  0.6976 -0.3256  1.4643
 2979TIP3   OH230351   1.648   6.064   2.690  0.5911 -0.0282 -0.4658
 2979TIP3    H130352   1.641   6.066   2.595 -1.0470  1.7668 -0.3761
 2979TIP3    H230353   1.729   6.016   2.707  2.0246  1.3292 -2.8204
 2980TIP3   OH230354   5.263   4.618  14.569 -0.0656  0.0896  0.6942
 2980TIP3    H130355   5.341   4.673  14.562 -0.8975  1.2659  0.4612
 2980TIP3    H230356   5.270   4.558  14.495 -0.0169  1.0200 -0.0667
 2981TIP3   OH230357   1.661   2.443   4.780 -0.3641 -0.5495 -0.4059
 2981TIP3    H130358   1.754   2.441   4.803 -0.7320 -0.4184  1.1629
 2981TIP3    H230359   1.644   2.356   4.743 -0.1812 -1.5455  1.7249
 2982TIP3   OH230360   0.701   0.684   3.163  0.0920 -0.2986  0.0059
 2982TIP3    H130361   0.792   0.664   3.184  0.2744 -0.6521 -1.0621
 2982TIP3    H230362   0.704   0.725   3.077 -0.5524  1.8343  0.9185
 2983TIP3   OH230363   1.592   6.754  13.373 -0.1074  0.1290  0.4715
 2983TIP3    H130364   1.597   6.846  13.397 -1.1298  0.5424 -0.7967
 2983TIP3    H230365   1.502   6.729  13.392 -0.8184  0.3317 -2.2202
 2984TIP3   OH230366   0.467   3.546   5.446  0.2962  0.2292  0.2163
 2984TIP3    H130367   0.409   3.605   5.398  2.1122  1.7296 -0.2475
 2984TIP3    H230368   0.450   3.460   5.408 -0.9319  0.7803 -0.5533
 2985TIP3   OH230369   4.618   3.715   2.491 -0.0892 -0.2410  0.4629
 2985TIP3    H130370   4.633   3.623   2.471  1.1489  0.0104  0.1139
 2985TIP3    H230371   4.524   3.728   2.479  0.1126 -0.7990 -2.4427
 2986TIP3   OH230372   5.207   3.246   6.125  0.2193  0.0906 -0.2308
 2986TIP3    H130373   5.131   3.302   6.143 -0.8635 -1.0487 -1.1329
 2986TIP3    H230374   5.283   3.300   6.150 -0.8849  1.0834  1.1114
 2987TIP3   OH230375   2.524   3.662  14.196 -0.3793  0.1745  0.5958
 2987TIP3    H130376   2.511   3.593  14.261  0.3872  1.2797  1.9819
 2987TIP3    H230377   2.592   3.718  14.234  0.4769  0.5781 -1.4137
 2988TIP3   OH230378   0.257   3.706   4.253  0.1319 -0.6164 -0.3863
 2988TIP3    H130379   0.192   3.722   4.184 -1.0189 -0.4373  0.7077
 2988TIP3    H230380   0.248   3.613   4.274  0.6567 -0.7293 -0.6413
 2989TIP3   OH230381   2.527   0.571  16.792  0.0075  0.1764  0.7194
 2989TIP3    H130382   2.615   0.586  16.759  0.0557 -0.7014  0.4152
 2989TIP3    H230383   2.535   0.493  16.847 -0.9604 -1.3154 -1.1200
 2990TIP3   OH230384   5.566   5.965   3.400  0.1746 -0.0799  0.0420
 2990TIP3    H130385   5.490   5.969   3.343  0.0303 -1.1120  0.1467
 2990TIP3    H230386   5.531   5.976   3.488  0.1057 -0.8453  0.1134
 2991TIP3   OH230387   0.324   4.752  14.248 -0.2090 -0.5427 -0.3532
 2991TIP3    H130388   0.344   4.746  14.155  1.5463  0.3646 -0.0725
 2991TIP3    H230389   0.379   4.686  14.289 -0.7181 -0.7023  0.0851
 2992TIP3   OH230390   6.057   1.889   5.896  0.2389 -0.4930 -0.1110
 2992TIP3    H130391   6.010   1.867   5.816  0.9602 -0.0041 -0.6801
 2992TIP3    H230392   6.108   1.810   5.916 -0.9781 -1.1269  0.6588
 2993TIP3   OH230393   2.263   2.979  11.047 -0.3325 -0.3989 -0.1266
 2993TIP3    H130394   2.226   2.891  11.049 -3.5443  0.7509 -1.7323
 2993TIP3    H230395   2.320   2.981  10.970  0.2153 -1.1729  0.2465
 2994TIP3   OH230396   2.366   4.221   0.908  0.0012  0.4620  0.1111
 2994TIP3    H130397   2.338   4.225   0.999  1.1384 -1.0882  0.5706
 2994TIP3    H230398   2.420   4.299   0.896  2.7145 -1.0102  1.8452
 2995TIP3   OH230399   5.098   0.168   2.005 -0.5916  0.7607 -0.2671
 2995TIP3    H130400   5.154   0.105   1.959 -1.8810 -0.6872  0.0915
 2995TIP3    H230401   5.134   0.171   2.094 -1.3044 -0.4769  0.0767
 2996TIP3   OH230402   1.789   2.469  15.547  0.1697 -0.1818  0.0129
 2996TIP3    H130403   1.721   2.463  15.614 -0.3025 -0.8080 -0.5139
 2996TIP3    H230404   1.762   2.543  15.492 -1.2300 -1.6675 -1.4134
 2997TIP3   OH230405   2.190   1.023  12.097 -0.5587  0.0572 -0.1542
 2997TIP3    H130406   2.275   0.979  12.097 -0.1982  0.7112  0.9917
 2997TIP3    H230407   2.196   1.086  12.170 -0.2395  3.5069 -2.8788
 2998TIP3   OH230408   1.560   3.169   2.826 -0.3983 -0.1072 -0.2229
 2998TIP3    H130409   1.507   3.125   2.760 -1.2580 -1.0392  1.0432
 2998TIP3    H230410   1.520   3.256   2.835 -1.3731 -0.5929  0.2941
 2999TIP3   OH230411   4.432   3.073  16.506 -0.7013 -0.0736 -0.8162
 2999TIP3    H130412   4.352   3.021  16.500 -0.7616 -0.0176 -0.5224
 2999TIP3    H230413   4.456   3.070  16.598 -0.6923  0.3997 -0.7979
 3000TIP3   OH230414   1.189   4.450  14.297 -0.0566 -0.4043 -0.1317
 3000TIP3    H130415   1.217   4.376  14.350  1.7876  0.3607  0.0181
 3000TIP3    H230416   1.117   4.489  14.347  1.0572 -0.2211  1.3879
 3001TIP3   OH230417   4.908   3.293   3.111 -0.0607  0.1967  0.3346
 3001TIP3    H130418   4.916   3.353   3.037  1.0784  0.2427  0.4690
 3001TIP3    H230419   4.837   3.234   3.087 -0.8378  1.2568 -0.0371
 3002TIP3   OH230420   5.141   6.084  15.227 -0.5083  0.2717 -0.5948
 3002TIP3    H130421   5.173   6.171  15.200  0.5974 -0.0108 -0.2590
 3002TIP3    H230422   5.095   6.101  15.310 -0.5966  0.5891 -0.7071
 3003TIP3   OH230423   5.851   1.041   1.590  0.2154 -0.3941  0.0355
 3003TIP3    H130424   5.812   0.962   1.626 -0.1126 -0.1987  0.1162
 3003TIP3    H230425   5.787   1.074   1.528  0.9204 -0.9003 -0.9821
 3004TIP3   OH230426   4.040   0.704   5.363  0.6048  0.2167  0.1418
 3004TIP3    H130427   3.970   0.704   5.428  0.4649  1.7660  0.0416
 3004TIP3    H230428   4.033   0.619   5.320 -0.2968 -0.2148  1.0941
 3005TIP3   OH230429   5.255   1.972   1.465 -0.1652  0.4164 -0.5018
 3005TIP3    H130430   5.227   1.990   1.554  0.3150 -0.6879 -0.1143
 3005TIP3    H230431   5.175   1.975   1.413 -0.7334 -0.8102  0.2824
 3006TIP3   OH230432   1.088   4.414   3.760  0.3459  0.5022 -0.7611
 3006TIP3    H130433   1.162   4.355   3.769  0.7454  0.9040 -1.3623
 3006TIP3    H230434   1.035   4.398   3.838  2.4766  2.2208  1.1360
 3007TIP3   OH230435   0.647   6.674  15.681 -0.6528  0.1965 -0.1080
 3007TIP3    H130436   0.595   6.661  15.602 -1.3262  3.1188 -0.2665
 3007TIP3    H230437   0.599   6.741  15.730  1.7431  1.3097  0.8758
 3008TIP3   OH230438   5.194   4.517  16.508 -0.4914  0.2192 -0.6126
 3008TIP3    H130439   5.218   4.487  16.420 -0.4356  1.0419 -0.8857
 3008TIP3    H230440   5.242   4.598  16.519 -1.9038  1.0751 -0.5379
 3009TIP3   OH230441   0.922   2.298   1.009  0.1918 -0.0424 -0.0493
 3009TIP3    H130442   0.931   2.381   1.056  1.9012 -1.0454  1.5559
 3009TIP3    H230443   1.009   2.259   1.011 -0.2346 -1.2773 -1.9972
 3010TIP3   OH230444   3.371   1.923  13.812  0.1853 -0.4397 -0.0603
 3010TIP3    H130445   3.323   1.950  13.890 -0.8769 -1.3529 -0.3748
 3010TIP3    H230446   3.318   1.953  13.738  0.7515 -0.3362 -0.4343
 3011TIP3   OH230447   0.854   4.756  12.307  0.3295  0.3082 -0.1423
 3011TIP3    H130448   0.871   4.677  12.255  2.4702  0.2295  0.5661
 3011TIP3    H230449   0.900   4.740  12.390 -2.4369  0.6935  1.5954
 3012TIP3   OH230450   0.811   0.330   1.481  0.0861 -0.3538  0.0528
 3012TIP3    H130451   0.856   0.266   1.537  1.7474  0.1849 -0.5979
 3012TIP3    H230452   0.788   0.402   1.541 -0.0997 -0.7378  0.4452
 3013TIP3   OH230453   3.453   2.618   6.578  0.0366  0.6900 -0.0269
 3013TIP3    H130454   3.406   2.700   6.593 -2.1530 -0.5260  0.2041
 3013TIP3    H230455   3.416   2.583   6.497 -1.9872 -1.8579  1.7975
 3014TIP3   OH230456   3.193   2.944  11.920 -0.5738  0.4939  0.4693
 3014TIP3    H130457   3.126   2.924  11.986 -0.0455 -2.0933  0.2910
 3014TIP3    H230458   3.276   2.936  11.966 -0.2492  2.9831  0.5007
 3015TIP3   OH230459   1.813   3.432  12.187 -0.1904 -0.0720  0.0141
 3015TIP3    H130460   1.851   3.363  12.242 -1.4854  0.5329  1.7891
 3015TIP3    H230461   1.884   3.494  12.173  0.2378 -0.3412  0.8968
 3016TIP3   OH230462   2.213   0.508  14.022 -0.0489 -0.5897  0.2163
 3016TIP3    H130463   2.309   0.506  14.023 -0.0403 -0.3088  1.0432
 3016TIP3    H230464   2.190   0.569  14.092 -0.8324 -0.6299  0.0003
 3017TIP3   OH230465   4.191   0.038  11.991 -0.0754 -0.4130  0.1996
 3017TIP3    H130466   4.196   0.131  12.011  0.1824 -0.2512 -0.5833
 3017TIP3    H230467   4.124   0.004  12.050  0.6432  0.0390  1.3134
 3018TIP3   OH230468   5.333   1.062  16.570  0.8412  0.3405 -0.3205
 3018TIP3    H130469   5.371   1.148  16.587  2.5083 -0.3864 -0.1675
 3018TIP3    H230470   5.362   1.008  16.644 -0.2214 -0.3402 -0.3855
 3019TIP3   OH230471   0.759   5.796  15.345  0.0389  0.3346  0.3423
 3019TIP3    H130472   0.808   5.713  15.345  0.9613  0.8353 -1.0313
 3019TIP3    H230473   0.819   5.859  15.304 -0.4587  1.8080  1.7902
 3020TIP3   OH230474   2.420   6.188   0.502 -0.0935  0.2481 -0.3055
 3020TIP3    H130475   2.437   6.119   0.566  1.1230  0.7851 -0.0416
 3020TIP3    H230476   2.326   6.179   0.483 -0.3680 -0.2640  1.1365
 3021TIP3   OH230477   2.367   5.470   3.883 -0.6394 -0.5291  0.5947
 3021TIP3    H130478   2.314   5.404   3.837 -1.0421 -0.8768  1.5305
 3021TIP3    H230479   2.456   5.454   3.851 -1.0173 -0.1539 -0.7449
 3022TIP3   OH230480   0.505   0.364   2.708  0.1639  0.3383 -0.6758
 3022TIP3    H130481   0.601   0.366   2.702  0.1613 -1.0715 -1.5010
 3022TIP3    H230482   0.475   0.374   2.618 -0.3135 -3.7849 -1.1294
 3023TIP3   OH230483   0.030   0.678   2.017 -0.1051 -0.2575  0.7033
 3023TIP3    H130484   0.009   0.608   1.955 -0.8697 -0.3293  1.0269
 3023TIP3    H230485  -0.022   0.657   2.095  0.2535  0.2490  1.0868
 3024TIP3   OH230486   2.899   2.258   5.194 -0.0571  0.2847  0.1351
 3024TIP3    H130487   2.981   2.285   5.237  0.7056  0.3144 -1.2866
 3024TIP3    H230488   2.868   2.338   5.151 -1.2833  0.4758  1.3074
 3025TIP3   OH230489   5.529   6.358   1.164 -0.6351 -0.1955 -0.4835
 3025TIP3    H130490   5.479   6.281   1.137 -2.0200  0.9541 -1.3299
 3025TIP3    H230491   5.614   6.348   1.122 -0.6241 -1.4814 -0.1966
 3026TIP3   OH230492   4.014   0.097  16.297 -0.3339 -0.7166  0.2612
 3026TIP3    H130493   4.044   0.162  16.361 -1.0873 -2.3708  2.4156
 3026TIP3    H230494   3.927   0.073  16.327 -0.1174 -2.6435 -0.5418
 3027TIP3   OH230495   0.621   5.983   4.285 -0.3829 -0.4634 -0.3791
 3027TIP3    H130496   0.627   6.036   4.206  0.9923 -0.1961 -0.1166
 3027TIP3    H230497   0.577   6.039   4.348 -1.1839 -0.5565 -0.8441
 3028TIP3   OH230498   6.562   5.071   4.272 -0.0263  0.5553  0.3121
 3028TIP3    H130499   6.567   5.140   4.338  0.7718  0.3623  0.4639
 3028TIP3    H230500   6.638   5.086   4.216 -0.8274  0.8722 -0.7340
 3029TIP3   OH230501   0.529   5.451  12.500  0.5644 -0.0679  0.2083
 3029TIP3    H130502   0.495   5.363  12.486  1.0131 -0.0532 -1.1333
 3029TIP3    H230503   0.497   5.476  12.586 -0.9667 -0.8933 -0.0915
 3030TIP3   OH230504   3.812   4.039  14.891 -0.4202 -0.3584 -0.0197
 3030TIP3    H130505   3.839   4.013  14.803 -0.3812  0.8130 -0.3703
 3030TIP3    H230506   3.730   4.086  14.878 -0.0131  0.5144  0.4687
 3031TIP3   OH230507   4.223   0.999   0.505  0.2597 -0.3066 -0.0268
 3031TIP3    H130508   4.265   0.960   0.582  1.3442  2.2769  0.7845
 3031TIP3    H230509   4.251   1.090   0.505 -2.5197  0.6747 -1.5488
 3032TIP3   OH230510   1.764   6.320   2.441 -0.3300  0.4477 -0.0629
 3032TIP3    H130511   1.775   6.332   2.535 -0.8187 -0.7300  0.1577
 3032TIP3    H230512   1.796   6.402   2.402  0.1031  0.8428  1.1023
 3033TIP3   OH230513   5.636   2.880  14.081 -0.3817  0.1352 -0.5398
 3033TIP3    H130514   5.652   2.946  14.013  0.0698  0.9911  0.3684
 3033TIP3    H230515   5.586   2.927  14.148 -1.8871 -1.0222 -0.8041
 3034TIP3   OH230516   0.002   1.223  15.333  0.2933 -0.0371 -0.1121
 3034TIP3    H130517   0.058   1.288  15.373  1.1392 -0.2785 -0.8820
 3034TIP3    H230518  -0.083   1.267  15.322  0.6557  0.7004  0.0077
 3035TIP3   OH230519   1.464   2.825   1.185  0.0610 -0.4070 -0.3609
 3035TIP3    H130520   1.553   2.853   1.163  0.1415 -0.0644  0.3750
 3035TIP3    H230521   1.468   2.803   1.278 -0.1476 -2.2908 -0.7586
 3036TIP3   OH230522   3.047   4.188   3.906 -0.1138  0.1648 -0.3780
 3036TIP3    H130523   3.030   4.267   3.956  0.7585  0.1214 -0.0086
 3036TIP3    H230524   3.070   4.122   3.971 -1.3006 -0.5343 -0.6389
 3037TIP3   OH230525   3.728   0.925   4.262 -0.5229 -0.2820  0.2122
 3037TIP3    H130526   3.755   0.872   4.337 -3.8510 -2.3964  0.1238
 3037TIP3    H230527   3.633   0.917   4.260 -0.6747  0.4256 -3.6882
 3038TIP3   OH230528   5.783   4.301   3.986 -0.2003  0.2432 -0.1365
 3038TIP3    H130529   5.863   4.322   3.937  0.8038 -1.3911  0.6927
 3038TIP3    H230530   5.815   4.261   4.067 -1.8228 -2.4467 -0.7133
 3039TIP3   OH230531   3.011   2.720  14.140 -0.0153 -0.1489  0.1218
 3039TIP3    H130532   2.967   2.652  14.089  0.0923 -0.0313 -0.1283
 3039TIP3    H230533   3.080   2.752  14.083 -2.0244  2.4141 -1.0803
 3040TIP3   OH230534   4.287   5.753  11.783  0.3601 -0.0328  0.0902
 3040TIP3    H130535   4.314   5.842  11.807  0.3780  0.0299 -0.1629
 3040TIP3    H230536   4.361   5.717  11.735 -0.1899  0.3328 -1.0792
 3041TIP3   OH230537   1.885   3.734   2.762 -0.1128  0.6843  0.2831
 3041TIP3    H130538   1.911   3.645   2.786  0.4295  0.0087 -2.4706
 3041TIP3    H230539   1.816   3.757   2.824  2.2441 -0.1545  3.4764
 3042TIP3   OH230540   2.796   0.614  16.642 -0.3764  0.2374 -0.1849
 3042TIP3    H130541   2.859   0.642  16.708 -1.4096 -0.9703  1.3869
 3042TIP3    H230542   2.782   0.521  16.659  0.4886 -0.5644 -3.1456
 3043TIP3   OH230543   3.073   0.395  12.732 -0.3652 -0.4345 -1.2939
 3043TIP3    H130544   3.166   0.398  12.757 -0.8940  1.4315  0.7632
 3043TIP3    H230545   3.031   0.347  12.804 -1.3906  1.4250 -0.6011
 3044TIP3   OH230546   3.925   4.709   1.141 -0.5763 -0.3766 -0.0722
 3044TIP3    H130547   3.966   4.625   1.162 -0.3327  0.0969  1.5459
 3044TIP3    H230548   3.984   4.774   1.179 -1.3204  0.4747 -0.3347
 3045TIP3   OH230549   1.123   0.651  11.577 -0.0592  0.3115  0.5633
 3045TIP3    H130550   1.091   0.586  11.514 -0.5833  1.3653 -0.2915
 3045TIP3    H230551   1.075   0.632  11.657  0.4077 -0.8753  0.5929
 3046TIP3   OH230552   0.954   1.885  10.554  0.0139 -0.3509 -0.4881
 3046TIP3    H130553   0.998   1.896  10.638 -1.2177 -0.8801  0.2622
 3046TIP3    H230554   1.009   1.931  10.491  0.6697  0.5252  0.6991
 3047TIP3   OH230555   1.289   0.501  16.922  0.1941 -0.1481  0.1416
 3047TIP3    H130556   1.281   0.412  16.888 -1.2901  0.3625 -0.9115
 3047TIP3    H230557   1.296   0.556  16.844 -0.8716  0.8225  0.7006
 3048TIP3   OH230558   3.778   0.838   1.408  0.2153 -0.1704  0.2126
 3048TIP3    H130559   3.727   0.763   1.437 -0.6297 -0.4104 -1.7269
 3048TIP3    H230560   3.743   0.858   1.321  1.3849  1.5826  0.1000
 3049TIP3   OH230561   4.709   0.739   5.664 -0.6256 -0.7352 -0.3771
 3049TIP3    H130562   4.724   0.740   5.758 -2.2655 -1.2654 -0.0789
 3049TIP3    H230563   4.674   0.826   5.644  0.3324 -0.3880 -0.6430
 3050TIP3   OH230564   3.182   6.243  10.276 -0.0071 -0.3307  0.1454
 3050TIP3    H130565   3.217   6.331  10.261  0.6576 -0.4578  0.8829
 3050TIP3    H230566   3.090   6.258  10.299  0.1122  0.1720  0.3072
 3051TIP3   OH230567   5.261   1.122   4.248  0.1064 -0.0267  0.1417
 3051TIP3    H130568   5.224   1.209   4.264  0.1264  0.5182 -2.3424
 3051TIP3    H230569   5.343   1.121   4.298  1.3538  2.3876 -1.6545
 3052TIP3   OH230570   4.211   0.884   3.322 -0.3575  0.0375  0.2566
 3052TIP3    H130571   4.173   0.901   3.235 -1.8086 -0.8748  0.6739
 3052TIP3    H230572   4.157   0.936   3.381  1.0846  1.2259  0.5616
 3053TIP3   OH230573   0.386   0.939   2.503 -0.3337 -0.1815  0.6643
 3053TIP3    H130574   0.358   0.959   2.414 -1.3267  0.4890  1.1062
 3053TIP3    H230575   0.433   1.017   2.532  2.4491 -1.4162 -0.1828
 3054TIP3   OH230576   3.724   0.404   2.753  0.3939 -0.4092  0.0367
 3054TIP3    H130577   3.634   0.400   2.720  0.1562  1.6272  0.3408
 3054TIP3    H230578   3.714   0.423   2.846  1.0923  2.3684 -0.3775
 3055TIP3   OH230579   4.458   2.757  13.168 -0.0412 -0.5479 -0.1956
 3055TIP3    H130580   4.489   2.699  13.238 -0.1176 -0.6124 -0.2159
 3055TIP3    H230581   4.514   2.737  13.093  0.2228 -0.2857 -0.0729
 3056TIP3   OH230582   3.348   0.798   4.571  0.0128  0.2092  0.5786
 3056TIP3    H130583   3.341   0.862   4.501 -0.2721  0.6887  1.0360
 3056TIP3    H230584   3.300   0.722   4.540  2.4272 -0.7829 -1.0476
 3057TIP3   OH230585   4.637   3.714   3.242  0.5973 -0.4726 -0.0699
 3057TIP3    H130586   4.546   3.733   3.262 -0.3951 -2.4478 -2.3041
 3057TIP3    H230587   4.652   3.753   3.156  1.2630 -1.7883 -0.5759
 3058TIP3   OH230588   4.859   4.464  13.595  0.0548 -0.1187 -0.7354
 3058TIP3    H130589   4.866   4.401  13.668  1.3937  0.8552  0.0375
 3058TIP3    H230590   4.766   4.484  13.589 -0.3385 -1.8209 -0.7012
 3059TIP3   OH230591   0.746   4.396   3.845  0.3915  0.4299  0.1614
 3059TIP3    H130592   0.814   4.430   3.903  0.6457  0.7637 -0.3213
 3059TIP3    H230593   0.738   4.304   3.869 -0.0029  0.7215  1.1970
 3060TIP3   OH230594   3.437   6.317   0.022 -0.6477  0.6500 -0.3415
 3060TIP3    H130595   3.480   6.264  -0.045  0.8557  0.3162  0.8115
 3060TIP3    H230596   3.464   6.407   0.001 -0.9008  0.6474 -0.6857
 3061TIP3   OH230597   2.442   3.391   4.606 -0.5371 -0.6187  0.4472
 3061TIP3    H130598   2.461   3.424   4.518  2.1753 -2.9301  0.0092
 3061TIP3    H230599   2.366   3.333   4.594 -1.1040  0.2052 -0.0476
 3062TIP3   OH230600   4.822   0.398   3.359 -0.1831  0.6942 -0.2624
 3062TIP3    H130601   4.822   0.335   3.287  1.9082  0.9918 -0.5711
 3062TIP3    H230602   4.812   0.483   3.317 -2.8576  0.6775  0.1460
 3063TIP3   OH230603   2.506   3.207  15.202  0.1523 -0.4407  0.1944
 3063TIP3    H130604   2.531   3.293  15.236  0.8553 -0.1063 -1.0931
 3063TIP3    H230605   2.586   3.173  15.161 -0.7302 -0.6353 -1.4449
 3064TIP3   OH230606   2.098   3.366  15.523  0.4090  0.2911  0.1371
 3064TIP3    H130607   2.130   3.312  15.596  1.5091 -1.0179 -1.2386
 3064TIP3    H230608   2.027   3.316  15.485  0.6741  0.3452 -0.4453
 3065TIP3   OH230609   6.181   2.587   1.025  0.6946  0.2041  0.4702
 3065TIP3    H130610   6.264   2.543   1.042  0.4634 -0.3076  0.2944
 3065TIP3    H230611   6.131   2.526   0.971  0.5512  0.8817 -0.1782
 3066TIP3   OH230612   0.408   4.434   2.840  0.1866  0.8090 -0.5215
 3066TIP3    H130613   0.413   4.405   2.749 -0.3874 -0.3324 -0.2106
 3066TIP3    H230614   0.486   4.397   2.882 -2.5724 -4.4162  0.9168
 3067TIP3   OH230615   1.146   5.900  15.035 -0.4312 -0.3722  0.6874
 3067TIP3    H130616   1.110   5.814  15.058  1.4289 -1.2098  0.6110
 3067TIP3    H230617   1.239   5.884  15.022  0.0302  1.7583  1.0948
 3068TIP3   OH230618   5.890   3.307   3.565  0.1137 -0.2932 -0.6396
 3068TIP3    H130619   5.807   3.277   3.528 -0.6913  0.7780  0.2288
 3068TIP3    H230620   5.941   3.336   3.489 -1.0931  0.8751 -1.0566
 3069TIP3   OH230621   5.727   5.443   5.706 -0.3229  0.3454  0.0102
 3069TIP3    H130622   5.772   5.440   5.791  0.0110  0.4443 -0.1618
 3069TIP3    H230623   5.637   5.469   5.728 -0.4973 -0.5584  0.4324
 3070TIP3   OH230624   4.314   5.991  15.112  0.1671 -0.1695 -0.4533
 3070TIP3    H130625   4.258   6.042  15.054  0.7079  0.6134 -0.3008
 3070TIP3    H230626   4.256   5.960  15.181 -0.0497  0.7803 -0.2060
 3071TIP3   OH230627   3.493   3.000   1.024  0.0038  0.4102 -0.0292
 3071TIP3    H130628   3.588   3.010   1.032  0.5162 -2.4388 -1.2873
 3071TIP3    H230629   3.463   2.986   1.114  0.6818  1.6852  0.4154
 3072TIP3   OH230630   0.307   5.273  14.594  0.1722 -0.2722 -0.2230
 3072TIP3    H130631   0.319   5.179  14.606  0.3587 -0.1136  1.0646
 3072TIP3    H230632   0.342   5.291  14.507 -0.4744 -1.4845 -0.7609
 3073TIP3   OH230633   3.728   5.786  16.986  0.1617  0.7439  0.1818
 3073TIP3    H130634   3.700   5.800  16.895 -3.3527 -0.1749  1.0025
 3073TIP3    H230635   3.703   5.696  17.006  0.6215  1.0066  2.1678
 3074TIP3   OH230636   0.687   3.538  14.684  0.3447 -0.3117  0.6631
 3074TIP3    H130637   0.640   3.495  14.755  1.3314 -0.7600  1.0673
 3074TIP3    H230638   0.658   3.492  14.605 -0.8596  0.2813  0.7444
 3075TIP3   OH230639   2.650   3.866   2.741 -0.0909  0.2007 -0.1462
 3075TIP3    H130640   2.588   3.834   2.806 -2.8658  3.8896 -0.6742
 3075TIP3    H230641   2.736   3.852   2.781 -1.5686  1.3026  3.8714
 3076TIP3   OH230642   3.257   2.417   5.609  0.2340 -0.7205 -0.2134
 3076TIP3    H130643   3.172   2.378   5.629 -0.2071  1.1365  1.9097
 3076TIP3    H230644   3.318   2.372   5.668  0.5628 -1.2754 -0.9543
 3077TIP3   OH230645   2.864   4.957   2.741  0.5204  0.2661  0.1585
 3077TIP3    H130646   2.866   4.981   2.833  0.5602 -2.8279  1.0980
 3077TIP3    H230647   2.949   4.916   2.726 -0.5424 -1.8861 -0.3687
 3078TIP3   OH230648   1.023   3.979  17.093 -0.0209  0.1656  0.2435
 3078TIP3    H130649   1.033   3.892  17.054 -0.9017  0.4042 -0.5642
 3078TIP3    H230650   1.087   3.981  17.164  0.2491 -1.0162  0.0605
 3079TIP3   OH230651   5.960   6.059   3.235  0.0978 -0.2937  0.0817
 3079TIP3    H130652   5.905   6.089   3.163 -0.7912 -0.1302  0.8042
 3079TIP3    H230653   5.901   6.012   3.293  0.1069  1.9698  2.1270
 3080TIP3   OH230654   3.550   2.587   3.948 -0.2934  0.0881 -0.2129
 3080TIP3    H130655   3.584   2.572   3.860 -0.2648 -1.0056 -0.0318
 3080TIP3    H230656   3.571   2.506   3.996 -0.8077  0.4443  0.6390
 3081TIP3   OH230657   3.440   3.155  16.488  0.2654 -0.5094 -0.2235
 3081TIP3    H130658   3.433   3.083  16.551  1.4585  0.0349  0.5479
 3081TIP3    H230659   3.457   3.111  16.405  2.8366 -1.1040  0.5322
 3082TIP3   OH230660   4.391   6.476  13.313  0.6960 -0.5697 -0.4216
 3082TIP3    H130661   4.450   6.548  13.337 -0.4708  1.0467 -2.1398
 3082TIP3    H230662   4.374   6.489  13.220  0.4043 -3.0970 -0.7865
 3083TIP3   OH230663   0.353   5.097  13.266 -1.1853  0.3584 -0.5488
 3083TIP3    H130664   0.429   5.075  13.320 -1.5160  0.3290 -0.0862
 3083TIP3    H230665   0.385   5.093  13.176 -0.7018  0.1023 -0.3688
 3084TIP3   OH230666   0.813   0.750  10.850 -0.3887  0.1340 -0.5107
 3084TIP3    H130667   0.747   0.783  10.912  0.1333 -1.7306  1.1600
 3084TIP3    H230668   0.858   0.829  10.819 -1.2505  1.2120  0.8444
 3085TIP3   OH230669   0.234   2.585  16.030  0.2961 -0.3298  0.6759
 3085TIP3    H130670   0.258   2.493  16.043  2.0723  0.2406  1.8572
 3085TIP3    H230671   0.210   2.616  16.118 -2.4692 -0.1713 -0.0410
 3086TIP3   OH230672   6.342   1.572  13.825 -0.5384  0.5557  0.2378
 3086TIP3    H130673   6.301   1.632  13.887 -0.4834  1.9868 -1.0273
 3086TIP3    H230674   6.272   1.547  13.765 -0.6163 -0.8941  0.8962
 3087TIP3   OH230675   4.109   1.584   1.736 -0.1752 -0.6280 -0.2175
 3087TIP3    H130676   4.041   1.550   1.678  0.8744  0.2993 -2.0729
 3087TIP3    H230677   4.104   1.527   1.813 -0.9725 -2.5659 -1.6003
 3088TIP3   OH230678   6.754   3.254   4.155  0.3735 -0.5928 -0.0797
 3088TIP3    H130679   6.773   3.202   4.233 -1.5064 -0.4339  0.5247
 3088TIP3    H230680   6.746   3.344   4.188 -1.2344 -0.6354 -0.3032
 3089TIP3   OH230681   6.662   1.707  13.579  0.2214 -0.0165  0.3074
 3089TIP3    H130682   6.595   1.758  13.625  1.7818  1.7926  0.7338
 3089TIP3    H230683   6.708   1.771  13.525 -0.7914 -1.8720 -3.0220
 3090TIP3   OH230684   5.306   4.710   4.728 -0.3489 -0.3981 -0.0857
 3090TIP3    H130685   5.323   4.644   4.796  1.2855 -0.4950 -0.5483
 3090TIP3    H230686   5.214   4.696   4.705 -0.8138 -0.6940  1.7368
 3091TIP3   OH230687   3.609   6.283   4.662  0.2945  0.4222  0.5232
 3091TIP3    H130688   3.555   6.253   4.735  2.2125  1.4543  2.4854
 3091TIP3    H230689   3.554   6.348   4.617 -1.6893 -1.6991 -0.3010
 3092TIP3   OH230690   6.031   2.325  15.504 -0.1260  0.0357 -0.5007
 3092TIP3    H130691   6.118   2.359  15.483 -0.7827  2.0245 -0.2362
 3092TIP3    H230692   6.003   2.376  15.581 -0.7149 -1.9949  0.7003
 3093TIP3   OH230693   4.186   0.502   1.633 -0.0316 -0.3313  0.6797
 3093TIP3    H130694   4.094   0.525   1.627  0.5106  1.9015  0.1540
 3093TIP3    H230695   4.186   0.415   1.674 -2.4386 -1.5027 -1.5526
 3094TIP3   OH230696   2.803   1.563  12.559  0.2669 -0.1915  0.2812
 3094TIP3    H130697   2.825   1.528  12.472  1.5921  0.7746  0.2084
 3094TIP3    H230698   2.848   1.647  12.563 -0.0534 -0.0733  1.7918
 3095TIP3   OH230699   1.308   3.242  11.430 -0.8124  0.4664  0.1325
 3095TIP3    H130700   1.324   3.153  11.399  0.1967  0.2222  1.2748
 3095TIP3    H230701   1.294   3.293  11.351  2.5114  0.0488 -0.8753
 3096TIP3   OH230702   5.569   0.436  13.265 -0.2487 -0.2466  0.1469
 3096TIP3    H130703   5.640   0.372  13.273  0.5079  0.6083  0.4124
 3096TIP3    H230704   5.499   0.388  13.222  1.1043 -0.6560 -1.7460
 3097TIP3   OH230705   4.150   0.317  12.043  0.0767  0.1250 -0.0954
 3097TIP3    H130706   4.167   0.390  12.102  0.7664  1.0993 -1.4565
 3097TIP3    H230707   4.079   0.348  11.986  1.9607  0.7579 -2.2637
 3098TIP3   OH230708   6.706   1.948  16.622  0.3156 -0.0699  0.0964
 3098TIP3    H130709   6.753   2.019  16.579  1.4905  0.1327  1.6296
 3098TIP3    H230710   6.761   1.871  16.608 -0.5692 -0.5514 -0.8922
 3099TIP3   OH230711   4.460   1.564   1.931  0.6350 -0.0356  0.3303
 3099TIP3    H130712   4.479   1.576   2.024  2.5866  0.9126 -0.1411
 3099TIP3    H230713   4.385   1.622   1.914  1.4923  1.3052  0.9432
 3100TIP3   OH230714   5.601   6.380  17.202  0.0538 -0.5179 -0.3028
 3100TIP3    H130715   5.668   6.448  17.207  0.8751 -1.3341  0.0166
 3100TIP3    H230716   5.562   6.378  17.290  0.7110 -1.1270 -0.0176
 3101TIP3   OH230717   4.981   0.838   2.796  0.3389 -0.2520 -0.3061
 3101TIP3    H130718   4.917   0.771   2.820 -0.4041  0.3805 -0.4464
 3101TIP3    H230719   4.928   0.916   2.780  1.0496  0.0157 -1.4626
 3102TIP3   OH230720   3.877   6.762   0.138 -0.1536  0.1373 -0.2251
 3102TIP3    H130721   3.918   6.706   0.204  0.1823  0.8270  0.1650
 3102TIP3    H230722   3.949   6.811   0.099 -0.5366  0.9636  0.0811
 3103TIP3   OH230723   2.648   2.297   3.772 -0.7820 -1.1050 -0.8426
 3103TIP3    H130724   2.565   2.296   3.723 -1.7009 -1.0162  0.6501
 3103TIP3    H230725   2.676   2.205   3.772 -2.4512 -1.6882  1.1188
 3104TIP3   OH230726   2.849   1.530   4.967  0.6817  0.1570  0.1010
 3104TIP3    H130727   2.846   1.619   4.933  0.5303 -0.2024 -0.8584
 3104TIP3    H230728   2.857   1.540   5.062 -0.1520  1.1849  0.0682
 3105TIP3   OH230729   3.691   5.061   5.748  0.4140 -0.6832 -0.7941
 3105TIP3    H130730   3.686   5.154   5.770  1.7858 -0.7493 -0.1287
 3105TIP3    H230731   3.784   5.043   5.741  0.2242 -2.2524  0.1914
 3106TIP3   OH230732   2.261   5.743  14.017 -0.3548  0.4224 -0.1149
 3106TIP3    H130733   2.262   5.839  14.020 -1.6309  0.4697 -0.5557
 3106TIP3    H230734   2.210   5.717  14.094  1.0155  0.0263  0.6944
 3107TIP3   OH230735   1.343   1.493  16.166 -0.1688 -0.6187  0.6703
 3107TIP3    H130736   1.376   1.512  16.253  1.6065 -1.0357  0.1255
 3107TIP3    H230737   1.415   1.449  16.121 -0.2995  1.2540 -1.6281
 3108TIP3   OH230738   4.556   0.610  14.233 -0.0387  0.5672 -0.0997
 3108TIP3    H130739   4.499   0.536  14.211  0.0912  0.2078  0.7470
 3108TIP3    H230740   4.548   0.669  14.158 -1.8633  0.7346  0.1913
 3109TIP3   OH230741   1.105   5.657  13.811  0.1368 -0.5119  0.0019
 3109TIP3    H130742   1.081   5.621  13.726 -2.4081  0.1459  0.3465
 3109TIP3    H230743   1.175   5.600  13.843  1.2025 -0.7309 -2.5219
 3110TIP3   OH230744   4.562   3.792   6.072  0.7422 -0.2924  0.6132
 3110TIP3    H130745   4.614   3.785   5.992  3.2777  1.6080  1.9641
 3110TIP3    H230746   4.591   3.718   6.126  0.8379 -0.1733  0.7263
 3111TIP3   OH230747   2.643   5.312   5.572 -0.2081 -0.5028 -0.1179
 3111TIP3    H130748   2.569   5.307   5.633  1.9037 -1.4803  2.5544
 3111TIP3    H230749   2.714   5.351   5.623  1.2425  0.1649 -2.4967
 3112TIP3   OH230750   4.070   5.370  11.146  0.0563  0.0296  0.4608
 3112TIP3    H130751   4.094   5.282  11.117  0.2627  0.5671 -1.0726
 3112TIP3    H230752   4.136   5.427  11.107 -1.6934  1.1611 -1.0356
 3113TIP3   OH230753   2.976   6.626   4.702 -0.5951 -0.7527 -0.2413
 3113TIP3    H130754   3.059   6.640   4.656 -0.8424 -1.6382 -0.9635
 3113TIP3    H230755   2.998   6.639   4.794  0.2952 -0.7658 -0.4421
 3114TIP3   OH230756   3.008   2.076  14.671  0.2958 -0.3423 -0.9534
 3114TIP3    H130757   2.995   2.025  14.750  3.2273  0.7975  0.4273
 3114TIP3    H230758   3.061   2.019  14.614  0.6740 -0.1096 -0.8397
 3115TIP3   OH230759   3.978   5.096  13.856  0.5022 -0.2702  0.2667
 3115TIP3    H130760   3.998   5.163  13.922 -0.9886  0.8842 -0.3834
 3115TIP3    H230761   3.952   5.020  13.907  1.2655 -0.0404  1.0243
 3116TIP3   OH230762   3.373   2.505   2.589  0.2721 -0.4655  0.4072
 3116TIP3    H130763   3.292   2.486   2.541 -1.0135 -0.1658  2.2996
 3116TIP3    H230764   3.413   2.577   2.541 -0.9478 -0.1687 -0.2216
 3117TIP3   OH230765   2.654   5.217  15.541  0.1796  0.5205 -0.0699
 3117TIP3    H130766   2.687   5.215  15.631  0.4388  2.2349 -0.0839
 3117TIP3    H230767   2.559   5.224  15.550  0.1229 -0.2895  0.0396
 3118TIP3   OH230768   1.349   3.088  12.404  0.2930  0.4880  0.6102
 3118TIP3    H130769   1.312   3.100  12.491  0.2306  0.9544  0.5229
 3118TIP3    H230770   1.404   3.166  12.390 -0.2133  0.7375 -0.0281
 3119TIP3   OH230771   1.773   3.447   4.431  0.4636 -0.0537  0.0093
 3119TIP3    H130772   1.799   3.483   4.516 -0.4170  2.1784 -0.5818
 3119TIP3    H230773   1.707   3.381   4.452 -0.7671  1.4301  1.0528
 3120TIP3   OH230774   0.790   4.562   5.898  0.1440  0.4526  0.2146
 3120TIP3    H130775   0.878   4.535   5.925  0.4759  0.7907 -0.5019
 3120TIP3    H230776   0.746   4.480   5.874  0.5240  0.3624 -0.1748
 3121TIP3   OH230777   1.035   5.449   4.159  0.0372  0.3592  0.2604
 3121TIP3    H130778   0.957   5.471   4.108 -0.8127 -0.8673  0.9856
 3121TIP3    H230779   1.100   5.423   4.094 -0.4581  0.4910 -0.2950
 3122TIP3   OH230780   0.812   4.995   0.610  0.0258  0.0871  0.3661
 3122TIP3    H130781   0.897   5.039   0.601  0.0364  0.2252  1.1224
 3122TIP3    H230782   0.754   5.041   0.549  0.3236  0.4199  0.3367
 3123TIP3   OH230783   1.725   6.463  14.352  0.1563 -0.0495  0.4047
 3123TIP3    H130784   1.778   6.447  14.273 -0.2315 -0.6096  0.2514
 3123TIP3    H230785   1.783   6.512  14.410  0.4475  0.3693 -0.2299
 3124TIP3   OH230786   2.407   0.824  12.312  0.0696 -0.0853 -0.3757
 3124TIP3    H130787   2.454   0.870  12.242 -0.5321  0.3014 -0.5306
 3124TIP3    H230788   2.476   0.784  12.365  0.6984  2.1936  0.6053
 3125TIP3   OH230789   6.131   5.047   3.621 -0.8264 -0.1662 -0.1115
 3125TIP3    H130790   6.093   5.050   3.709 -0.9725  1.8150 -0.1967
 3125TIP3    H230791   6.107   5.131   3.581 -0.4571 -0.8679 -1.9276
 3126TIP3   OH230792   1.006   3.948   3.748  0.1545  0.7273 -0.5103
 3126TIP3    H130793   0.967   3.872   3.703  0.3249  1.1165 -1.3289
 3126TIP3    H230794   1.100   3.939   3.732  0.5190 -0.4856  1.8863
 3127TIP3   OH230795   3.237   0.192   0.597  0.1578 -0.7164 -0.1074
 3127TIP3    H130796   3.241   0.121   0.661 -0.4143  0.3037  1.0965
 3127TIP3    H230797   3.279   0.266   0.641 -1.3526  0.3591 -0.4230
 3128TIP3   OH230798   6.669   2.652  16.334 -0.0648  0.1101 -0.6331
 3128TIP3    H130799   6.631   2.735  16.364  2.4295  0.8612  0.7745
 3128TIP3    H230800   6.626   2.585  16.387 -0.9173  0.6872 -0.5815
 3129TIP3   OH230801   3.743   2.163  12.392  0.7258  0.2931  0.3871
 3129TIP3    H130802   3.823   2.154  12.340  0.1130  0.5370 -0.6173
 3129TIP3    H230803   3.711   2.073  12.402 -0.4531  0.3903 -1.7860
 3130TIP3   OH230804   5.026   6.526   4.069  0.1457  0.0878  0.3599
 3130TIP3    H130805   5.053   6.599   4.125  1.6870  0.7856 -1.2009
 3130TIP3    H230806   5.096   6.518   4.005  0.0944 -2.9076  0.5664
 3131TIP3   OH230807   1.093   1.506  16.774  0.7280  0.3544  0.3905
 3131TIP3    H130808   1.166   1.544  16.823  1.4167 -0.8550  0.3290
 3131TIP3    H230809   1.116   1.518  16.682  0.7994  0.0659  0.3705
 3132TIP3   OH230810   0.103   0.384   4.710  0.5181 -0.0229 -0.1137
 3132TIP3    H130811   0.180   0.328   4.702 -0.8378 -1.8016 -1.4824
 3132TIP3    H230812   0.137   0.466   4.746  3.0753 -0.6750 -0.8258
 3133TIP3   OH230813   2.172   0.346  14.497 -0.1032 -0.4977 -0.1196
 3133TIP3    H130814   2.116   0.421  14.477 -2.2010 -1.0672  2.9602
 3133TIP3    H230815   2.160   0.287  14.423 -0.5710  1.0281 -1.3070
 3134TIP3   OH230816   6.472   5.447  13.820  0.3070  0.2046 -0.2491
 3134TIP3    H130817   6.479   5.414  13.730  0.6187 -0.2700 -0.0523
 3134TIP3    H230818   6.511   5.535  13.816 -1.0359  0.7953 -0.8946
 3135TIP3   OH230819   1.484   1.517   4.967 -0.3642  0.2009  0.0931
 3135TIP3    H130820   1.558   1.496   4.910 -0.8883 -1.5127 -0.0134
 3135TIP3    H230821   1.520   1.513   5.055 -0.2344 -0.2696  0.0246
 3136TIP3   OH230822   1.008   0.863   5.929  0.5270 -0.3883 -0.7934
 3136TIP3    H130823   1.101   0.864   5.952  0.6707 -1.3196 -1.2710
 3136TIP3    H230824   0.969   0.934   5.980  1.7228  0.8698 -1.5794
 3137TIP3   OH230825   0.643   4.321  10.310  0.2411 -0.5420 -0.8244
 3137TIP3    H130826   0.632   4.371  10.391 -0.6581  1.2247 -1.9778
 3137TIP3    H230827   0.674   4.235  10.340 -1.5953 -0.5049  1.5096
 3138TIP3   OH230828   2.088   4.605  10.938 -0.0553 -0.3383 -0.8976
 3138TIP3    H130829   2.151   4.677  10.930  1.5974 -1.6660 -0.4993
 3138TIP3    H230830   2.035   4.629  11.014  1.0907  0.0286 -0.1821
 3139TIP3   OH230831   1.153   2.670   1.459 -0.4032  0.0314 -0.1229
 3139TIP3    H130832   1.239   2.684   1.419  0.4240 -0.7510  1.2851
 3139TIP3    H230833   1.150   2.732   1.531 -0.0295 -1.4644  1.2417
 3140TIP3   OH230834   1.172   0.155   5.983  0.2776  0.6231 -0.8055
 3140TIP3    H130835   1.209   0.067   5.970 -0.4708  0.2184 -0.2588
 3140TIP3    H230836   1.235   0.198   6.041 -0.2096 -0.1534  0.3335
 3141TIP3   OH230837   2.476   5.828   5.837  0.0924 -0.6140  0.1407
 3141TIP3    H130838   2.381   5.817   5.836 -0.2168  1.3651  1.7026
 3141TIP3    H230839   2.499   5.837   5.929  1.5840  0.5553 -0.2992
 3142TIP3   OH230840   1.669   4.749  13.290  0.0799 -0.0808  0.2548
 3142TIP3    H130841   1.637   4.661  13.311 -0.4654 -0.0366 -0.3437
 3142TIP3    H230842   1.738   4.765  13.354 -0.5386 -0.5159  1.0594
 3143TIP3   OH230843   0.608   3.656  16.748 -0.2137  0.2790 -0.7736
 3143TIP3    H130844   0.566   3.618  16.672 -0.7690 -0.3826 -0.1515
 3143TIP3    H230845   0.537   3.701  16.795  0.2091  1.0923 -0.8889
 3144TIP3   OH230846   3.297   5.618  16.618 -0.2656 -0.1115 -0.3515
 3144TIP3    H130847   3.276   5.686  16.554  3.2217  0.1971 -1.3954
 3144TIP3    H230848   3.370   5.654  16.668  0.5100 -2.3575  0.2662
 3145TIP3   OH230849   0.989   1.266  14.922  0.0788  0.2977 -0.1488
 3145TIP3    H130850   0.929   1.202  14.961  0.8195  0.2111  0.8810
 3145TIP3    H230851   1.040   1.300  14.996  0.3064  1.4349 -0.8055
 3146TIP3   OH230852   1.863   0.633   1.200  0.1486  0.2972 -0.4975
 3146TIP3    H130853   1.817   0.551   1.186 -0.4647  0.4927  0.2779
 3146TIP3    H230854   1.887   0.631   1.293  2.7978 -0.3483 -1.0947
 3147TIP3   OH230855   0.062   6.755  17.134 -0.3937  0.0747  0.0961
 3147TIP3    H130856   0.040   6.715  17.050 -1.1130 -1.6516  1.0612
 3147TIP3    H230857  -0.013   6.810  17.156 -0.6222 -0.2298  0.0706
 3148TIP3   OH230858   1.526   6.391   0.915 -0.3351 -0.3881 -0.1458
 3148TIP3    H130859   1.620   6.393   0.933  0.4384  0.4512 -3.6440
 3148TIP3    H230860   1.502   6.483   0.904 -0.9720 -0.7367 -1.7885
 3149TIP3   OH230861   0.133   5.494  15.104 -0.6639  0.2580 -0.0611
 3149TIP3    H130862   0.071   5.538  15.161 -0.7405 -0.3050  0.2984
 3149TIP3    H230863   0.079   5.459  15.032 -0.8276 -0.5363  0.4344
 3150TIP3   OH230864   6.384   2.423  16.268 -0.0611  0.1018 -0.7856
 3150TIP3    H130865   6.403   2.498  16.212 -2.1198 -0.1661 -1.9270
 3150TIP3    H230866   6.299   2.443  16.308 -0.5376 -1.4952 -0.9111
 3151TIP3   OH230867   5.334   3.491  17.187 -0.3906  0.5398 -0.4852
 3151TIP3    H130868   5.415   3.440  17.189 -0.8758 -0.2391  1.3338
 3151TIP3    H230869   5.268   3.429  17.153 -0.7131  0.3437  0.4640
 3152TIP3   OH230870   6.575   6.306   3.661 -0.1182  0.2872  0.8041
 3152TIP3    H130871   6.633   6.286   3.735 -1.6522  0.0235  1.9762
 3152TIP3    H230872   6.533   6.222   3.640 -1.0464  0.7250  0.8529
 3153TIP3   OH230873   0.376   5.751   5.243 -0.4946  0.6353  0.8587
 3153TIP3    H130874   0.389   5.734   5.336 -0.6536  2.2003  1.2017
 3153TIP3    H230875   0.373   5.847   5.236 -2.7015  0.5610 -0.4365
 3154TIP3   OH230876   0.895   5.232  12.940 -0.1628  0.1111 -0.5348
 3154TIP3    H130877   0.984   5.230  12.905  0.3756 -0.0559  0.7904
 3154TIP3    H230878   0.893   5.162  13.005 -0.8431  0.9778  0.4076
 3155TIP3   OH230879   2.682   5.960  11.212  0.4945 -0.0435  0.3486
 3155TIP3    H130880   2.600   6.007  11.225  0.3642 -0.2773  0.3801
 3155TIP3    H230881   2.666   5.902  11.139  0.5466 -0.2861  0.5293
 3156TIP3   OH230882   0.311   5.374   3.483  0.0660 -0.3961 -0.6325
 3156TIP3    H130883   0.356   5.289   3.489 -0.4571 -0.5791  1.3001
 3156TIP3    H230884   0.228   5.354   3.439 -1.2323 -1.4671  2.0854
 3157TIP3   OH230885   6.130   5.368   3.779  0.4753 -0.1394 -0.0016
 3157TIP3    H130886   6.200   5.312   3.810  0.2497 -0.0513  0.6714
 3157TIP3    H230887   6.147   5.377   3.685  0.7724 -0.9504 -0.0334
 3158TIP3   OH230888   3.138   0.519  16.995 -0.4153 -0.4174 -0.4022
 3158TIP3    H130889   3.220   0.471  17.002  0.5558  1.1428 -0.6096
 3158TIP3    H230890   3.100   0.515  17.083 -0.0421 -1.0224 -0.2685
 3159TIP3   OH230891   0.081   3.957   3.225  0.2780 -0.0435 -0.5866
 3159TIP3    H130892   0.076   4.032   3.166 -0.2412  0.2626 -0.1588
 3159TIP3    H230893   0.175   3.940   3.234  0.3694 -0.0087 -1.3866
 3160TIP3   OH230894   0.357   6.706  10.718 -0.3331 -0.0790 -0.2769
 3160TIP3    H130895   0.346   6.628  10.772  0.3459 -0.1047 -0.1667
 3160TIP3    H230896   0.310   6.685  10.637 -2.6027  0.5335  0.8240
 3161TIP3   OH230897   5.917   2.798   1.542 -0.1119  0.7290 -0.0219
 3161TIP3    H130898   5.907   2.748   1.461  1.4630 -0.3628  0.4163
 3161TIP3    H230899   5.892   2.737   1.611 -0.7906  1.4356  0.3666
 3162TIP3   OH230900   1.670   5.409  13.503 -0.7012 -0.6675  0.1879
 3162TIP3    H130901   1.608   5.379  13.437  0.7875 -1.3167 -0.9594
 3162TIP3    H230902   1.666   5.342  13.572  0.3679 -1.9561 -0.9541
 3163TIP3   OH230903   5.231   3.430   0.175  0.0946 -0.7276  0.0058
 3163TIP3    H130904   5.145   3.468   0.154  0.1605 -0.2290  0.6020
 3163TIP3    H230905   5.281   3.438   0.093  0.2466  0.8974  0.2254
 3164TIP3   OH230906   4.280   6.247   2.374 -0.4431  0.2004 -0.3756
 3164TIP3    H130907   4.280   6.159   2.411 -2.4021  0.5332  0.5513
 3164TIP3    H230908   4.194   6.257   2.335 -1.0174  2.3135  1.2090
 3165TIP3   OH230909   4.271   5.228   0.668 -0.1226 -0.4488 -0.5469
 3165TIP3    H130910   4.226   5.195   0.745  2.1901 -2.5793  0.0186
 3165TIP3    H230911   4.306   5.313   0.696 -0.8195 -0.3626  0.1080
 3166TIP3   OH230912   5.323   5.462  15.067  0.1234 -0.1679  0.3347
 3166TIP3    H130913   5.264   5.536  15.052  0.2457  0.0943  1.1300
 3166TIP3    H230914   5.265   5.385  15.065 -0.0580 -0.0232 -0.1188
 3167TIP3   OH230915   6.744   3.331   5.970 -0.1157  0.2055  0.2143
 3167TIP3    H130916   6.815   3.277   6.005  1.1161  1.8784  0.3918
 3167TIP3    H230917   6.665   3.294   6.010  0.4378 -2.5288 -1.0033
 3168TIP3   OH230918   4.687   1.549   5.069 -0.1027  0.2642  0.0990
 3168TIP3    H130919   4.740   1.494   5.012 -1.5144 -1.2294  0.1589
 3168TIP3    H230920   4.645   1.488   5.129 -0.2377  1.6111  1.4186
 3169TIP3   OH230921   1.279   6.672   0.255 -0.0806 -0.2356 -0.1556
 3169TIP3    H130922   1.248   6.751   0.209 -0.6062 -1.4812 -2.0674
 3169TIP3    H230923   1.369   6.693   0.281 -0.4370  1.2217 -0.0156
 3170TIP3   OH230924   2.717   4.959  11.034  0.0939  0.2379  0.0407
 3170TIP3    H130925   2.778   4.886  11.024  0.6525  0.6635  0.2831
 3170TIP3    H230926   2.632   4.923  11.008  0.6785  0.0359 -1.7446
 3171TIP3   OH230927   3.138   0.848  14.874  0.4597 -0.3569  0.1467
 3171TIP3    H130928   3.086   0.854  14.955 -0.8748  0.1727 -0.7089
 3171TIP3    H230929   3.214   0.796  14.899 -0.9257 -1.9924  1.2501
 3172TIP3   OH230930   1.369   3.945  12.771 -0.0780  0.0524  0.7649
 3172TIP3    H130931   1.452   3.938  12.724  0.1121  0.5651  1.0078
 3172TIP3    H230932   1.329   3.858  12.764 -0.4738  0.3588 -1.0772
 3173TIP3   OH230933   5.382   1.357  16.241 -0.1096  0.0138  0.0347
 3173TIP3    H130934   5.294   1.322  16.255 -0.6435  1.1937 -0.2957
 3173TIP3    H230935   5.423   1.354  16.327 -0.2950 -0.9749  0.1091
 3174TIP3   OH230936   1.534   5.852   5.950  0.0596 -0.5624 -0.9604
 3174TIP3    H130937   1.553   5.875   6.041 -1.8889  0.5700 -0.8010
 3174TIP3    H230938   1.527   5.936   5.905 -4.0955 -0.7634 -1.0262
 3175TIP3   OH230939   1.940   1.979   0.833  0.6526 -0.0254  0.6101
 3175TIP3    H130940   1.909   1.982   0.923  0.5918  2.6102  0.5907
 3175TIP3    H230941   1.861   1.980   0.780  0.6982 -0.7974  0.5237
 3176TIP3   OH230942   4.051   5.913  10.742  0.2286 -0.1660  0.3975
 3176TIP3    H130943   4.004   5.994  10.722 -0.4995 -0.6943 -0.0938
 3176TIP3    H230944   3.984   5.854  10.775  0.8542 -0.3974  1.2937
 3177TIP3   OH230945   5.810   3.468  15.564 -0.0360 -0.1813 -0.2308
 3177TIP3    H130946   5.841   3.434  15.648  1.0862 -3.3590 -1.7749
 3177TIP3    H230947   5.723   3.503  15.583  0.9484  1.0284  2.5721
 3178TIP3   OH230948   0.090   6.416  14.849 -0.0110  0.5632  0.0201
 3178TIP3    H130949   0.015   6.423  14.790  0.8223  1.3132 -0.9836
 3178TIP3    H230950   0.155   6.475  14.812  1.1750 -0.2688  0.7293
 3179TIP3   OH230951   1.847   6.382  11.084 -0.6124 -0.1027  0.0370
 3179TIP3    H130952   1.928   6.429  11.104 -0.6351 -0.5612  1.3094
 3179TIP3    H230953   1.849   6.370  10.989  0.5325  0.4014 -0.0183
 3180TIP3   OH230954   6.085   4.268  13.824  0.2718 -0.0460 -0.7305
 3180TIP3    H130955   6.136   4.309  13.754  3.0449 -0.2276  1.0434
 3180TIP3    H230956   6.029   4.338  13.857 -0.3166  0.3176 -2.3792
 3181TIP3   OH230957   2.198   4.831   6.086 -0.0357 -0.6707 -0.3323
 3181TIP3    H130958   2.118   4.884   6.084 -0.0495 -0.7134 -0.9393
 3181TIP3    H230959   2.172   4.751   6.132 -1.1408 -1.9459 -2.9546
 3182TIP3   OH230960   0.852   4.197  14.993  0.7538 -0.0468  0.1995
 3182TIP3    H130961   0.787   4.268  14.997  1.4197  0.5438  0.9365
 3182TIP3    H230962   0.804   4.119  15.018  0.8014  0.7592  3.2280
 3183TIP3   OH230963   5.531   4.215   3.651 -0.1161 -0.2212  0.3138
 3183TIP3    H130964   5.497   4.293   3.694 -0.8170 -0.1849 -0.2823
 3183TIP3    H230965   5.520   4.232   3.557  1.7897 -0.1056  0.0558
 3184TIP3   OH230966   0.078   5.945  15.411 -0.1944 -0.2935  0.1428
 3184TIP3    H130967   0.048   5.960  15.501  1.8098 -1.6098  1.0950
 3184TIP3    H230968   0.001   5.913  15.365 -1.0928 -0.2639  1.5738
 3185TIP3   OH230969   1.279   6.239  10.978 -0.0933 -0.7788 -0.3177
 3185TIP3    H130970   1.207   6.226  10.916 -0.5275  1.4772 -0.3496
 3185TIP3    H230971   1.321   6.153  10.983 -1.4411 -1.6042 -1.9775
 3186TIP3   OH230972   2.002   3.181   5.327 -0.3139 -0.7339 -0.2891
 3186TIP3    H130973   2.003   3.090   5.357 -1.5373 -0.6274  0.1576
 3186TIP3    H230974   1.941   3.225   5.387  0.3427  0.4086 -0.4329
 3187TIP3   OH230975   4.103   4.242  17.045 -0.4947 -0.5852 -0.4298
 3187TIP3    H130976   4.026   4.298  17.054 -0.7494 -0.9943  0.0112
 3187TIP3    H230977   4.155   4.259  17.123  0.2101  0.1918 -1.0493
 3188TIP3   OH230978   2.461   6.187   4.567 -0.5476  0.3725 -0.0828
 3188TIP3    H130979   2.372   6.155   4.550 -0.7820  0.3274  1.1404
 3188TIP3    H230980   2.512   6.155   4.493 -1.0985 -1.4878  0.3005
 3189TIP3   OH230981   1.635   6.251  10.507  0.6153 -0.2409  0.5198
 3189TIP3    H130982   1.586   6.222  10.584 -0.9410  1.0082  0.0611
 3189TIP3    H230983   1.658   6.342  10.526  0.0196  0.1591 -0.5384
 3190TIP3   OH230984   0.849   0.152   4.744 -0.0143  0.0153  0.3807
 3190TIP3    H130985   0.797   0.080   4.780  1.5720 -1.7053 -0.6368
 3190TIP3    H230986   0.834   0.148   4.650 -0.0087  1.1173  0.3231
 3191TIP3   OH230987   0.261   3.857   0.689 -0.1283  0.2094 -0.0484
 3191TIP3    H130988   0.254   3.858   0.593  0.1860 -3.2923 -0.2548
 3191TIP3    H230989   0.172   3.842   0.719  0.0396 -0.7605  0.0183
 3192TIP3   OH230990   4.699   4.267   4.327  0.2388 -0.5709 -0.3934
 3192TIP3    H130991   4.631   4.239   4.265 -1.5981  0.9211  0.8307
 3192TIP3    H230992   4.705   4.362   4.314  2.9822 -0.7950 -1.2566
 3193TIP3   OH230993   6.226   0.970   2.365  0.5866  0.7962  0.4764
 3193TIP3    H130994   6.214   0.883   2.327  1.7859  0.6002  0.4789
 3193TIP3    H230995   6.220   0.956   2.460 -1.8480  1.1908  0.4362
 3194TIP3   OH230996   1.956   5.390   3.982 -0.3179  0.1835 -0.7051
 3194TIP3    H130997   2.025   5.345   3.933 -0.5429  0.3524 -1.1882
 3194TIP3    H230998   1.996   5.474   4.005  0.2721 -0.4321  0.6209
 3195TIP3   OH230999   3.803   5.398  14.021 -0.0571 -0.6544  0.3563
 3195TIP3    H131000   3.785   5.433  14.108  0.7689 -0.2065  0.3550
 3195TIP3    H231001   3.779   5.469  13.961  0.6729 -0.4423  0.3005
 3196TIP3   OH231002   4.780   1.595   6.511 -0.0359  0.3999 -0.4967
 3196TIP3    H131003   4.807   1.669   6.457 -0.5834  0.0890 -1.2091
 3196TIP3    H231004   4.765   1.633   6.598  1.2700  0.8243 -0.4263
 3197TIP3   OH231005   4.321   6.192  12.792 -0.2592 -0.1462 -0.5132
 3197TIP3    H131006   4.280   6.266  12.747 -0.1617  0.2079 -0.0298
 3197TIP3    H231007   4.258   6.121  12.785 -1.4755  0.6990  1.1791
 3198TIP3   OH231008   6.479   0.680  13.055  0.2889  0.1946  0.1343
 3198TIP3    H131009   6.444   0.592  13.042  0.0334  0.6402 -2.7961
 3198TIP3    H231010   6.573   0.666  13.067  0.4529 -0.4698 -1.5558
 3199TIP3   OH231011   4.736   5.097   6.393  0.2834  0.3488 -0.2933
 3199TIP3    H131012   4.789   5.063   6.465 -1.3599  2.0677  1.8735
 3199TIP3    H231013   4.734   5.027   6.328  4.7794  0.0522 -0.3756
 3200TIP3   OH231014   1.811   5.483  12.960  0.6520  0.7516  0.0300
 3200TIP3    H131015   1.841   5.559  12.909 -0.0166  1.5806  0.8332
 3200TIP3    H231016   1.787   5.520  13.045 -0.3383 -0.2635  0.2027
 3201TIP3   OH231017   5.061   2.283  13.468 -0.4978  0.6173 -0.1355
 3201TIP3    H131018   5.041   2.249  13.556  0.4524  2.1009  0.6977
 3201TIP3    H231019   5.127   2.351  13.483  1.3273 -0.5726 -2.2392
 3202TIP3   OH231020   6.438   5.435  15.307 -0.6280 -0.0957  0.0350
 3202TIP3    H131021   6.406   5.465  15.392  1.6875  1.1924  0.5221
 3202TIP3    H231022   6.394   5.493  15.244 -1.7872 -0.5735  0.3696
 3203TIP3   OH231023   0.754   4.984  15.696  0.3457 -0.3153 -0.2378
 3203TIP3    H131024   0.817   4.915  15.676  0.1268 -1.0597  1.4111
 3203TIP3    H231025   0.669   4.943  15.682  0.2029 -0.6184  1.2633
 3204TIP3   OH231026   0.911   5.495   4.657  0.2079  0.0415  0.4198
 3204TIP3    H131027   0.887   5.468   4.568  0.9398 -0.2305  0.2975
 3204TIP3    H231028   1.002   5.522   4.649  0.0868  0.6124  0.9665
 3205TIP3   OH231029   3.453   6.075  11.162 -0.1041  0.2884  0.0183
 3205TIP3    H131030   3.518   6.139  11.134 -1.9081  0.6856 -3.9386
 3205TIP3    H231031   3.375   6.127  11.182 -0.9177 -0.4852 -1.0575
 3206TIP3   OH231032   2.350   6.240  13.838  0.1167  0.0019  0.5465
 3206TIP3    H131033   2.386   6.231  13.749 -0.9120  0.3386  0.0831
 3206TIP3    H231034   2.424   6.219  13.895  0.9699  0.3681 -0.3785
 3207TIP3   OH231035   4.992   5.901  10.622 -0.1394 -0.5063  0.4295
 3207TIP3    H131036   5.061   5.961  10.652 -1.1234 -0.2421  2.2596
 3207TIP3    H231037   4.922   5.959  10.591  0.8079 -0.7577 -2.5631
 3208TIP3   OH231038   5.880   0.632  15.786 -0.2609  0.1241  0.1548
 3208TIP3    H131039   5.795   0.654  15.746 -0.7266 -0.3329  0.8614
 3208TIP3    H231040   5.933   0.711  15.774 -0.9036  0.5452  0.0071
 3209TIP3   OH231041   1.332   1.497   5.216  0.8550  0.5914  0.1009
 3209TIP3    H131042   1.294   1.436   5.153  1.3471 -0.1690  0.5147
 3209TIP3    H231043   1.348   1.443   5.294  0.6930  1.4037  0.7033
 3210TIP3   OH231044   0.770   3.434  15.873 -0.4799 -0.3957  0.8966
 3210TIP3    H131045   0.739   3.513  15.828  0.1407 -0.8710 -0.4082
 3210TIP3    H231046   0.781   3.462  15.964  3.1081  2.1361 -0.0671
 3211TIP3   OH231047   5.713   5.271   3.143  0.0942 -0.8008  0.1323
 3211TIP3    H131048   5.792   5.220   3.129  0.9419 -0.0515  1.8763
 3211TIP3    H231049   5.742   5.362   3.143 -0.2882 -0.5699  2.9804
 3212TIP3   OH231050   5.969   5.096  16.905 -0.4752  0.2155  0.3815
 3212TIP3    H131051   5.920   5.022  16.870  0.2944  1.2970 -3.5170
 3212TIP3    H231052   6.060   5.064  16.909 -0.5501  0.1169  1.4591
 3213TIP3   OH231053   4.236   4.096  15.183 -0.0018  0.0353 -0.1306
 3213TIP3    H131054   4.238   4.191  15.193 -0.6498  0.0076  0.3131
 3213TIP3    H231055   4.189   4.064  15.260  0.4643 -0.6724 -0.1244
 3214TIP3   OH231056   6.442   0.717  14.577 -0.1528  0.8857 -0.5235
 3214TIP3    H131057   6.503   0.732  14.505 -1.3246  0.1656 -1.7264
 3214TIP3    H231058   6.489   0.743  14.656  1.5396  0.7158 -1.4486
 3215TIP3   OH231059   0.700   4.926   5.789 -0.1856  0.0302  0.0027
 3215TIP3    H131060   0.771   4.988   5.809 -0.6956  0.2411  1.2941
 3215TIP3    H231061   0.667   4.954   5.704  1.1171  0.0680 -0.5243
 3216TIP3   OH231062   4.906   6.374   0.415  0.5309  0.2973  0.4481
 3216TIP3    H131063   4.913   6.283   0.445 -2.4013  0.1379  0.9491
 3216TIP3    H231064   4.977   6.420   0.461 -0.5640 -0.9394  3.6999
 3217TIP3   OH231065   2.977   4.619   2.788 -0.6740 -0.3766  0.4288
 3217TIP3    H131066   3.049   4.645   2.731 -0.0658 -0.3511  1.1987
 3217TIP3    H231067   2.910   4.687   2.775 -0.1153  0.2002  0.5399
 3218TIP3   OH231068   4.934   1.102  14.523 -0.2018 -0.1078 -0.0524
 3218TIP3    H131069   4.889   1.030  14.477  0.1583  0.4725 -1.3751
 3218TIP3    H231070   4.864   1.163  14.546 -0.2125  0.4500 -1.4658
 3219TIP3   OH231071   6.376   0.411  15.917  0.0736 -0.1177 -0.6146
 3219TIP3    H131072   6.416   0.375  15.997  0.8073  2.1153  0.1029
 3219TIP3    H231073   6.303   0.352  15.898  0.2637 -1.0670  1.3450
 3220TIP3   OH231074   4.611   0.253   2.229 -0.1188 -0.0299  0.2031
 3220TIP3    H131075   4.636   0.171   2.187  2.2829  0.2865  0.8453
 3220TIP3    H231076   4.626   0.238   2.322 -0.8524  0.7480  0.4549
 3221TIP3   OH231077   4.504   0.965  12.320  0.0725  0.6237  0.0162
 3221TIP3    H131078   4.557   0.887  12.334 -0.3604  0.7284  2.7026
 3221TIP3    H231079   4.566   1.038  12.326 -0.0533  0.6470  1.3047
 3222TIP3   OH231080   0.295   4.429  16.666 -0.3858 -0.0455 -0.2199
 3222TIP3    H131081   0.304   4.399  16.576 -1.0320  1.4997 -0.8294
 3222TIP3    H231082   0.244   4.360  16.709  0.3120 -1.0126 -0.9032
 3223TIP3   OH231083   2.090   2.242   3.927 -0.3793  1.1322 -0.2328
 3223TIP3    H131084   2.117   2.152   3.909  0.3897  0.8316  2.0773
 3223TIP3    H231085   1.994   2.241   3.917 -0.5622 -0.3603  1.1550
 3224TIP3   OH231086   1.557   1.924  17.052 -0.2632 -0.0737  0.4199
 3224TIP3    H131087   1.484   1.877  17.093 -0.7075  1.5563  1.6157
 3224TIP3    H231088   1.627   1.859  17.046 -1.3477 -1.2984  0.5405
 3225TIP3   OH231089   5.169   3.271  16.145  0.8327  0.0755 -0.0847
 3225TIP3    H131090   5.084   3.252  16.184  0.5568 -2.2072 -1.6374
 3225TIP3    H231091   5.226   3.291  16.219 -0.8714  1.0472  1.0225
 3226TIP3   OH231092   0.420   4.323   4.869 -0.5931  0.6018  0.6525
 3226TIP3    H131093   0.447   4.280   4.788  0.0709  3.1476 -0.5801
 3226TIP3    H231094   0.350   4.382   4.842 -0.3673  1.4854  1.9281
 3227TIP3   OH231095   0.032   3.852   0.897 -0.3954  0.9306 -0.1884
 3227TIP3    H131096  -0.010   3.766   0.905  1.6698 -0.1831 -0.7660
 3227TIP3    H231097  -0.042   3.913   0.890 -1.9683 -1.0283 -2.4187
 3228TIP3   OH231098   5.534   0.743   6.064  0.0423  0.0012  0.5737
 3228TIP3    H131099   5.468   0.811   6.050  2.3337  2.0572 -1.1925
 3228TIP3    H231100   5.606   0.788   6.107  1.4223 -1.4436 -0.1131
 3229TIP3   OH231101   0.077   0.800   5.647 -0.1985 -0.5961  0.1810
 3229TIP3    H131102   0.086   0.844   5.563 -0.1429 -1.4687 -0.2846
 3229TIP3    H231103  -0.006   0.753   5.641 -0.1566 -0.7233  0.5790
 3230TIP3   OH231104   0.782   6.397   5.205 -0.8505  0.3946  0.0795
 3230TIP3    H131105   0.802   6.308   5.177  1.9254  0.9815 -0.1818
 3230TIP3    H231106   0.724   6.387   5.280  0.3768 -1.7173  0.8384
 3231TIP3   OH231107   4.310   6.714  16.959  0.1724  0.0766  0.2188
 3231TIP3    H131108   4.317   6.794  16.907  1.6245 -0.5802 -0.6625
 3231TIP3    H231109   4.392   6.668  16.943  0.9920  0.1163  3.5901
 3232TIP3   OH231110   4.795   2.151  12.513  0.2715 -0.1838 -0.1254
 3232TIP3    H131111   4.886   2.121  12.508 -0.0741 -1.2847 -0.0538
 3232TIP3    H231112   4.761   2.139  12.425  0.2011  0.2720 -0.1628
 3233TIP3   OH231113   6.459   2.408   5.897  0.3933 -0.0882  0.0326
 3233TIP3    H131114   6.413   2.330   5.865  0.2333 -0.5485  1.3322
 3233TIP3    H231115   6.482   2.456   5.818 -1.8095 -0.1298 -0.7040
 3234TIP3   OH231116   5.896   1.151  15.322  0.3113 -0.1044 -0.2777
 3234TIP3    H131117   5.932   1.205  15.392  0.0570  1.4922 -1.3083
 3234TIP3    H231118   5.826   1.100  15.363  0.7897  0.1131  0.8106
 3235TIP3   OH231119   5.765   0.341  13.491 -0.8271  0.4278 -0.1991
 3235TIP3    H131120   5.801   0.361  13.405 -1.8896 -0.6563 -0.9197
 3235TIP3    H231121   5.805   0.406  13.549  0.1307  0.9928 -1.4422
 3236TIP3   OH231122   6.677   6.754  13.079  0.0094 -0.5115  0.1804
 3236TIP3    H131123   6.679   6.841  13.040  0.0818  0.1415  1.5650
 3236TIP3    H231124   6.616   6.704  13.025 -0.2788  0.4944 -0.4416
 3237TIP3   OH231125   6.458   3.222  15.506 -0.3796 -0.7317 -0.2735
 3237TIP3    H131126   6.379   3.227  15.453  0.2316  0.2567 -1.1663
 3237TIP3    H231127   6.519   3.283  15.463  0.7924 -1.3166  0.4927
 3238TIP3   OH231128   1.334   2.623   2.584 -0.2024 -0.0109  0.1220
 3238TIP3    H131129   1.423   2.605   2.615 -0.2614  0.6833  0.7389
 3238TIP3    H231130   1.278   2.601   2.658 -0.1186  4.7689  1.9408
 3239TIP3   OH231131   5.994   5.046   0.619  0.0065  0.5596 -0.3509
 3239TIP3    H131132   5.951   5.075   0.539 -0.7146  1.1186  0.2271
 3239TIP3    H231133   6.021   5.126   0.663  0.1410  0.2711  0.1077
 3240TIP3   OH231134   0.097   4.407   5.999 -0.3404 -0.1374 -0.1299
 3240TIP3    H131135   0.179   4.364   6.022  0.4568  0.7722 -1.1297
 3240TIP3    H231136   0.031   4.363   6.052  0.0176 -4.1453 -2.5814
 3241TIP3   OH231137   5.925   2.494   2.080 -0.0605  0.2163 -0.0902
 3241TIP3    H131138   5.933   2.588   2.100  0.1891  0.4565 -1.2157
 3241TIP3    H231139   5.834   2.483   2.053 -0.0071  0.2015 -0.2663
 3242TIP3   OH231140   5.978   4.527   5.279 -0.0831  0.3609 -0.2519
 3242TIP3    H131141   6.021   4.612   5.288  1.6200 -0.3688 -1.0023
 3242TIP3    H231142   5.975   4.493   5.369 -0.5337  1.0768  0.0196
 3243TIP3   OH231143   5.237   2.914   0.337 -0.0932 -0.3856  0.0761
 3243TIP3    H131144   5.214   2.998   0.378  0.2994 -0.0970 -0.2874
 3243TIP3    H231145   5.183   2.849   0.383  0.2434 -0.0513  0.9484
 3244TIP3   OH231146   2.777   3.631   0.678  0.1823  0.6856 -0.1382
 3244TIP3    H131147   2.803   3.581   0.601 -1.9881  2.3752 -2.1395
 3244TIP3    H231148   2.841   3.703   0.683  1.7430 -0.7194  1.1703
 3245TIP3   OH231149   0.623   2.549   2.961  0.0680  0.8650 -0.5528
 3245TIP3    H131150   0.710   2.518   2.986  0.4659  1.4525 -1.1673
 3245TIP3    H231151   0.567   2.526   3.035  0.6423  0.0348 -0.3589
 3246TIP3   OH231152   1.971   3.031   4.413  0.2037 -0.3016 -0.0365
 3246TIP3    H131153   2.027   2.967   4.368 -0.9682 -0.5474 -1.2069
 3246TIP3    H231154   2.026   3.109   4.421  1.8713 -1.5642  1.9610
 3247TIP3   OH231155   6.292   6.545   4.301 -0.2552  0.4194  0.5614
 3247TIP3    H131156   6.263   6.470   4.249  0.4672 -0.1965  1.0227
 3247TIP3    H231157   6.358   6.588   4.245 -0.5030  0.5804  0.3915
 3248TIP3   OH231158   2.803   3.139  16.416  0.7947 -0.6419  0.7717
 3248TIP3    H131159   2.784   3.085  16.339 -1.2628  1.9356 -0.6986
 3248TIP3    H231160   2.732   3.118  16.477  1.1114 -0.9730  1.0361
 3249TIP3   OH231161   5.405   1.343   4.642 -0.2100  0.0475  0.0810
 3249TIP3    H131162   5.471   1.278   4.665  0.6998  0.4383 -1.3091
 3249TIP3    H231163   5.407   1.347   4.546 -2.1269  0.2189 -0.0045
 3250TIP3   OH231164   1.288   4.658  13.109  0.2416 -0.6293 -0.5270
 3250TIP3    H131165   1.358   4.686  13.050  0.7022 -0.6185  0.0095
 3250TIP3    H231166   1.333   4.639  13.192 -0.3183 -1.1662 -0.3378
 3251TIP3   OH231167   4.438   2.255  11.713  0.2116 -0.3063  0.2695
 3251TIP3    H131168   4.452   2.346  11.741  0.3395 -0.1555 -0.2656
 3251TIP3    H231169   4.525   2.217  11.709  0.0415 -1.0111  2.2569
 3252TIP3   OH231170   5.245   4.330   6.056  0.2169 -0.0213 -0.3538
 3252TIP3    H131171   5.158   4.292   6.067 -1.4305  2.7311 -2.3967
 3252TIP3    H231172   5.229   4.413   6.010  3.6679  2.0148  1.6842
 3253TIP3   OH231173   2.359   3.865  13.483 -0.0750 -0.0140 -0.0861
 3253TIP3    H131174   2.267   3.891  13.485  0.6008  2.9757  3.4514
 3253TIP3    H231175   2.371   3.813  13.563  1.1570 -1.0904 -0.9314
 3254TIP3   OH231176   2.000   4.126  16.227  0.2391 -0.0978 -0.0797
 3254TIP3    H131177   2.007   4.188  16.155  1.6099  2.2286  1.8691
 3254TIP3    H231178   1.912   4.139  16.263 -0.6068 -1.5744 -1.5055
 3255TIP3   OH231179   1.052   1.655   0.686  0.2414  0.1729 -0.1682
 3255TIP3    H131180   1.095   1.679   0.769  0.4986 -1.7387  0.3124
 3255TIP3    H231181   0.970   1.615   0.713  0.7240 -1.2700 -0.7610
 3256TIP3   OH231182   0.660   3.028   1.655 -0.2769 -0.2016  0.3522
 3256TIP3    H131183   0.635   3.074   1.736 -0.0103  0.0051  0.3185
 3256TIP3    H231184   0.749   3.059   1.636 -0.8092  0.7432 -0.7196
 3257TIP3   OH231185   0.156   4.009   3.662 -0.8644 -0.7392  0.4355
 3257TIP3    H131186   0.157   4.033   3.570 -2.0134  1.2820  0.8868
 3257TIP3    H231187   0.245   4.026   3.693 -0.7277 -0.4687 -0.1031
 3258TIP3   OH231188   4.397   2.875   0.680 -0.0716 -0.1549  0.2138
 3258TIP3    H131189   4.383   2.786   0.647  0.4412 -0.3225  0.4326
 3258TIP3    H231190   4.445   2.919   0.610 -0.5323  0.0213  0.0079
 3259TIP3   OH231191   6.036   5.230   4.438 -0.5977 -0.1446  0.0254
 3259TIP3    H131192   6.083   5.302   4.481 -0.3455 -0.0346 -0.4204
 3259TIP3    H231193   6.083   5.151   4.466 -1.0422 -0.1601  0.7298
 3260TIP3   OH231194   5.269   5.351  15.853 -0.2910  0.1174  0.1733
 3260TIP3    H131195   5.349   5.311  15.820 -0.5334  0.0385 -0.3392
 3260TIP3    H231196   5.218   5.370  15.774  0.2968  2.5232  0.2888
 3261TIP3   OH231197   4.094   3.711   0.116  0.5712 -0.5634  0.0198
 3261TIP3    H131198   4.107   3.668   0.201 -0.2258  0.8702  0.9043
 3261TIP3    H231199   4.000   3.723   0.109  0.8297  2.9949  0.8933
 3262TIP3   OH231200   3.549   5.259  12.119  0.1248  0.4052 -0.7040
 3262TIP3    H131201   3.622   5.235  12.061 -0.3870 -0.4816 -0.9901
 3262TIP3    H231202   3.482   5.292  12.059 -0.4817 -0.6982 -0.6516
 3263TIP3   OH231203   2.148   2.440  12.950 -0.1991  0.3379 -0.3152
 3263TIP3    H131204   2.087   2.402  13.014  1.4419 -3.6045 -0.7880
 3263TIP3    H231205   2.099   2.440  12.868  0.0340 -2.1596 -0.5504
 3264TIP3   OH231206   5.667   0.350  14.041 -0.2633 -0.5216  0.7165
 3264TIP3    H131207   5.677   0.433  13.995  1.7867 -1.0613  0.0773
 3264TIP3    H231208   5.696   0.284  13.978  0.2285 -1.5161  1.9384
 3265TIP3   OH231209   1.105   0.652  12.222 -0.0088 -0.3667 -0.2590
 3265TIP3    H131210   1.077   0.635  12.132 -0.7468 -0.5093 -0.0036
 3265TIP3    H231211   1.052   0.726  12.251  0.9235  0.3318 -0.2645
 3266TIP3   OH231212   4.612   2.725   3.680 -0.5090 -0.4998  0.2417
 3266TIP3    H131213   4.699   2.720   3.641 -0.7407 -1.2263 -0.2128
 3266TIP3    H231214   4.562   2.783   3.623 -0.4349 -0.4101  0.2695
 3267TIP3   OH231215   1.521   1.890  14.113  0.2225  0.6077 -0.3513
 3267TIP3    H131216   1.581   1.912  14.184  0.8521 -2.0959  0.0577
 3267TIP3    H231217   1.569   1.912  14.033  0.5712  1.1601 -0.0027
 3268TIP3   OH231218   1.305   2.688   4.019  0.2080  0.0205  0.5221
 3268TIP3    H131219   1.247   2.765   4.022 -1.4135 -1.1128 -0.2288
 3268TIP3    H231220   1.245   2.614   4.013  1.7231 -1.3467  1.4626
 3269TIP3   OH231221   0.349   1.771   5.411  0.0857 -0.7548 -0.0209
 3269TIP3    H131222   0.281   1.780   5.345  0.4561 -0.3122 -0.3489
 3269TIP3    H231223   0.400   1.695   5.383 -0.8319 -1.6837  0.7449
 3270TIP3   OH231224   3.173   1.651  14.270  0.1466  1.0824  0.5120
 3270TIP3    H131225   3.263   1.649  14.303 -0.2053  1.1296  1.4836
 3270TIP3    H231226   3.170   1.732  14.218  1.5948 -0.5198 -2.3212
 3271TIP3   OH231227   0.912   2.973  13.163  0.3173  0.1172  0.2353
 3271TIP3    H131228   0.925   3.068  13.171 -0.3656  0.2878 -0.5974
 3271TIP3    H231229   0.996   2.940  13.131  0.2093  0.5895 -0.5572
 3272TIP3   OH231230   1.649   2.960  12.787  0.0501 -0.4556 -0.1908
 3272TIP3    H131231   1.641   2.865  12.792 -1.4412 -0.4391 -1.4110
 3272TIP3    H231232   1.675   2.978  12.697  0.1204  0.3045 -0.0299
 3273TIP3   OH231233   4.894   3.225  16.248  0.5825  0.3247  0.5186
 3273TIP3    H131234   4.867   3.230  16.157  2.1525 -0.9147 -0.0596
 3273TIP3    H231235   4.832   3.164  16.288  0.6756 -0.1259 -0.0241
 3274TIP3   OH231236   2.163   2.259   1.728 -0.3199 -0.2653 -0.3055
 3274TIP3    H131237   2.067   2.256   1.734 -0.3946  1.3977 -0.0208
 3274TIP3    H231238   2.183   2.353   1.730  1.2801 -0.5721 -1.0233
 3275TIP3   OH231239   3.324   3.697  17.067  0.1417 -0.2534  0.5430
 3275TIP3    H131240   3.381   3.772  17.084  0.1221  0.1659 -1.0986
 3275TIP3    H231241   3.378   3.636  17.018 -0.8903  0.3630 -1.4660
 3276TIP3   OH231242   0.845   1.558  10.904 -0.4291  0.5029  1.0602
 3276TIP3    H131243   0.858   1.467  10.876  0.2119  1.4140 -2.0329
 3276TIP3    H231244   0.926   1.581  10.949  0.6127  0.2747 -0.5872
 3277TIP3   OH231245   4.667   2.502  15.633  0.1729 -0.1197  0.9570
 3277TIP3    H131246   4.625   2.432  15.583 -0.5262  0.1123  1.2096
 3277TIP3    H231247   4.653   2.580  15.580  1.7344 -0.2958  0.2315
 3278TIP3   OH231248   0.489   5.215   1.618  0.3092 -0.2785 -0.1412
 3278TIP3    H131249   0.528   5.260   1.693 -0.0941  0.4506 -0.3508
 3278TIP3    H231250   0.539   5.246   1.542 -1.2312  1.4526 -0.5394
 3279TIP3   OH231251   3.287   1.151  16.505  0.9975  0.3020  0.0084
 3279TIP3    H131252   3.231   1.074  16.516  0.0999  1.0609  1.0034
 3279TIP3    H231253   3.244   1.219  16.558  2.0156  1.3521 -0.4813
 3280TIP3   OH231254   4.587   4.121  11.742  0.1439  0.0142 -0.3241
 3280TIP3    H131255   4.496   4.097  11.752 -0.2103  0.5773 -1.9222
 3280TIP3    H231256   4.622   4.061  11.676  0.8583  0.0013  0.0442
 3281TIP3   OH231257   5.462   4.468  12.166 -0.1037  0.2183  0.4507
 3281TIP3    H131258   5.366   4.469  12.170 -0.1750  0.8427 -0.8779
 3281TIP3    H231259   5.482   4.460  12.073  1.1459 -0.1097  0.7281
 3282TIP3   OH231260   6.555   2.700  11.138  1.0792  0.1221  0.9297
 3282TIP3    H131261   6.650   2.709  11.147  0.8940  1.4138  2.0418
 3282TIP3    H231262   6.532   2.759  11.067  1.0620  0.1756  0.9796
 3283TIP3   OH231263   2.166   0.121   2.199  0.3743  0.3552 -0.1373
 3283TIP3    H131264   2.194   0.190   2.259  3.5522 -1.3267  0.5744
 3283TIP3    H231265   2.146   0.047   2.256  0.6359 -0.4230 -1.0341
 3284TIP3   OH231266   2.030   0.541  14.371  0.4995  0.6778 -0.1275
 3284TIP3    H131267   2.115   0.579  14.397  1.1299  0.0852 -1.2586
 3284TIP3    H231268   1.991   0.608  14.315  1.1882  0.0997 -1.3416
 3285TIP3   OH231269   5.113   3.754   5.085  0.5833  0.3780  0.0295
 3285TIP3    H131270   5.061   3.833   5.074 -0.5354 -0.5246 -1.5958
 3285TIP3    H231271   5.135   3.726   4.996  0.8486 -1.1904  0.5394
 3286TIP3   OH231272   0.626   0.304  15.571 -0.0118  0.0545 -0.1594
 3286TIP3    H131273   0.536   0.286  15.546  0.1735 -0.4551 -0.4888
 3286TIP3    H231274   0.678   0.244  15.517  0.5338  0.4823 -0.1188
 3287TIP3   OH231275   1.988   3.198   2.640  0.1567  0.8559 -0.3444
 3287TIP3    H131276   2.033   3.138   2.700  1.6140  2.1575 -0.0592
 3287TIP3    H231277   2.033   3.187   2.557 -0.1702  0.9040 -0.5296
 3288TIP3   OH231278   1.499   1.008  13.268 -0.3833  0.3022  0.5690
 3288TIP3    H131279   1.576   1.049  13.308  0.7768 -0.6209 -0.6122
 3288TIP3    H231280   1.488   1.054  13.185 -1.9009  1.2580  1.2686
 3289TIP3   OH231281   4.842   3.630  16.013  0.2959  0.5813  0.0713
 3289TIP3    H131282   4.930   3.655  16.041 -0.0299  1.8697 -0.0102
 3289TIP3    H231283   4.787   3.651  16.088 -0.3519  2.5564 -0.9124
 3290TIP3   OH231284   0.335   1.258  15.159  0.0247  0.2129 -0.3944
 3290TIP3    H131285   0.387   1.201  15.215  0.7326  1.7181  0.5600
 3290TIP3    H231286   0.278   1.306  15.220 -1.1408 -0.0461 -1.2433
 3291TIP3   OH231287   0.618   2.915  16.534 -0.3302  0.1682 -0.3327
 3291TIP3    H131288   0.600   2.952  16.620  0.7245  1.0799 -0.4794
 3291TIP3    H231289   0.536   2.927  16.486 -0.3565  1.3710 -0.0280
 3292TIP3   OH231290   5.164   0.509  15.380 -0.0376 -0.6166 -0.5060
 3292TIP3    H131291   5.166   0.426  15.333 -1.2899 -0.7602 -0.3236
 3292TIP3    H231292   5.243   0.507  15.434 -0.2426 -1.8457 -0.2282
 3293TIP3   OH231293   3.566   2.623  12.195  0.1234  0.0654  0.4041
 3293TIP3    H131294   3.599   2.533  12.188  0.8163  0.3894 -0.8677
 3293TIP3    H231295   3.571   2.643  12.288  1.3043 -0.7347  0.5430
 3294TIP3   OH231296   0.576   0.650  15.947  0.0237  0.2697  0.1264
 3294TIP3    H131297   0.492   0.610  15.926  0.3162 -0.9399  1.1696
 3294TIP3    H231298   0.568   0.675  16.039  0.9174 -0.1799  0.3370
 3295TIP3   OH231299   1.860   2.677  11.989 -0.6788 -0.1194 -0.2565
 3295TIP3    H131300   1.780   2.728  11.999  0.0505  0.7517  1.4715
 3295TIP3    H231301   1.872   2.671  11.894 -2.7003 -0.1723 -0.5482
 3296TIP3   OH231302   4.078   2.514   7.153  0.2613  0.8002 -0.0018
 3296TIP3    H131303   4.043   2.439   7.104  2.7436  0.6642 -1.7623
 3296TIP3    H231304   4.120   2.474   7.230  2.2515  0.1959 -1.3252
 3297TIP3   OH231305   3.338   3.604  16.278  0.5309  0.0453  0.3605
 3297TIP3    H131306   3.300   3.674  16.331 -0.9769  0.6698 -1.4686
 3297TIP3    H231307   3.305   3.523  16.318 -0.1517  0.4866  0.7051
 3298TIP3   OH231308   4.212   5.912  10.973  0.0596 -0.0751 -0.0047
 3298TIP3    H131309   4.203   5.830  11.022 -0.8831 -0.4597 -0.7978
 3298TIP3    H231310   4.220   5.884  10.882  0.9318  0.6711 -0.1709
 3299TIP3   OH231311   2.242   0.613   5.315  0.6175 -0.1596 -0.4364
 3299TIP3    H131312   2.147   0.623   5.315  0.6507  0.3659  0.8825
 3299TIP3    H231313   2.260   0.564   5.396  1.5715  1.0578  0.1172
 3300TIP3   OH231314   0.097   0.156  13.996 -0.3405  0.0956  0.4185
 3300TIP3    H131315   0.018   0.170  13.943  0.4407 -1.2059 -1.2198
 3300TIP3    H231316   0.065   0.122  14.079 -1.5430  0.2739  0.0453
 3301TIP3   OH231317   5.456   4.783  10.936  0.4319  0.0424 -0.2584
 3301TIP3    H131318   5.527   4.722  10.952 -1.7258 -2.7638 -0.7056
 3301TIP3    H231319   5.446   4.785  10.841  1.1064  2.0146 -0.3512
 3302TIP3   OH231320   1.041   5.540  12.627 -0.3749  0.2594  0.2849
 3302TIP3    H131321   1.004   5.628  12.636  0.2102  0.3576  2.0770
 3302TIP3    H231322   0.968   5.487  12.596 -1.4726  0.8619  1.7459
 3303TIP3   OH231323   5.960   3.332  11.333 -0.2860 -0.3035  0.1599
 3303TIP3    H131324   5.980   3.396  11.265  1.5639 -1.5165 -0.4940
 3303TIP3    H231325   6.016   3.356  11.407  0.0359 -0.8643  0.1003
 3304TIP3   OH231326   0.268   0.044   4.242  0.2619  0.1776  0.0094
 3304TIP3    H131327   0.337   0.109   4.250 -0.7112  1.1427  0.8177
 3304TIP3    H231328   0.218   0.072   4.166  0.2052  0.0179 -0.0123
 3305TIP3   OH231329   4.029   6.569   2.726 -0.0193 -0.5145  0.0860
 3305TIP3    H131330   3.934   6.554   2.731  0.2654 -2.4146  0.6673
 3305TIP3    H231331   4.061   6.546   2.813  0.9718  0.2730 -0.0597
 3306TIP3   OH231332   1.462   6.627   4.393  0.3093  0.3980 -0.2501
 3306TIP3    H131333   1.448   6.558   4.459 -1.2831  0.0145 -0.9399
 3306TIP3    H231334   1.520   6.586   4.329 -2.3109 -1.2183 -1.8043
 3307TIP3   OH231335   4.451   5.001   0.971  0.0528  0.1740  0.1745
 3307TIP3    H131336   4.408   4.985   0.887 -1.1573 -0.6173  0.8998
 3307TIP3    H231337   4.439   5.094   0.987  0.3888  0.3495 -0.5764
 3308TIP3   OH231338   1.468   4.019  17.114 -0.0886  0.2356  0.2835
 3308TIP3    H131339   1.401   4.025  17.046 -0.5787 -2.4118  0.4108
 3308TIP3    H231340   1.551   4.028  17.067 -0.4504 -0.7153 -0.5941
 3309TIP3   OH231341   0.425   2.548   3.670  0.1177 -0.7378  1.0722
 3309TIP3    H131342   0.444   2.458   3.696 -1.0384 -0.5798  2.6148
 3309TIP3    H231343   0.425   2.597   3.752  0.9308  0.7334  0.2401
 3310TIP3   OH231344   0.956   0.865  13.533 -0.0150 -0.1070 -0.3760
 3310TIP3    H131345   1.043   0.870  13.494  0.3970 -1.1408  0.3587
 3310TIP3    H231346   0.916   0.949  13.512  1.0365  0.2607 -1.0102
 3311TIP3   OH231347   4.099   3.696   6.655  0.3859 -0.2048  0.2497
 3311TIP3    H131348   4.163   3.674   6.587  0.5860 -0.8809  0.6401
 3311TIP3    H231349   4.052   3.613   6.671 -1.9382  0.6763 -1.3847
 3312TIP3   OH231350   0.219   1.699   2.762 -0.4326 -0.0583 -0.2158
 3312TIP3    H131351   0.195   1.733   2.676 -0.1315  1.5313  0.3022
 3312TIP3    H231352   0.187   1.765   2.824  1.8537  0.2482  0.7211
 3313TIP3   OH231353   0.481   5.156  12.686 -0.3584  0.1348 -0.2600
 3313TIP3    H131354   0.565   5.192  12.711 -0.7557  0.7531  0.2103
 3313TIP3    H231355   0.502   5.078  12.635  0.4861 -1.0960  1.8627
 3314TIP3   OH231356   3.446   1.289   2.514  0.2578  0.3862  0.4304
 3314TIP3    H131357   3.448   1.211   2.458  2.1686 -0.0224  0.9597
 3314TIP3    H231358   3.464   1.362   2.455 -0.0686  0.2396  0.1496
 3315TIP3   OH231359   5.628   2.668  16.517  0.6141  0.1434 -0.5819
 3315TIP3    H131360   5.677   2.744  16.487  2.0588 -0.3285  0.4669
 3315TIP3    H231361   5.692   2.614  16.563 -0.7987 -0.7314  0.4731
 3316TIP3   OH231362   2.986   0.982  13.547  0.2513  0.5032  0.5067
 3316TIP3    H131363   2.994   0.886  13.547  0.1868  0.4978  0.5235
 3316TIP3    H231364   2.907   0.999  13.597 -0.5865  0.4864 -0.7546
 3317TIP3   OH231365   3.521   5.893   4.333 -0.6042  0.1269  0.1464
 3317TIP3    H131366   3.543   5.812   4.378  0.5800  0.8847  0.9885
 3317TIP3    H231367   3.477   5.946   4.400 -0.7386  0.4631 -0.2014
 3318TIP3   OH231368   6.725   6.366  17.118 -0.4837  0.0065  0.1916
 3318TIP3    H131369   6.759   6.399  17.035  0.0529  2.9195  1.4397
 3318TIP3    H231370   6.787   6.296  17.143 -0.4868 -0.6977 -1.6455
 3319TIP3   OH231371   6.749   0.897  14.495 -0.3082  0.1198 -0.4393
 3319TIP3    H131372   6.787   0.852  14.571 -1.6877 -0.4367 -0.0339
 3319TIP3    H231373   6.709   0.827  14.443 -2.8311  0.8136  0.3893
 3320TIP3   OH231374   6.638   4.417  13.006  0.0681  0.3214 -0.9873
 3320TIP3    H131375   6.705   4.436  13.072 -1.1972 -0.7068  0.6985
 3320TIP3    H231376   6.636   4.321  13.001  0.2513  0.3913 -2.6705
 3321TIP3   OH231377   2.725   0.217   2.127  0.1438  0.6185 -0.6376
 3321TIP3    H131378   2.802   0.201   2.072 -0.2924  1.0046 -1.3628
 3321TIP3    H231379   2.728   0.147   2.192  0.5396  0.0229 -1.2832
 3322TIP3   OH231380   6.010   1.054   2.578  0.0956 -0.1458  0.0308
 3322TIP3    H131381   6.073   1.029   2.646 -0.1877 -1.9047 -0.3104
 3322TIP3    H231382   6.035   1.144   2.555  3.0789 -1.0274 -0.6952
 3323TIP3   OH231383   0.658   6.228  16.786 -0.6029  0.5502  0.0828
 3323TIP3    H131384   0.722   6.191  16.725 -0.6465 -0.3656  0.5829
 3323TIP3    H231385   0.709   6.251  16.864 -0.8077  0.2319  0.3122
 3324TIP3   OH231386   2.313   6.264   4.311  0.3425 -0.3917 -0.2352
 3324TIP3    H131387   2.376   6.193   4.330 -1.4429 -1.8806  0.4462
 3324TIP3    H231388   2.241   6.220   4.266 -0.2835  1.2521 -0.9037
 3325TIP3   OH231389   3.822   5.913   3.935 -0.8463  1.1361 -0.4468
 3325TIP3    H131390   3.758   5.883   3.870  1.4538 -1.0602 -1.8883
 3325TIP3    H231391   3.835   6.006   3.915 -0.0286  0.4771 -3.3925
 3326TIP3   OH231392   0.654   1.016   5.369 -0.6471 -0.1356 -0.0829
 3326TIP3    H131393   0.667   0.926   5.401 -1.3813 -0.1335  0.2471
 3326TIP3    H231394   0.671   1.011   5.275  0.6394 -0.3361  0.1388
 3327TIP3   OH231395   6.254   6.006   5.287 -0.2241 -1.1278 -0.3395
 3327TIP3    H131396   6.222   6.061   5.216  0.0491  1.5736  1.4875
 3327TIP3    H231397   6.344   5.984   5.262  0.7077  1.7811  0.1485
 3328TIP3   OH231398   3.963   4.081  13.819 -0.2316 -0.4308 -0.7013
 3328TIP3    H131399   3.889   4.059  13.763 -0.5593  0.6878 -0.7289
 3328TIP3    H231400   4.022   4.007  13.811 -0.8454 -0.8439 -1.5421
 3329TIP3   OH231401   5.760   2.138  12.802  0.1774 -0.0480 -0.1819
 3329TIP3    H131402   5.729   2.060  12.756  0.4226  0.3501 -1.0401
 3329TIP3    H231403   5.840   2.163  12.757 -0.7079  1.5964 -0.9465
 3330TIP3   OH231404   0.391   5.357  16.109  0.0286 -0.1611  0.7324
 3330TIP3    H131405   0.447   5.319  16.042  1.9999  0.6445  1.8629
 3330TIP3    H231406   0.314   5.387  16.062  0.8137 -0.7223 -0.9651
 3331TIP3   OH231407   4.531   2.625   5.042  0.3641  0.1774  0.6070
 3331TIP3    H131408   4.436   2.631   5.028  0.2481 -0.8084  0.8964
 3331TIP3    H231409   4.540   2.572   5.122  1.1467  0.8482  0.9829
 3332TIP3   OH231410   5.098   0.108   3.699  0.7147  0.1175  0.4185
 3332TIP3    H131411   5.112   0.184   3.756  1.4483 -0.4063  0.9584
 3332TIP3    H231412   5.171   0.112   3.637 -0.4225  1.0390 -0.9126
 3333TIP3   OH231413   6.750   1.476  11.435 -0.0905 -0.8221  0.0133
 3333TIP3    H131414   6.794   1.557  11.463 -0.1820 -1.2859  1.5774
 3333TIP3    H231415   6.821   1.416  11.416 -0.0302 -0.7241 -0.0727
 3334TIP3   OH231416   4.281   6.159   4.615  0.7039 -0.0113 -0.1032
 3334TIP3    H131417   4.196   6.183   4.577 -0.0426 -2.1042  0.1181
 3334TIP3    H231418   4.329   6.120   4.543  0.9053 -0.1913  0.1304
 3335TIP3   OH231419   2.392   4.769   5.919  0.0003  0.3790  0.2590
 3335TIP3    H131420   2.374   4.754   5.826  2.1416  0.8393 -0.2911
 3335TIP3    H231421   2.308   4.796   5.956 -0.8829  0.2716 -1.5632
 3336TIP3   OH231422   4.793   2.467  15.214 -0.0686 -0.1600 -0.0275
 3336TIP3    H131423   4.805   2.524  15.290  0.4524  1.1444 -1.0492
 3336TIP3    H231424   4.876   2.474  15.166 -0.0914 -1.6011 -0.3108
 3337TIP3   OH231425   5.675   3.412   3.239  0.0525 -0.6711 -0.2679
 3337TIP3    H131426   5.710   3.471   3.306 -0.0834 -0.2254 -0.5826
 3337TIP3    H231427   5.610   3.359   3.284 -0.2163 -0.2034 -0.0987
 3338TIP3   OH231428   5.714   2.146  16.401  0.0998  0.1993 -0.3257
 3338TIP3    H131429   5.674   2.060  16.415 -0.1075  0.3263 -0.1164
 3338TIP3    H231430   5.760   2.138  16.318 -0.1709 -0.0231 -0.4579
 3339TIP3   OH231431   0.224   2.240  12.837  0.0417 -0.2792 -0.0423
 3339TIP3    H131432   0.201   2.308  12.901  1.7772  1.5651 -1.2333
 3339TIP3    H231433   0.143   2.191  12.824 -1.1784  1.2626  1.2469
 3340TIP3   OH231434   2.844   4.356   4.788 -0.0806  0.8777 -0.3988
 3340TIP3    H131435   2.776   4.290   4.797  0.2041  0.5504 -0.6025
 3340TIP3    H231436   2.797   4.438   4.771 -0.3967  0.5575 -1.0870
 3341TIP3   OH231437   4.514   3.345   1.940  0.5958 -0.1959  0.3010
 3341TIP3    H131438   4.427   3.378   1.918  1.4984  0.8299 -2.0657
 3341TIP3    H231439   4.567   3.363   1.862  2.5875 -2.0895  1.1226
 3342TIP3   OH231440   2.312   3.790   5.794  0.4163  1.2386  0.1257
 3342TIP3    H131441   2.222   3.821   5.809 -0.2828 -0.8458  0.5699
 3342TIP3    H231442   2.302   3.716   5.735  1.9137  1.2428 -0.1594
 3343TIP3   OH231443   4.184   0.121   0.602 -0.2590 -0.5700  0.4389
 3343TIP3    H131444   4.258   0.061   0.598  1.4040  1.4061  0.0594
 3343TIP3    H231445   4.195   0.168   0.685 -2.2637 -1.6110  1.3666
 3344TIP3   OH231446   6.590   0.043   3.906  0.1599  0.4723 -0.0528
 3344TIP3    H131447   6.550   0.092   3.978  3.4062  2.2390  0.7342
 3344TIP3    H231448   6.638  -0.028   3.948  0.4022  0.2594 -0.6787
 3345TIP3   OH231449   1.944   5.779  12.144 -0.0071 -0.0804  0.2200
 3345TIP3    H131450   1.945   5.774  12.239  0.6669 -0.3937  0.2022
 3345TIP3    H231451   2.033   5.803  12.119 -0.1705 -0.0175 -0.3329
 3346TIP3   OH231452   2.767   5.562   0.463  0.0326  0.4092  0.4542
 3346TIP3    H131453   2.706   5.498   0.500 -1.2490  2.7281  2.7093
 3346TIP3    H231454   2.740   5.572   0.372 -1.6127 -0.1375  0.8554
 3347TIP3   OH231455   3.897   0.452  12.291 -0.0756  0.0266 -0.1999
 3347TIP3    H131456   3.878   0.490  12.377 -0.3223 -0.1301 -0.1854
 3347TIP3    H231457   3.991   0.468  12.278  0.0977 -0.4848  0.3622
 3348TIP3   OH231458   1.867   3.512  16.863 -0.3754 -0.3756 -0.0468
 3348TIP3    H131459   1.947   3.473  16.828 -1.0604 -1.8976 -0.0333
 3348TIP3    H231460   1.888   3.531  16.955 -0.7467 -3.2208  0.7297
 3349TIP3   OH231461   2.703   0.197  13.165 -0.1822 -0.0364  0.2188
 3349TIP3    H131462   2.689   0.110  13.202  0.4132 -0.2901 -0.1338
 3349TIP3    H231463   2.678   0.257  13.235  1.2506 -0.5058  1.1763
 3350TIP3   OH231464   3.887   4.239  12.419  0.3733 -0.6508 -0.3978
 3350TIP3    H131465   3.872   4.162  12.364  1.8229 -1.5566  0.4319
 3350TIP3    H231466   3.849   4.216  12.504 -0.1109 -0.0210 -0.4325
 3351TIP3   OH231467   1.672   0.955  14.616 -0.3452  0.5452 -0.4858
 3351TIP3    H131468   1.649   0.868  14.583 -2.6658  0.8168  0.2483
 3351TIP3    H231469   1.759   0.944  14.654 -1.5149 -2.1056  1.7726
 3352TIP3   OH231470   4.876   2.671   5.143 -0.0955  0.1760  0.2770
 3352TIP3    H131471   4.889   2.576   5.146  0.0866  0.1761 -0.3048
 3352TIP3    H231472   4.822   2.686   5.066  0.5274  0.6041 -0.0937
 3353TIP3   OH231473   2.176   5.147  15.671 -0.0827 -0.3128 -0.3119
 3353TIP3    H131474   2.113   5.115  15.606  0.9380  0.6921 -1.8477
 3353TIP3    H231475   2.258   5.104  15.649 -0.0746 -1.2424  1.3808
 3354TIP3   OH231476   4.086   4.832  12.093  0.5096 -0.3369 -0.0837
 3354TIP3    H131477   4.021   4.777  12.050  0.1984  1.5675 -2.2356
 3354TIP3    H231478   4.166   4.820  12.041  0.9421 -0.1113  0.5181
 3355TIP3   OH231479   4.458   4.230   5.213 -0.2516 -0.0610 -0.0330
 3355TIP3    H131480   4.496   4.188   5.291  0.2709  0.4609  0.0052
 3355TIP3    H231481   4.364   4.233   5.231 -0.0207  1.1969  1.1670
 3356TIP3   OH231482   4.873   1.279  12.628 -0.0953  0.7330 -0.5329
 3356TIP3    H131483   4.830   1.254  12.710  1.0090 -0.6598 -0.3305
 3356TIP3    H231484   4.828   1.358  12.600 -0.1854  1.5439  1.6908
 3357TIP3   OH231485   0.351   3.856   2.518 -0.7127  0.1686 -0.2126
 3357TIP3    H131486   0.278   3.794   2.526 -1.5541  0.9233 -1.6518
 3357TIP3    H231487   0.324   3.916   2.448  0.9839  0.9082 -0.2765
 3358TIP3   OH231488   5.933   3.891   4.858 -0.5004 -0.1614  0.2552
 3358TIP3    H131489   5.881   3.813   4.840  0.7122 -1.2377  1.2726
 3358TIP3    H231490   5.940   3.935   4.773 -1.7169 -0.8046 -0.2049
 3359TIP3   OH231491   3.406   2.464  17.068 -0.3361 -0.2078 -0.5116
 3359TIP3    H131492   3.319   2.472  17.108 -0.7647 -0.6301 -1.3391
 3359TIP3    H231493   3.394   2.403  16.996  0.6362 -0.1945 -0.7004
 3360TIP3   OH231494   1.493   2.263   4.992 -0.3727  0.0656  0.3684
 3360TIP3    H131495   1.488   2.205   5.068  0.3299  1.3632  1.4537
 3360TIP3    H231496   1.587   2.270   4.975 -0.4337  0.9719  0.3536
 3361TIP3   OH231497   6.476   2.166  16.185  0.1408 -0.0394 -0.1427
 3361TIP3    H131498   6.452   2.197  16.098 -1.2075  0.8703  0.5136
 3361TIP3    H231499   6.463   2.242  16.242  0.6253 -0.7193  0.9190
 3362TIP3   OH231500   3.353   3.378  17.192  0.2676 -0.1250 -0.5095
 3362TIP3    H131501   3.271   3.406  17.232 -0.2316 -1.2954 -0.6814
 3362TIP3    H231502   3.327   3.312  17.128  1.5055 -2.3313  1.1245
 3363TIP3   OH231503   1.440   3.110   2.176 -0.5675 -0.3500 -0.5689
 3363TIP3    H131504   1.504   3.181   2.179 -0.6066 -0.3317 -0.0317
 3363TIP3    H231505   1.481   3.039   2.224 -0.9329 -0.3507 -0.2493
 3364TIP3   OH231506   1.904   5.169  12.220 -0.9185 -0.4109  0.2828
 3364TIP3    H131507   1.901   5.220  12.139 -0.7848  0.5281  0.8523
 3364TIP3    H231508   1.983   5.199  12.265 -0.5760 -1.4703  0.4223
 3365TIP3   OH231509   0.927   6.575  14.443 -0.0983  0.2977  0.0160
 3365TIP3    H131510   0.933   6.481  14.431  0.1925  0.4434 -1.1303
 3365TIP3    H231511   0.843   6.599  14.404  0.1806  0.6017 -0.4133
 3366TIP3   OH231512   1.045   3.746  16.657 -0.6984  0.2192 -0.1007
 3366TIP3    H131513   1.003   3.718  16.576 -0.5972  1.2036 -0.5000
 3366TIP3    H231514   0.972   3.758  16.718 -0.6923 -1.7442  0.3755
 3367TIP3   OH231515   5.046   3.124  11.647  0.1794 -0.1187  0.0055
 3367TIP3    H131516   5.070   3.134  11.555 -0.0170 -0.4688 -0.0881
 3367TIP3    H231517   5.009   3.035  11.652 -0.0741  0.0067  0.3652
 3368TIP3   OH231518   6.042   3.127  11.557 -0.5202  0.1613  0.0711
 3368TIP3    H131519   6.002   3.134  11.470  0.0483  0.7293 -0.1553
 3368TIP3    H231520   6.012   3.204  11.604 -1.1611 -0.3605  0.5274
 3369TIP3   OH231521   0.005   2.304   6.437 -0.0765 -0.2157 -0.2329
 3369TIP3    H131522  -0.059   2.255   6.385 -0.1682 -1.6597  1.1464
 3369TIP3    H231523  -0.040   2.384   6.462 -1.1799 -0.9693  0.2803
 3370TIP3   OH231524   4.649   0.884  10.844  0.1843 -0.0722  0.5713
 3370TIP3    H131525   4.603   0.830  10.779  0.5156  0.8081 -0.4283
 3370TIP3    H231526   4.711   0.823  10.885  1.3002 -0.2611 -1.2848
 3371TIP3   OH231527   3.799   0.206   5.450 -0.0825 -0.5801  0.1238
 3371TIP3    H131528   3.841   0.224   5.534 -1.1730  1.2321  0.3434
 3371TIP3    H231529   3.864   0.155   5.401  1.4123  0.0977  1.3039
 3372TIP3   OH231530   1.427   2.846   6.708  0.8957  0.6578  0.8899
 3372TIP3    H131531   1.343   2.879   6.676  0.6256 -0.8367 -0.0600
 3372TIP3    H231532   1.453   2.780   6.644  1.4752 -0.8204  2.5623
 3373TIP3   OH231533   6.384   5.572   2.419 -0.9405  0.0738 -0.2677
 3373TIP3    H131534   6.416   5.627   2.348 -0.5330 -0.6674 -0.6643
 3373TIP3    H231535   6.337   5.633   2.477  1.5045  1.2828  0.5655
 3374TIP3   OH231536   3.044   3.536   4.242 -0.4894 -0.3952  0.0050
 3374TIP3    H131537   3.031   3.518   4.149 -1.6366 -1.6461  0.3798
 3374TIP3    H231538   3.131   3.502   4.261 -0.5043 -0.7088 -0.4803
 3375TIP3   OH231539   0.696   4.967  15.097 -0.0923 -0.0188  0.4263
 3375TIP3    H131540   0.707   4.925  15.012 -1.6355  0.1509  0.1096
 3375TIP3    H231541   0.723   5.058  15.082  0.0115 -0.0816  0.2266
 3376TIP3   OH231542   6.267   4.184   2.378 -0.4954  0.4296  0.0641
 3376TIP3    H131543   6.225   4.185   2.464  0.3407  0.2386  0.4782
 3376TIP3    H231544   6.242   4.267   2.338 -3.0343 -0.5439 -0.5769
 3377TIP3   OH231545   1.477   1.742  15.459 -0.0105 -0.7748  0.3136
 3377TIP3    H131546   1.421   1.798  15.512  1.0385  0.5558  0.0813
 3377TIP3    H231547   1.443   1.749  15.370  2.8829  3.5517 -0.7440
 3378TIP3   OH231548   1.611   0.476  11.594  0.0579  0.0250  0.6371
 3378TIP3    H131549   1.555   0.440  11.526 -0.3642 -0.1340  1.0614
 3378TIP3    H231550   1.651   0.553  11.554  0.0431 -0.2353  0.1165
 3379TIP3   OH231551   2.381   5.816  13.682  0.2125 -0.0152 -0.2255
 3379TIP3    H131552   2.333   5.853  13.757 -0.1925  0.5819 -0.7708
 3379TIP3    H231553   2.343   5.729  13.670  4.0376 -2.6350  3.7985
 3380TIP3   OH231554   2.717   1.929  11.421  0.0461 -0.4755 -0.2999
 3380TIP3    H131555   2.634   1.975  11.407  0.2405  0.1733  0.5760
 3380TIP3    H231556   2.693   1.848  11.465  0.0086  0.7430  2.1277
 3381TIP3   OH231557   1.928   1.209   5.798  1.0990  0.1086  0.3110
 3381TIP3    H131558   1.972   1.249   5.874  2.2984 -0.5779  0.0030
 3381TIP3    H231559   1.959   1.118   5.798  2.8168  0.5904 -2.2011
 3382TIP3   OH231560   3.112   3.359   3.111 -0.6811 -0.5738 -0.0671
 3382TIP3    H131561   3.047   3.348   3.180 -0.3196  1.2690  0.6395
 3382TIP3    H231562   3.190   3.315   3.144 -0.6569 -0.1190  0.4847
 3383TIP3   OH231563   4.774   2.537   2.465  0.2528 -0.0489 -0.3192
 3383TIP3    H131564   4.698   2.490   2.431 -0.0612  0.4145 -0.2677
 3383TIP3    H231565   4.739   2.591   2.536  0.6435  0.1104 -0.2450
 3384TIP3   OH231566   1.256   0.990   2.780  0.1160 -0.7304  0.0785
 3384TIP3    H131567   1.269   1.022   2.870 -1.4350 -1.4148  0.5816
 3384TIP3    H231568   1.340   0.952   2.756  1.2212  1.2947  0.4373
 3385TIP3   OH231569   5.735   0.227  15.810 -0.2321 -0.1341  0.4689
 3385TIP3    H131570   5.703   0.245  15.898  0.9149  0.2861  0.8228
 3385TIP3    H231571   5.665   0.255  15.752 -0.7034  0.2779  1.2223
 3386TIP3   OH231572   6.432   5.380  15.790 -0.2177  0.0956 -0.3795
 3386TIP3    H131573   6.352   5.345  15.830 -0.5935  0.8662 -0.4483
 3386TIP3    H231574   6.440   5.468  15.826  0.8535 -0.1389 -0.0251
 3387TIP3   OH231575   2.612   6.100  11.672 -0.0205  0.7312 -0.0016
 3387TIP3    H131576   2.568   6.160  11.612  0.9291  0.7384 -0.6921
 3387TIP3    H231577   2.670   6.048  11.617 -0.5503 -0.5840  0.6409
 3388TIP3   OH231578   6.194   3.102   5.108  0.4964  0.4388  0.0080
 3388TIP3    H131579   6.228   3.191   5.112  0.2498  0.4873  2.4059
 3388TIP3    H231580   6.203   3.069   5.197 -0.8733 -1.3913 -0.4784
 3389TIP3   OH231581   1.477   1.663  15.087  0.3616  0.6989  0.1692
 3389TIP3    H131582   1.438   1.737  15.133  0.4877  1.1249 -0.3961
 3389TIP3    H231583   1.456   1.587  15.142 -1.4600  0.8674 -0.2137
 3390TIP3   OH231584   5.853   6.515  14.024 -0.5513  0.4204  0.1409
 3390TIP3    H131585   5.870   6.566  14.104  1.6610  1.1566 -0.7078
 3390TIP3    H231586   5.940   6.491  13.993 -1.4386 -1.4227 -1.0899
 3391TIP3   OH231587   3.443   5.629  10.620  0.0671  0.0047 -0.3244
 3391TIP3    H131588   3.507   5.649  10.551  1.3268  0.4357  0.9279
 3391TIP3    H231589   3.420   5.715  10.656  0.5654 -0.3099  0.7801
 3392TIP3   OH231590   0.394   4.817  13.687  0.2287 -0.0409 -0.4196
 3392TIP3    H131591   0.435   4.886  13.636  0.3750  0.2018  0.0200
 3392TIP3    H231592   0.465   4.756  13.708  0.6704  1.0641  1.4779
 3393TIP3   OH231593   5.710   1.396  16.942  0.4028 -0.4924 -0.0739
 3393TIP3    H131594   5.710   1.483  16.902  0.9450 -1.1106 -1.4729
 3393TIP3    H231595   5.798   1.363  16.927  0.5573 -0.8488  1.4690
 3394TIP3   OH231596   4.180   2.235   2.516 -0.6432  0.1449 -0.2637
 3394TIP3    H131597   4.241   2.167   2.544 -1.4866 -0.4885  0.0698
 3394TIP3    H231598   4.182   2.232   2.421  0.9343  1.1311 -0.3047
 3395TIP3   OH231599   1.444   5.579   5.753  0.8899  0.2321  0.5767
 3395TIP3    H131600   1.410   5.618   5.833  0.3710 -0.1824  0.5708
 3395TIP3    H231601   1.370   5.581   5.692  0.9150 -0.5390  0.5070
 3396TIP3   OH231602   1.149   5.766  16.219  0.0731 -0.6796  0.1333
 3396TIP3    H131603   1.147   5.804  16.131  0.0378  1.3777  0.9471
 3396TIP3    H231604   1.066   5.793  16.259 -0.4868 -2.6688  0.4122
 3397TIP3   OH231605   3.531   0.943  17.016  0.3418 -0.5771  0.1911
 3397TIP3    H131606   3.477   1.016  16.987  0.6494  0.1262  1.3040
 3397TIP3    H231607   3.516   0.875  16.951  1.4254  1.0635 -1.9152
 3398TIP3   OH231608   5.404   5.072  10.808  0.4648  0.2344  0.1185
 3398TIP3    H131609   5.485   5.035  10.772 -0.6865 -0.6455 -1.6758
 3398TIP3    H231610   5.407   5.049  10.901  2.1958  0.0913  0.0646
 3399TIP3   OH231611   0.118   6.237   5.885  0.1125  0.4091 -0.5922
 3399TIP3    H131612   0.191   6.217   5.944 -0.4637  2.4885  0.9709
 3399TIP3    H231613   0.133   6.328   5.859 -1.7110  0.7672 -0.5146
 3400TIP3   OH231614   0.311   4.988   1.935 -0.1107  0.0318 -0.1574
 3400TIP3    H131615   0.283   5.080   1.943  0.6651  0.1501  1.6732
 3400TIP3    H231616   0.287   4.949   2.019  0.7949 -1.1094 -0.4166
 3401TIP3   OH231617   6.705   1.511   3.320  0.2280  0.7196 -0.0189
 3401TIP3    H131618   6.636   1.540   3.380 -1.4786 -1.1548 -0.9496
 3401TIP3    H231619   6.711   1.417   3.334  2.5598  0.8198 -0.0696
 3402TIP3   OH231620   1.917   2.679   1.794  0.3510 -0.4077 -0.0440
 3402TIP3    H131621   1.874   2.765   1.801  0.9905  0.0870 -1.7682
 3402TIP3    H231622   1.880   2.628   1.866 -0.4537  1.1358  0.6843
 3403TIP3   OH231623   6.710   4.607  15.602  0.1277 -0.0382  0.3819
 3403TIP3    H131624   6.754   4.689  15.623  2.7134 -1.1260 -0.3755
 3403TIP3    H231625   6.709   4.603  15.506  1.9617 -1.7488  0.3618
 3404TIP3   OH231626   1.449   4.966   0.392  0.2135 -0.3333  0.2949
 3404TIP3    H131627   1.500   4.926   0.321 -1.8482  0.2872 -1.6569
 3404TIP3    H231628   1.424   5.052   0.359 -0.6215  0.0809  1.8788
 3405TIP3   OH231629   1.107   3.713   4.694 -0.0364  0.0205  0.0084
 3405TIP3    H131630   1.107   3.640   4.755 -2.2843 -1.2095 -1.3360
 3405TIP3    H231631   1.187   3.700   4.642  0.7299 -0.1724  1.1939
 3406TIP3   OH231632   2.684   1.277  12.723  0.2964  0.9502  0.0122
 3406TIP3    H131633   2.688   1.322  12.639  0.6211 -0.0927 -0.5406
 3406TIP3    H231634   2.729   1.336  12.784  1.2220  1.1173 -0.8134
 3407TIP3   OH231635   3.707   1.645  14.797 -0.3302 -0.3105 -0.4454
 3407TIP3    H131636   3.705   1.638  14.701 -0.0731  1.0974 -0.5761
 3407TIP3    H231637   3.646   1.578  14.827  0.7366 -1.8206 -1.5118
 3408TIP3   OH231638   5.408   1.525  13.882 -0.4590  0.0552 -0.0339
 3408TIP3    H131639   5.443   1.446  13.841 -1.6383  0.3299 -1.6952
 3408TIP3    H231640   5.315   1.525  13.858 -0.6261  1.5985  0.4807
 3409TIP3   OH231641   5.339   1.398   2.664 -0.3372  0.4843 -0.4336
 3409TIP3    H131642   5.308   1.381   2.574 -0.4240  0.3486 -0.3787
 3409TIP3    H231643   5.324   1.315   2.710  1.1018  0.0638 -0.6814
 3410TIP3   OH231644   1.969   1.694   0.766  0.1928 -0.6175 -0.0896
 3410TIP3    H131645   2.022   1.657   0.836 -1.2922 -0.5887  1.1135
 3410TIP3    H231646   1.975   1.789   0.779 -0.3768 -0.6198  0.2661
 3411TIP3   OH231647   2.698   3.217   5.578 -0.5555  0.6462 -0.4059
 3411TIP3    H131648   2.767   3.229   5.643 -1.7505  1.3683  0.7813
 3411TIP3    H231649   2.700   3.124   5.557  0.9442  0.7051 -0.6098
 3412TIP3   OH231650   4.217   0.422  11.543  0.0166 -1.0947 -0.4259
 3412TIP3    H131651   4.184   0.337  11.513 -0.8181 -0.5877 -0.9928
 3412TIP3    H231652   4.280   0.448  11.476 -1.3011 -0.3054 -1.4104
 3413TIP3   OH231653   5.063   3.758   2.733  0.1759  0.6948  0.2267
 3413TIP3    H131654   5.021   3.806   2.661  0.5788  1.3784  0.4354
 3413TIP3    H231655   5.047   3.812   2.810 -0.7180 -0.2995  0.7638
 3414TIP3   OH231656   2.770   0.794   4.201  0.1438  0.2698 -0.1719
 3414TIP3    H131657   2.755   0.848   4.123  1.9466  1.5036  0.2636
 3414TIP3    H231658   2.707   0.828   4.265 -0.8737 -0.2889 -0.8338
 3415TIP3   OH231659   0.789   5.441   1.155  0.3139  0.5256  0.4026
 3415TIP3    H131660   0.878   5.426   1.189  0.5170  1.4803  0.3259
 3415TIP3    H231661   0.751   5.505   1.216  0.5534  1.9949 -0.9416
 3416TIP3   OH231662   1.792   2.144   5.411  0.4288  0.0725  0.2871
 3416TIP3    H131663   1.809   2.154   5.317  1.5370  0.5390  0.5213
 3416TIP3    H231664   1.802   2.051   5.428 -0.1505 -0.0709 -0.1187
 3417TIP3   OH231665   0.766   6.237  13.930  0.0146  0.4131 -0.8532
 3417TIP3    H131666   0.829   6.287  13.982 -0.2370  2.4613 -2.4398
 3417TIP3    H231667   0.818   6.199  13.859  0.1421 -1.4280  0.1391
 3418TIP3   OH231668   1.421   0.358   6.382 -0.4525 -0.0039  0.1721
 3418TIP3    H131669   1.397   0.409   6.460  2.6662  1.0304  0.6028
 3418TIP3    H231670   1.475   0.287   6.417 -0.1686 -0.3450 -0.9482
 3419TIP3   OH231671   3.174   4.711   4.964  0.2702  0.3426  0.0633
 3419TIP3    H131672   3.098   4.698   5.020  0.2678  2.4910  0.6563
 3419TIP3    H231673   3.249   4.706   5.023  0.5516 -0.8470 -0.3656
 3420TIP3   OH231674   2.329   5.193   5.987 -0.4237  0.4281  0.5533
 3420TIP3    H131675   2.335   5.280   5.946 -2.2551 -0.8278 -2.7911
 3420TIP3    H231676   2.244   5.192   6.030  0.4322  0.8764  2.3409
 3421TIP3   OH231677   0.786   4.931  17.108 -0.2933  0.1794  0.0109
 3421TIP3    H131678   0.880   4.942  17.092 -0.6895  1.5029 -1.7226
 3421TIP3    H231679   0.770   4.979  17.189  0.6970 -1.1829  1.0846
 3422TIP3   OH231680   0.232   0.470  13.149  0.5386 -0.0711  0.0814
 3422TIP3    H131681   0.318   0.466  13.189  0.6555  1.1898  0.0180
 3422TIP3    H231682   0.241   0.534  13.079 -0.5010  0.2685  0.2297
 3423TIP3   OH231683   1.488   5.538   2.949 -0.8128 -0.5851  0.3294
 3423TIP3    H131684   1.499   5.629   2.921  1.6315 -0.9493 -0.0850
 3423TIP3    H231685   1.408   5.510   2.904 -0.9255  0.9779 -0.5599
 3424TIP3   OH231686   0.335   5.790   1.909  0.7443  0.3307  0.0607
 3424TIP3    H131687   0.246   5.766   1.935  1.0540  0.1792  1.0332
 3424TIP3    H231688   0.390   5.765   1.984  1.2115  3.2870  0.8293
 3425TIP3   OH231689   6.194   2.466  11.628  0.0100 -0.4869 -0.3334
 3425TIP3    H131690   6.241   2.505  11.703  0.9226 -0.6191 -0.8178
 3425TIP3    H231691   6.132   2.406  11.668  0.2335 -0.2852  0.3397
 3426TIP3   OH231692   5.688   1.828  10.687 -0.2343  0.0715 -0.6368
 3426TIP3    H131693   5.599   1.854  10.662 -0.3428  0.9043  0.5876
 3426TIP3    H231694   5.676   1.770  10.762  0.2663  0.2833 -0.3885
 3427TIP3   OH231695   1.747   3.519  14.352  0.2203  0.2232  0.2734
 3427TIP3    H131696   1.695   3.464  14.410 -0.1005  2.3112  2.1187
 3427TIP3    H231697   1.837   3.506  14.381  0.2387  0.0139  0.1224
 3428TIP3   OH231698   1.932   6.431   5.844  0.1614 -0.2912 -0.2855
 3428TIP3    H131699   1.868   6.381   5.794  1.9234 -1.6657 -1.2810
 3428TIP3    H231700   2.008   6.373   5.852  1.0068  0.9598  1.5507
 3429TIP3   OH231701   0.616   2.808   5.786 -0.0053 -0.5809 -0.1757
 3429TIP3    H131702   0.648   2.746   5.721 -0.7597  1.0943 -2.2696
 3429TIP3    H231703   0.691   2.864   5.805  0.6642 -1.9880  1.6847
 3430TIP3   OH231704   1.901   0.436  12.082 -0.1700 -0.7605  0.1557
 3430TIP3    H131705   1.878   0.524  12.052 -1.1662 -0.5097  1.5824
 3430TIP3    H231706   1.816   0.392  12.092  0.3253 -1.9665 -0.7086
 3431TIP3   OH231707   3.366   0.751  15.983  0.0049  0.2077  0.3631
 3431TIP3    H131708   3.359   0.757  15.887  1.0190 -0.8138  0.2066
 3431TIP3    H231709   3.435   0.813  16.006 -0.1826  0.3938  0.4251
 3432TIP3   OH231710   5.682   3.623   2.530  0.2196 -0.2555  0.1241
 3432TIP3    H131711   5.598   3.660   2.504  0.8885 -0.4243 -2.6520
 3432TIP3    H231712   5.739   3.698   2.541  0.1758 -0.2219  0.1209
 3433TIP3   OH231713   2.366   2.501  15.023  0.0172 -0.3765 -0.1402
 3433TIP3    H131714   2.427   2.456  15.081 -1.2820 -0.2894  1.3612
 3433TIP3    H231715   2.421   2.561  14.973  1.0741  0.5293  1.9715
 3434TIP3   OH231716   1.844   5.105   3.652 -0.0682 -0.1823  0.2492
 3434TIP3    H131717   1.911   5.058   3.603 -0.4208  1.1184 -1.6010
 3434TIP3    H231718   1.861   5.083   3.743  2.4965 -0.3674 -0.1974
 3435TIP3   OH231719   1.212   0.983   6.380 -0.0992  0.5340  0.3620
 3435TIP3    H131720   1.268   0.909   6.353 -1.5998 -0.2280 -0.8379
 3435TIP3    H231721   1.123   0.950   6.369 -0.7960  2.0140  1.3717
 3436TIP3   OH231722   5.806   2.675   1.780  0.1647 -0.4207 -0.1752
 3436TIP3    H131723   5.798   2.589   1.823 -0.3124 -1.0358 -1.4393
 3436TIP3    H231724   5.717   2.699   1.758  0.2250  0.7638  0.8134
 3437TIP3   OH231725   3.875   2.009  10.950  0.5877 -0.1824 -0.3488
 3437TIP3    H131726   3.793   1.965  10.971  0.8945 -0.1443  1.0286
 3437TIP3    H231727   3.927   1.943  10.904  0.0840 -0.4312 -0.5736
 3438TIP3   OH231728   2.077   2.082   0.592  0.4773  0.2850  0.9768
 3438TIP3    H131729   2.168   2.054   0.582  0.0514 -0.8617  0.2041
 3438TIP3    H231730   2.034   2.010   0.637 -0.2294  0.4648  0.6039
 3439TIP3   OH231731   0.046   5.640   1.608  0.2678 -0.7452 -0.3476
 3439TIP3    H131732  -0.007   5.673   1.536 -0.5461  0.3270  0.7024
 3439TIP3    H231733   0.078   5.718   1.653  0.2811 -1.3723  0.7900
 3440TIP3   OH231734   0.101   3.483   4.821  0.0112  0.1514  0.0092
 3440TIP3    H131735   0.131   3.417   4.759 -1.0819 -2.0509  1.6749
 3440TIP3    H231736   0.180   3.510   4.868  0.6504  0.9552 -1.4628
 3441TIP3   OH231737   6.569   0.761  17.046  0.7014 -0.1192 -0.0128
 3441TIP3    H131738   6.645   0.728  16.998  0.2852  0.0449 -0.8034
 3441TIP3    H231739   6.552   0.847  17.009  0.2357 -0.0837  0.2731
 3442TIP3   OH231740   5.917   3.426  17.224  0.5810 -0.0875 -0.3455
 3442TIP3    H131741   5.983   3.360  17.247  0.4240  0.2425  1.1985
 3442TIP3    H231742   5.968   3.497  17.184  1.2024  0.1571  0.8082
 3443TIP3   OH231743   0.250   4.541   4.788  0.1475  0.1778  0.1964
 3443TIP3    H131744   0.193   4.602   4.741 -1.5200 -1.7791 -0.4983
 3443TIP3    H231745   0.339   4.565   4.762 -0.5829  0.9611 -1.7042
 3444TIP3   OH231746   1.129   1.948  14.566  0.1003 -0.2129 -0.2853
 3444TIP3    H131747   1.129   1.854  14.584  0.2210 -0.1280  0.1804
 3444TIP3    H231748   1.136   1.989  14.653  1.6672  0.2040 -0.5754
 3445TIP3   OH231749   4.064   1.485   5.779  0.3657  0.2203 -0.3539
 3445TIP3    H131750   4.077   1.561   5.721  0.6728  0.5982  0.2006
 3445TIP3    H231751   3.996   1.514   5.840 -0.2393 -0.3182 -0.7669
 3446TIP3   OH231752   5.240   2.159   0.333 -0.4548  0.1692  0.0435
 3446TIP3    H131753   5.209   2.099   0.265 -0.2191 -0.0633  0.1381
 3446TIP3    H231754   5.166   2.217   0.350 -0.4075  0.4331 -0.6343
 3447TIP3   OH231755   1.347   0.355  15.353  0.6996  0.0643 -0.2173
 3447TIP3    H131756   1.389   0.355  15.267  1.2734  0.2320  0.0550
 3447TIP3    H231757   1.257   0.380  15.336  0.1202 -2.4021 -1.0931
 3448TIP3   OH231758   3.709   1.716   2.378 -0.4975  0.2041 -0.3228
 3448TIP3    H131759   3.749   1.769   2.446  1.3011  1.3337 -2.1239
 3448TIP3    H231760   3.673   1.779   2.315 -0.2708 -0.7227 -1.4349
 3449TIP3   OH231761   6.485   1.017  16.377 -0.1238  0.2872 -0.4244
 3449TIP3    H131762   6.428   1.076  16.328  0.8046  1.3958 -0.2217
 3449TIP3    H231763   6.566   1.013  16.325  0.3937  0.4465  0.3522
 3450TIP3   OH231764   4.952   1.499  15.096 -0.2386 -0.3129 -0.1431
 3450TIP3    H131765   4.985   1.503  15.186 -0.6403  1.6105 -0.0412
 3450TIP3    H231766   4.880   1.436  15.100 -1.5536  1.2104  1.3615
 3451TIP3   OH231767   2.504   1.320   3.945  0.1115 -0.6942 -0.2989
 3451TIP3    H131768   2.506   1.357   4.033  0.1713  1.0453 -0.9873
 3451TIP3    H231769   2.586   1.272   3.937  0.5219 -0.1020  0.2817
 3452TIP3   OH231770   2.523   6.668  12.455 -0.1319  0.1731 -0.3107
 3452TIP3    H131771   2.605   6.680  12.409 -0.6144  0.5211 -1.1002
 3452TIP3    H231772   2.457   6.707  12.397 -1.3328 -3.0543 -1.3210
 3453TIP3   OH231773   6.153   3.835   5.031 -0.7204  0.3216 -0.8423
 3453TIP3    H131774   6.232   3.821   4.978 -1.5004 -2.8684 -1.3470
 3453TIP3    H231775   6.082   3.842   4.967 -1.1488  0.7063 -0.3322
 3454TIP3   OH231776   4.525   4.493  16.304 -0.2658 -0.5361  0.4240
 3454TIP3    H131777   4.598   4.551  16.323 -0.5741  0.0571 -0.1506
 3454TIP3    H231778   4.458   4.515  16.370 -0.4717 -0.0703  0.0620
 3455TIP3   OH231779   4.035   3.091  16.636  0.5283  0.8395 -0.6304
 3455TIP3    H131780   3.959   3.128  16.591  0.0502  1.0913  0.3552
 3455TIP3    H231781   4.069   3.164  16.688  2.1503  1.0646 -1.9225
 3456TIP3   OH231782   0.423   3.990  14.079  0.2997  0.3228 -0.2150
 3456TIP3    H131783   0.331   4.004  14.103  0.5363 -0.6532  1.3356
 3456TIP3    H231784   0.465   4.075  14.094  0.1337  0.1298  1.4584
 3457TIP3   OH231785   1.623   3.564  11.853 -0.4671  0.1542 -0.3992
 3457TIP3    H131786   1.550   3.593  11.799 -0.3932  2.0569  0.4259
 3457TIP3    H231787   1.698   3.615  11.821 -0.1303  0.2952  0.5752
 3458TIP3   OH231788   0.234   2.337   4.130 -0.0428 -0.4275  0.0608
 3458TIP3    H131789   0.178   2.413   4.112  1.1358  0.2421 -0.9850
 3458TIP3    H231790   0.175   2.273   4.170 -1.1727  0.8626  0.5564
 3459TIP3   OH231791   1.937   4.047  14.630 -0.3640 -0.5733  0.4518
 3459TIP3    H131792   1.857   4.036  14.681  1.4726 -0.7525  3.5998
 3459TIP3    H231793   1.922   4.126  14.579 -3.6188 -2.2564 -1.5486
 3460TIP3   OH231794   0.314   3.272   1.638 -0.3303 -0.0265 -0.2172
 3460TIP3    H131795   0.261   3.325   1.579 -2.2825  0.7427  2.0572
 3460TIP3    H231796   0.272   3.282   1.724  2.0112 -1.5160  1.2251
 3461TIP3   OH231797   0.897   3.383  14.907  0.1331 -0.3232 -0.1011
 3461TIP3    H131798   0.864   3.390  14.996 -1.9793 -1.1340 -0.7617
 3461TIP3    H231799   0.823   3.351  14.856  1.2319  0.2652 -2.1959
 3462TIP3   OH231800   4.336   0.786   5.079  0.5632 -0.2604 -0.8312
 3462TIP3    H131801   4.383   0.833   5.148  0.6099 -4.2578  2.2615
 3462TIP3    H231802   4.246   0.820   5.084  0.6026 -0.3030  1.1802
 3463TIP3   OH231803   1.753   3.138   5.785  0.2582 -0.5121 -0.3870
 3463TIP3    H131804   1.821   3.077   5.756  0.7920 -0.0182 -0.1846
 3463TIP3    H231805   1.763   3.143   5.880  0.3288  0.0179 -0.4178
 3464TIP3   OH231806   6.587   0.984   4.456  0.0178  0.1671 -0.4316
 3464TIP3    H131807   6.493   0.966   4.445 -0.2500  0.9485  0.4832
 3464TIP3    H231808   6.600   1.068   4.413  0.2430  0.2088 -0.2821
 3465TIP3   OH231809   4.599   3.385  16.053 -0.2068 -0.1647  0.0991
 3465TIP3    H131810   4.664   3.315  16.058 -0.8582 -0.9035 -1.1940
 3465TIP3    H231811   4.649   3.465  16.066  0.6601 -0.8301  0.9555
 3466TIP3   OH231812   1.700   4.851   5.738 -0.2882  0.3417 -0.0005
 3466TIP3    H131813   1.642   4.814   5.803 -0.1402 -0.7170 -0.4571
 3466TIP3    H231814   1.642   4.892   5.674 -0.4559  0.7805  0.4269
 3467TIP3   OH231815   1.852   5.815   2.162  0.5722 -0.2789  0.0244
 3467TIP3    H131816   1.862   5.895   2.110  0.6821  0.3327  0.9759
 3467TIP3    H231817   1.933   5.809   2.212  0.0696 -0.3415  0.8435
 3468TIP3   OH231818   5.954   2.504   0.837  0.0027 -0.6739 -0.1245
 3468TIP3    H131819   5.977   2.541   0.752  1.2197 -0.8537  0.1090
 3468TIP3    H231820   5.893   2.567   0.876  1.9953  1.1320  0.2673
 3469TIP3   OH231821   3.607   3.272   0.587  0.2544 -0.1500 -0.0920
 3469TIP3    H131822   3.639   3.205   0.648 -0.9757  0.3208  1.1101
 3469TIP3    H231823   3.656   3.351   0.611 -1.4924  0.5023  1.5698
 3470TIP3   OH231824   6.466   4.416   2.176 -0.0598 -0.5882 -0.0586
 3470TIP3    H131825   6.517   4.360   2.117  1.6870  0.8571  0.0157
 3470TIP3    H231826   6.496   4.393   2.264 -0.8578 -0.9866  0.1184
 3471TIP3   OH231827   3.011   3.744  12.629 -0.4345  0.2833 -0.3747
 3471TIP3    H131828   2.955   3.761  12.553  2.4562  1.0781 -2.4996
 3471TIP3    H231829   3.078   3.684  12.596  0.4397 -0.0179  1.8182
 3472TIP3   OH231830   4.971   6.133   3.327 -0.2246 -0.6704 -0.4966
 3472TIP3    H131831   4.914   6.075   3.378  0.4462 -0.5632  0.3938
 3472TIP3    H231832   5.022   6.075   3.271  0.2922 -0.9360  0.2398
 3473TIP3   OH231833   0.596   5.979   5.148  0.1942 -0.5477 -0.1581
 3473TIP3    H131834   0.650   5.910   5.187 -0.3591 -1.5537 -1.1403
 3473TIP3    H231835   0.526   5.993   5.211  0.5670 -0.5447  0.2634
 3474TIP3   OH231836   2.123   4.356  16.574  0.1657 -0.9754 -0.3159
 3474TIP3    H131837   2.135   4.451  16.562  0.1112 -0.8450  0.5960
 3474TIP3    H231838   2.208   4.325  16.604 -0.4181 -0.8197  1.6171
 3475TIP3   OH231839   5.637   2.092   2.099  0.6424 -0.1488 -0.0696
 3475TIP3    H131840   5.711   2.113   2.157 -0.0415  1.8587  0.1404
 3475TIP3    H231841   5.572   2.160   2.117 -0.9678 -1.4311 -0.8049
 3476TIP3   OH231842   0.831   4.972  13.552 -0.6299 -0.4965 -0.5336
 3476TIP3    H131843   0.830   5.000  13.460 -1.4474 -1.6878 -0.9166
 3476TIP3    H231844   0.742   4.989  13.583  0.2565  2.2164  0.8292
 3477TIP3   OH231845   4.522   4.699   3.485 -0.4852  0.2337 -0.1035
 3477TIP3    H131846   4.445   4.643   3.474  1.7329 -3.2194  0.3882
 3477TIP3    H231847   4.594   4.648   3.448  1.7114  3.0851 -0.1145
 3478TIP3   OH231848   0.044   3.855   1.977 -0.0722  0.2672 -0.1719
 3478TIP3    H131849   0.023   3.936   2.023  3.6980  1.4435 -0.1911
 3478TIP3    H231850   0.031   3.876   1.884 -0.9860  0.1605 -0.0773
 3479TIP3   OH231851   1.598   1.332  15.452 -0.5390 -0.3092  0.2016
 3479TIP3    H131852   1.677   1.359  15.499 -0.3136  1.2606 -1.0064
 3479TIP3    H231853   1.629   1.304  15.366 -1.2393 -0.0500 -0.1483
 3480TIP3   OH231854   4.398   4.374   2.306 -0.7386 -0.1699 -0.4392
 3480TIP3    H131855   4.439   4.408   2.227  1.4777 -1.7776 -0.0762
 3480TIP3    H231856   4.429   4.431   2.376 -2.8117  1.3403 -0.6431
 3481TIP3   OH231857   4.844   4.315  10.927 -0.2131 -0.2675 -0.0487
 3481TIP3    H131858   4.801   4.255  10.988  1.1967  1.1651  2.5167
 3481TIP3    H231859   4.843   4.400  10.971  0.4329  1.0003 -2.2773
 3482TIP3   OH231860   5.788   2.993  14.870  0.2764  0.1901  0.3597
 3482TIP3    H131861   5.807   3.016  14.960 -0.2828  2.2853 -0.0081
 3482TIP3    H231862   5.738   3.067  14.836 -3.1008 -2.2058 -0.5118
 3483TIP3   OH231863   2.901   4.892   0.355 -0.1720 -0.5621  0.2172
 3483TIP3    H131864   2.963   4.945   0.406  0.3805  0.1873 -1.1552
 3483TIP3    H231865   2.832   4.870   0.417 -0.4180  1.7663  0.8965
 3484TIP3   OH231866   6.658   1.566   5.755  0.1754 -0.1753  0.2001
 3484TIP3    H131867   6.687   1.609   5.674 -0.9740 -0.4092 -0.3552
 3484TIP3    H231868   6.608   1.634   5.801 -0.7805 -0.5849 -0.1998
 3485TIP3   OH231869   5.413   0.703  15.264 -0.7787  0.2583  0.5926
 3485TIP3    H131870   5.417   0.798  15.265 -0.6839  0.2744  2.5916
 3485TIP3    H231871   5.387   0.679  15.353  3.8721 -1.7377  1.7273
 3486TIP3   OH231872   3.646   5.580   3.227  0.6711 -0.1267 -0.2999
 3486TIP3    H131873   3.553   5.599   3.224  1.1047  2.3531 -0.2501
 3486TIP3    H231874   3.654   5.489   3.197 -1.5466  0.2363 -2.1842
 3487TIP3   OH231875   6.605   0.331   0.264 -0.1623 -0.2909  0.0580
 3487TIP3    H131876   6.609   0.352   0.171  0.9971  0.1252  0.1903
 3487TIP3    H231877   6.693   0.300   0.286  0.0874  1.2159  1.3722
 3488TIP3   OH231878   4.127   1.387   3.704  0.3481  0.3195 -0.1960
 3488TIP3    H131879   4.073   1.466   3.711 -0.1057 -0.1148  3.2104
 3488TIP3    H231880   4.093   1.330   3.773  1.6426 -2.2622 -1.5674
 3489TIP3   OH231881   3.022   2.262   1.446 -0.0732  0.1069 -0.1698
 3489TIP3    H131882   2.934   2.290   1.473 -0.5033 -1.6415  0.3936
 3489TIP3    H231883   3.010   2.223   1.360  0.1944  0.0610 -0.1874
 3490TIP3   OH231884   1.776   6.627   0.888  0.0409 -0.5571 -0.4022
 3490TIP3    H131885   1.773   6.540   0.929 -0.4595  0.2845  1.4845
 3490TIP3    H231886   1.684   6.648   0.872  0.0979 -0.0943 -0.1531
 3491TIP3   OH231887   1.474   1.596  15.778  0.2414  0.6983 -0.9138
 3491TIP3    H131888   1.392   1.643  15.793  0.4997  0.8296  0.2199
 3491TIP3    H231889   1.452   1.529  15.713 -0.6991  0.9015 -0.8194
 3492TIP3   OH231890   5.518   3.041   2.781 -0.1999 -0.1086 -0.0970
 3492TIP3    H131891   5.562   2.957   2.794 -1.7398 -1.0503 -0.7505
 3492TIP3    H231892   5.426   3.019   2.769 -0.6213  1.6655 -0.4616
 3493TIP3   OH231893   0.937   6.646   2.705  0.1150  0.1892 -0.6196
 3493TIP3    H131894   0.951   6.552   2.705  0.7712  0.2826 -0.9119
 3493TIP3    H231895   0.908   6.665   2.615 -0.9757  0.1381 -0.2968
 3494TIP3   OH231896   4.027   0.293   2.109  0.1837 -0.0854 -0.7214
 3494TIP3    H131897   4.039   0.359   2.178 -1.9008 -0.1132 -0.2467
 3494TIP3    H231898   3.986   0.219   2.153  0.4439 -0.8227 -1.6785
 3495TIP3   OH231899   1.864   2.835  12.281  0.5725  0.0924 -0.2484
 3495TIP3    H131900   1.945   2.795  12.248  0.6477 -1.4025  1.5772
 3495TIP3    H231901   1.794   2.780  12.245  0.4934  0.1485 -0.1818
 3496TIP3   OH231902   1.686   2.869  10.854  0.1274 -0.3136  0.3193
 3496TIP3    H131903   1.591   2.862  10.851  0.1987 -0.8864 -1.5743
 3496TIP3    H231904   1.717   2.785  10.822  1.3054 -0.5221  1.9141
 3497TIP3   OH231905   3.188   0.125  15.437 -0.6670  0.1865  0.6972
 3497TIP3    H131906   3.261   0.065  15.419 -1.0814  0.2693 -1.6047
 3497TIP3    H231907   3.211   0.205  15.388 -1.0021  1.2630  2.2259
 3498TIP3   OH231908   4.661   0.077  16.286 -0.1099 -0.3784 -0.4882
 3498TIP3    H131909   4.595   0.121  16.339  0.4634 -0.8339  0.6338
 3498TIP3    H231910   4.740   0.079  16.339  0.7318 -0.0481 -1.7122
 3499TIP3   OH231911   4.084   3.057   3.840 -0.0163 -0.6128 -0.1889
 3499TIP3    H131912   4.033   3.014   3.771  0.0374 -1.3090  0.1947
 3499TIP3    H231913   4.020   3.079   3.907  0.1618 -1.4056  0.2533
 3500TIP3   OH231914   0.856   1.517  16.963 -0.2082  0.0215  0.2612
 3500TIP3    H131915   0.927   1.548  16.908  0.6465  1.2860  1.9828
 3500TIP3    H231916   0.897   1.455  17.023 -0.6491  0.3812  0.9501
 3501TIP3   OH231917   5.417   3.475  11.188  0.3264  0.1450  0.2317
 3501TIP3    H131918   5.335   3.524  11.179  0.5397  0.8445  1.7715
 3501TIP3    H231919   5.395   3.387  11.158 -0.6178  0.6533 -0.6612
 3502TIP3   OH231920   5.887   4.210  14.137  0.4603  0.2867 -0.2122
 3502TIP3    H131921   5.964   4.160  14.107  0.8282  0.7610 -0.0620
 3502TIP3    H231922   5.885   4.287  14.081 -1.3634 -0.8990 -1.9179
 3503TIP3   OH231923   1.156   6.025   4.188  0.2693  0.0228 -0.2402
 3503TIP3    H131924   1.133   6.026   4.095 -2.2563  1.3171  0.3017
 3503TIP3    H231925   1.102   6.094   4.227  2.0871  0.2999  2.0363
 3504TIP3   OH231926   0.202   1.618  14.675 -0.0639  0.0315 -0.1719
 3504TIP3    H131927   0.290   1.648  14.697  0.7546  0.5785 -3.6720
 3504TIP3    H231928   0.209   1.523  14.671  0.6440  0.1241 -1.3559
 3505TIP3   OH231929   3.168   6.477  15.959  0.2141  0.2758  0.3937
 3505TIP3    H131930   3.090   6.473  16.014 -0.2411 -1.6554 -0.3123
 3505TIP3    H231931   3.235   6.430  16.008  1.2574  2.6381  1.3773
 3506TIP3   OH231932   5.228   0.909   3.509  0.5281 -0.0813 -0.0184
 3506TIP3    H131933   5.181   0.968   3.568  0.3020  0.1334 -0.4066
 3506TIP3    H231934   5.299   0.962   3.473  0.2337  0.0106 -0.4843
 3507TIP3   OH231935   5.558   3.670  12.675  0.3842  0.1510 -0.8373
 3507TIP3    H131936   5.514   3.726  12.740 -0.9408  0.4509 -1.9310
 3507TIP3    H231937   5.622   3.621  12.726 -2.4492 -1.6947  1.2902
 3508TIP3   OH231938   5.400   6.564  14.051  0.1649  0.5348 -0.2477
 3508TIP3    H131939   5.370   6.612  14.127  1.1573  2.6580 -1.1124
 3508TIP3    H231940   5.447   6.629  13.998  3.4483 -1.7715 -0.5178
 3509TIP3   OH231941   5.118   3.835   3.362 -0.1893  0.0358 -0.1172
 3509TIP3    H131942   5.189   3.772   3.354 -1.1417 -0.9613 -0.9305
 3509TIP3    H231943   5.161   3.920   3.356  0.7555 -0.5347 -2.5964
 3510TIP3   OH231944   4.209   4.721   5.463 -0.0486  0.2239  0.4354
 3510TIP3    H131945   4.238   4.696   5.375  0.6232 -0.4718  0.8395
 3510TIP3    H231946   4.139   4.784   5.448 -2.2644 -2.3347 -0.6502
 3511TIP3   OH231947   1.341   5.250   5.135  0.3149 -0.1391  0.3444
 3511TIP3    H131948   1.358   5.339   5.104  1.5236 -1.0246 -1.7903
 3511TIP3    H231949   1.352   5.195   5.057 -0.6243 -2.1476  1.5460
 3512TIP3   OH231950   4.722   4.482   5.524  0.0240  0.0327  0.0809
 3512TIP3    H131951   4.769   4.441   5.597 -1.7762 -1.2450  0.5769
 3512TIP3    H231952   4.651   4.531   5.565 -0.3130  0.2625 -0.7473
 3513TIP3   OH231953   6.297   3.650   0.127 -0.2340 -0.3214 -0.3678
 3513TIP3    H131954   6.304   3.606   0.212 -3.2177 -0.5733 -0.1507
 3513TIP3    H231955   6.296   3.579   0.063 -0.1446 -0.2679 -0.4287
 3514TIP3   OH231956   2.693   1.073   1.595  0.2941 -0.2151 -0.0428
 3514TIP3    H131957   2.699   1.135   1.523 -0.5172  0.2528  0.2798
 3514TIP3    H231958   2.778   1.028   1.595  2.3023  3.0863  1.6948
 3515TIP3   OH231959   3.498   6.659  16.101 -0.1803 -0.4005 -0.8119
 3515TIP3    H131960   3.540   6.662  16.187  1.5079 -0.0933 -1.6214
 3515TIP3    H231961   3.468   6.568  16.093  1.0020 -0.8326 -0.5156
 3516TIP3   OH231962   0.242   4.552  17.107 -0.5233 -0.2620 -0.4231
 3516TIP3    H131963   0.204   4.519  17.189  0.1607  2.0705  0.9194
 3516TIP3    H231964   0.261   4.473  17.056 -0.0420 -1.8748  2.0865
 3517TIP3   OH231965   4.944   3.287   5.012 -0.2391  0.2580 -0.2291
 3517TIP3    H131966   4.990   3.205   5.033 -1.9418 -0.4629  0.8931
 3517TIP3    H231967   4.851   3.263   5.011 -0.7569  2.1146 -0.2296
 3518TIP3   OH231968   1.610   2.219  12.998 -0.4477  0.1554  0.5210
 3518TIP3    H131969   1.535   2.231  12.939 -0.2330 -1.1465 -0.0573
 3518TIP3    H231970   1.659   2.300  12.990 -1.9175  1.1468  1.1056
 3519TIP3   OH231971   5.227   4.782   2.856 -0.0253  0.3159  0.1283
 3519TIP3    H131972   5.314   4.812   2.828 -0.2445 -0.1287 -1.1072
 3519TIP3    H231973   5.166   4.839   2.809 -0.4029  0.3464  0.6589
 3520TIP3   OH231974   3.524   2.976   3.497  0.0001  0.2286  0.8903
 3520TIP3    H131975   3.504   3.018   3.581  1.4270 -0.1992  1.4693
 3520TIP3    H231976   3.596   2.916   3.516 -1.0725 -1.4832 -0.2169
 3521TIP3   OH231977   4.870   2.744   1.543 -0.3677 -0.0469 -0.1471
 3521TIP3    H131978   4.800   2.779   1.488  0.2695 -0.1044 -1.0176
 3521TIP3    H231979   4.918   2.822   1.573 -0.4707 -0.0405  0.0049
 3522TIP3   OH231980   5.924   4.074  15.531 -0.4634  0.2960  0.3689
 3522TIP3    H131981   5.853   4.055  15.470 -0.2631  0.4994  0.0709
 3522TIP3    H231982   5.978   4.139  15.486 -0.0279  0.0617  0.5502
 3523TIP3   OH231983   4.913   1.781  16.570 -0.3543 -0.2915 -0.3158
 3523TIP3    H131984   4.852   1.733  16.626  0.2707 -0.5475  0.1651
 3523TIP3    H231985   4.915   1.731  16.488 -1.2551  0.0686 -0.5619
 3524TIP3   OH231986   5.625   1.817  13.424  0.1856  0.0909 -0.3004
 3524TIP3    H131987   5.639   1.766  13.344  1.1867 -0.7960  0.4040
 3524TIP3    H231988   5.713   1.846  13.449  0.0052 -0.4343  0.9779
 3525TIP3   OH231989   1.596   4.844   0.199 -0.1357 -0.0043 -0.3712
 3525TIP3    H131990   1.625   4.769   0.251  2.6076 -0.6140 -2.5703
 3525TIP3    H231991   1.552   4.806   0.123 -3.4913  0.8603  0.9540
 3526TIP3   OH231992   0.592   4.989   5.276 -0.2378  0.3778 -0.1310
 3526TIP3    H131993   0.528   5.000   5.206  0.4924  1.8251 -0.6129
 3526TIP3    H231994   0.583   5.067   5.330 -0.0205 -0.1930  0.7606
 3527TIP3   OH231995   2.717   4.749   2.634  0.1219  0.2949 -0.4532
 3527TIP3    H131996   2.766   4.689   2.577  1.0208  0.6172 -0.0406
 3527TIP3    H231997   2.772   4.827   2.639 -0.4098  0.6394  0.0828
 3528TIP3   OH231998   0.391   0.028   4.697  0.4281  0.3316  0.0726
 3528TIP3    H131999   0.436   0.016   4.780 -0.1481  0.9225  0.4755
 3528TIP3    H232000   0.460   0.015   4.631  1.0438  0.5439  0.6557
 3529TIP3   OH232001   2.655   3.695  16.182 -0.2547  0.0852  0.5017
 3529TIP3    H132002   2.721   3.661  16.243 -0.4390 -0.1339  0.5825
 3529TIP3    H232003   2.700   3.765  16.134  0.1144 -0.2327  0.3772
 3530TIP3   OH232004   3.891   0.604  14.429  0.2706  0.8828 -0.5530
 3530TIP3    H132005   3.970   0.632  14.382 -0.4282  0.6483 -1.9272
 3530TIP3    H232006   3.912   0.517  14.462  0.2211  0.3473 -1.8824
 3531TIP3   OH232007   5.102   4.775   3.083  0.4110 -0.7811  0.0546
 3531TIP3    H132008   5.147   4.749   3.003 -1.9779 -1.7100 -1.0717
 3531TIP3    H232009   5.068   4.694   3.120 -1.3197 -0.0424  0.2080
 3532TIP3   OH232010   6.390   4.908  16.992  0.0908  0.5322  0.2978
 3532TIP3    H132011   6.329   4.873  17.056 -1.1559 -0.9301 -1.5766
 3532TIP3    H232012   6.336   4.964  16.936  0.0771 -1.6577 -2.0727
 3533TIP3   OH232013   5.499   2.746   1.090  0.6699  0.4686 -0.2639
 3533TIP3    H132014   5.541   2.803   1.154 -3.0537  0.2697  2.6689
 3533TIP3    H232015   5.488   2.663   1.135 -1.2103 -0.0217 -1.5227
 3534TIP3   OH232016   5.792   4.927   1.383 -0.0280 -0.3586 -0.0075
 3534TIP3    H132017   5.715   4.932   1.440  0.6204 -0.7548  0.9254
 3534TIP3    H232018   5.760   4.885   1.304 -0.7942 -0.4275  0.3223
 3535TIP3   OH232019   3.371   2.970  13.509  0.4937 -0.1664 -0.0870
 3535TIP3    H132020   3.456   2.999  13.543  0.6898 -0.0496 -0.6756
 3535TIP3    H232021   3.384   2.963  13.415 -0.6627  1.7241 -0.4442
 3536TIP3   OH232022   5.868   1.914  11.949 -0.3967  0.0043  0.4125
 3536TIP3    H132023   5.822   1.978  11.894 -0.4712 -0.6196 -0.2603
 3536TIP3    H232024   5.799   1.861  11.987 -0.2501 -1.0125 -0.6947
 3537TIP3   OH232025   3.638   2.355  12.215 -0.2241  0.3379 -0.1489
 3537TIP3    H132026   3.677   2.322  12.296 -2.0343 -0.2635  0.5329
 3537TIP3    H232027   3.693   2.320  12.146 -0.2027 -1.4520  0.7218
 3538TIP3   OH232028   0.144   3.771  11.390 -0.0897  0.8784 -0.3623
 3538TIP3    H132029   0.184   3.823  11.459  0.2528 -0.7011  0.6988
 3538TIP3    H232030   0.216   3.718  11.355 -0.9008 -0.9596  0.5946
 3539TIP3   OH232031   4.336   1.203  11.889  0.7209 -0.3375 -0.0573
 3539TIP3    H132032   4.259   1.222  11.943  0.3305 -2.3840  0.1825
 3539TIP3    H232033   4.384   1.286  11.886 -1.4453  0.9972 -0.1630
 3540TIP3   OH232034   1.259   2.337  15.318  0.7284 -0.1027  0.2655
 3540TIP3    H132035   1.220   2.412  15.274  1.1183  0.5283  0.9865
 3540TIP3    H232036   1.326   2.373  15.375  1.0130 -1.0053  0.5298
 3541TIP3   OH232037   2.390   5.338   2.305 -0.1449 -0.4201  0.0428
 3541TIP3    H132038   2.486   5.338   2.316 -0.1810 -2.5681  0.8984
 3541TIP3    H232039   2.360   5.412   2.358  1.0050 -0.1197  0.3087
 3542TIP3   OH232040   0.019   5.478   2.343 -0.8089 -0.5472 -0.1840
 3542TIP3    H132041   0.054   5.541   2.280  0.9061  2.3031  3.2239
 3542TIP3    H232042  -0.066   5.454   2.308  0.0636  0.7634 -3.5570
 3543TIP3   OH232043   4.118   0.336  16.831 -0.3240  0.7898  0.0385
 3543TIP3    H132044   4.106   0.244  16.807  2.7820 -0.1289  1.4278
 3543TIP3    H232045   4.159   0.375  16.753 -1.7238  1.0809 -0.5835
 3544TIP3   OH232046   2.535   4.361  12.735 -0.2536 -0.3538 -0.4756
 3544TIP3    H132047   2.500   4.403  12.657  0.3816  0.3187 -0.4108
 3544TIP3    H232048   2.592   4.427  12.774 -0.3481 -0.7835  0.4054
 3545TIP3   OH232049   5.272   2.699   6.330 -0.0835  0.1569  0.0106
 3545TIP3    H132050   5.209   2.662   6.392  0.5407 -1.4504 -0.2464
 3545TIP3    H232051   5.228   2.692   6.245  0.3946 -0.9406 -0.1653
 3546TIP3   OH232052   1.764   3.041  16.709 -1.3964  0.7267  0.5441
 3546TIP3    H132053   1.770   3.133  16.686 -1.2658  0.6020  0.0753
 3546TIP3    H232054   1.672   3.018  16.694 -0.9585  0.1966 -1.6099
 3547TIP3   OH232055   5.453   4.018   6.139  0.4944 -0.1391  0.4792
 3547TIP3    H132056   5.413   4.015   6.226  1.0134  2.7336  0.9056
 3547TIP3    H232057   5.547   4.022   6.157  0.6275  0.0444 -0.2340
 3548TIP3   OH232058   6.195   2.528   1.755  0.1831 -0.6853  0.2562
 3548TIP3    H132059   6.132   2.600   1.758  0.9714  0.0459 -0.3764
 3548TIP3    H232060   6.220   2.522   1.663  0.6714 -1.2958  0.4234
 3549TIP3   OH232061   6.077   1.570  11.423 -0.3372  0.2309 -0.3986
 3549TIP3    H132062   6.061   1.650  11.372  0.5967  0.5232 -0.2440
 3549TIP3    H232063   6.116   1.510  11.360  0.8699  0.6111 -0.0243
 3550TIP3   OH232064   1.168   3.433  16.567  0.5422  0.5238  0.1709
 3550TIP3    H132065   1.254   3.400  16.594  0.9306  0.9966 -0.4664
 3550TIP3    H232066   1.139   3.487  16.640  0.2587 -0.5589  0.8852
 3551TIP3   OH232067   1.170   2.554  16.057 -0.1664  0.7643 -0.2596
 3551TIP3    H132068   1.102   2.503  16.013  0.3971 -0.6731  0.4774
 3551TIP3    H232069   1.192   2.503  16.135  1.9027  1.0732 -0.5848
 3552TIP3   OH232070   6.212   4.075  16.279 -0.2130  0.2262  0.1375
 3552TIP3    H132071   6.128   4.121  16.274  0.9240  2.3292 -0.3286
 3552TIP3    H232072   6.200   4.013  16.351 -0.8223  3.5401  3.1996
 3553TIP3   OH232073   5.327   3.513  13.645  0.8366 -0.6995  0.4419
 3553TIP3    H132074   5.370   3.599  13.649  1.6512 -1.0668 -0.0774
 3553TIP3    H232075   5.339   3.485  13.555 -1.0473 -0.5703  0.1130
 3554TIP3   OH232076   1.793   6.136   0.237  0.0407  0.1805 -0.7130
 3554TIP3    H132077   1.831   6.161   0.320  1.0191  0.7815 -1.3236
 3554TIP3    H232078   1.827   6.049   0.219 -1.3815 -0.6095  0.2159
 3555TIP3   OH232079   0.641   6.385  11.910  0.2342  0.3203  0.2189
 3555TIP3    H132080   0.690   6.371  11.829  1.0894  1.0813  0.5857
 3555TIP3    H232081   0.676   6.321  11.971 -1.5588 -1.3930 -0.4483
 3556TIP3   OH232082   3.054   1.566   3.240 -0.2323  0.0918  0.5160
 3556TIP3    H132083   3.138   1.521   3.239 -0.1993  0.1699 -0.4852
 3556TIP3    H232084   2.990   1.496   3.252 -0.1301 -0.1420 -0.2889
 3557TIP3   OH232085   0.565   1.884   0.558 -0.2419 -0.3245  0.3996
 3557TIP3    H132086   0.504   1.957   0.562 -1.2439 -1.1203  0.0298
 3557TIP3    H232087   0.604   1.880   0.646 -0.4040  0.4470  0.5142
 3558TIP3   OH232088   5.766   3.546   4.446  0.2517  0.3420 -0.1385
 3558TIP3    H132089   5.687   3.601   4.442  1.7879  2.7240  0.6450
 3558TIP3    H232090   5.740   3.473   4.502 -1.2620  1.3368  0.5489
 3559TIP3   OH232091   5.690   5.805   1.267  0.1072  0.7716 -0.1773
 3559TIP3    H132092   5.721   5.789   1.357  0.8883  0.5527 -0.4751
 3559TIP3    H232093   5.594   5.803   1.274  0.1440  1.7914  0.8263
 3560TIP3   OH232094   5.975   3.307  16.622  0.6913  0.2964  0.0510
 3560TIP3    H132095   5.992   3.216  16.645  2.5221  0.6660  0.3518
 3560TIP3    H232096   5.924   3.303  16.541 -1.7099 -0.9737  1.5137
 3561TIP3   OH232097   4.599   0.379   0.157 -0.2584 -0.0099  0.1405
 3561TIP3    H132098   4.658   0.446   0.121  1.0888  0.1871  2.4779
 3561TIP3    H232099   4.525   0.428   0.192  0.0460  0.1436  0.5829
 3562TIP3   OH232100   6.435   6.239   2.963  0.2180  0.5174 -0.2565
 3562TIP3    H132101   6.357   6.277   2.920  0.2162  0.2658 -0.4775
 3562TIP3    H232102   6.506   6.297   2.937  0.2348  0.3097 -0.6928
 3563TIP3   OH232103   1.136   1.721  13.602  0.5492  1.0024  0.2159
 3563TIP3    H132104   1.171   1.797  13.648  1.2878  1.1085 -0.4879
 3563TIP3    H232105   1.214   1.676  13.567  0.1124  0.0522  0.4214
 3564TIP3   OH232106   0.105   2.442  14.909 -0.0671  0.4735 -0.2966
 3564TIP3    H132107   0.188   2.472  14.871  0.4829 -1.8342 -1.1315
 3564TIP3    H232108   0.097   2.489  14.992  1.3054  1.8572 -0.9104
 3565TIP3   OH232109   6.118   2.295  13.172  0.4446 -0.0132  0.5360
 3565TIP3    H132110   6.089   2.213  13.213  3.8949 -1.3348  0.6892
 3565TIP3    H232111   6.070   2.298  13.089  0.2379 -2.2458  0.5116
 3566TIP3   OH232112   4.993   3.633  16.314 -0.0807 -0.1128 -0.6900
 3566TIP3    H132113   5.081   3.606  16.285 -0.5058 -0.2023 -1.9359
 3566TIP3    H232114   5.005   3.657  16.406  1.1655 -0.5241 -0.7252
 3567TIP3   OH232115   6.277   4.526  12.291 -0.1873 -0.7171  0.9667
 3567TIP3    H132116   6.222   4.605  12.290  0.8279  0.0076  1.4050
 3567TIP3    H232117   6.298   4.510  12.199  1.3206  0.7620  1.0173
 3568TIP3   OH232118   6.066   3.039  16.318  0.2831  0.2416  0.7100
 3568TIP3    H132119   6.009   3.116  16.324  1.8046  1.4750 -0.1664
 3568TIP3    H232120   6.020   2.972  16.370 -1.8077  1.2523  0.2736
 3569TIP3   OH232121   3.937   5.377   0.570 -0.1427 -0.7161  0.4362
 3569TIP3    H132122   3.935   5.282   0.564  0.5244 -0.7980  1.2248
 3569TIP3    H232123   3.974   5.406   0.487  1.2900 -1.2621  0.8498
 3570TIP3   OH232124   2.846   3.928   1.322 -0.4074 -0.7443 -0.6832
 3570TIP3    H132125   2.833   3.840   1.357  1.6755 -0.0836  2.1395
 3570TIP3    H232126   2.782   3.982   1.370  1.3105 -0.0924  0.9860
 3571TIP3   OH232127   6.615   3.893  10.766  0.1166 -0.3439 -0.2207
 3571TIP3    H132128   6.554   3.821  10.752  2.9757 -3.3148  1.2460
 3571TIP3    H232129   6.692   3.871  10.714  1.0333  1.8162  0.0950
 3572TIP3   OH232130   5.239   1.146   2.850 -0.3530 -0.2453  0.2367
 3572TIP3    H132131   5.229   1.100   2.767  2.5490  0.8152 -0.8344
 3572TIP3    H232132   5.301   1.092   2.899  1.4649  1.3699 -0.1973
 3573TIP3   OH232133   1.256   3.087   3.022  0.2840  0.6359 -0.2763
 3573TIP3    H132134   1.239   3.133   2.940  1.6185  1.0844 -0.3309
 3573TIP3    H232135   1.311   3.147   3.072  2.1800 -0.8978 -0.4118
 3574TIP3   OH232136   4.747   2.386   4.968  0.1505 -0.6817 -0.6207
 3574TIP3    H132137   4.689   2.432   4.908 -0.1247 -0.2037  0.0027
 3574TIP3    H232138   4.784   2.315   4.916 -0.1405 -0.3195 -1.3295
 3575TIP3   OH232139   6.461   5.830   0.007 -0.1181  0.1212 -0.6118
 3575TIP3    H132140   6.371   5.851   0.033 -0.5620 -0.8280 -1.3582
 3575TIP3    H232141   6.509   5.824   0.090 -0.1679  2.9859 -0.2698
 3576TIP3   OH232142   0.113   6.450  15.257  0.4868 -0.1497  0.4705
 3576TIP3    H132143   0.174   6.384  15.223  0.3596  0.0616 -0.1790
 3576TIP3    H232144   0.100   6.510  15.184  0.7717  0.7279  1.1266
 3577TIP3   OH232145   3.372   3.655   5.234  0.0124 -0.1220 -0.4142
 3577TIP3    H132146   3.429   3.658   5.157 -1.3333  1.2191 -1.3878
 3577TIP3    H232147   3.309   3.585   5.214 -2.1752  2.1392 -1.9389
 3578TIP3   OH232148   5.984   4.620  12.428 -0.7792  0.6865 -0.0334
 3578TIP3    H132149   6.048   4.676  12.472 -0.1449  0.3105 -0.4658
 3578TIP3    H232150   5.911   4.614  12.489  0.8680 -1.4736  1.9000
 3579TIP3   OH232151   4.794   4.253   1.186 -0.1663 -0.1758  0.2116
 3579TIP3    H132152   4.712   4.302   1.178 -0.3559 -0.2563  1.4367
 3579TIP3    H232153   4.771   4.163   1.164  0.0058  0.1186 -1.2459
 3580TIP3   OH232154   3.512   3.207  11.911  0.1566  0.8488  0.2472
 3580TIP3    H132155   3.480   3.127  11.953 -0.3975  0.2975 -1.1841
 3580TIP3    H232156   3.580   3.239  11.971  1.7632 -1.7208 -0.0494
 3581TIP3   OH232157   0.285   6.039  11.797  0.6217  0.8666  0.7289
 3581TIP3    H132158   0.343   5.969  11.822  1.3408  1.8602  1.9510
 3581TIP3    H232159   0.273   6.028  11.703  1.6282 -0.1936  0.7077
 3582TIP3   OH232160   4.746   1.632  16.765  0.2860 -0.0948 -0.0895
 3582TIP3    H132161   4.662   1.623  16.812 -0.7022 -0.4053 -1.8498
 3582TIP3    H232162   4.810   1.644  16.835 -1.3704  1.4246  1.2819
 3583TIP3   OH232163   1.158   2.870   5.218 -0.1589  0.5656 -0.1095
 3583TIP3    H132164   1.212   2.798   5.186 -1.0795 -0.6900  0.9936
 3583TIP3    H232165   1.095   2.827   5.276 -1.4986  2.1256 -0.3455
 3584TIP3   OH232166   0.956   2.007  14.982  0.3435  0.1208 -0.0160
 3584TIP3    H132167   1.033   2.012  14.925 -0.2929 -0.6163 -0.9814
 3584TIP3    H232168   0.914   2.093  14.972 -0.0883 -0.1993 -1.1751
 3585TIP3   OH232169   0.990   5.540  11.935  0.4212 -0.2864  0.0903
 3585TIP3    H132170   0.956   5.474  11.996  2.0007 -0.3998  0.9064
 3585TIP3    H232171   0.953   5.516  11.850 -1.3674 -0.4634  0.8913
 3586TIP3   OH232172   3.545   3.609  16.918 -0.3380 -0.0405 -0.0893
 3586TIP3    H132173   3.527   3.609  16.824 -0.0172  1.1196 -0.1619
 3586TIP3    H232174   3.607   3.680  16.931  1.5460 -1.7333  0.6695
 3587TIP3   OH232175   0.347   6.037  13.426 -0.6872 -0.2496  0.4515
 3587TIP3    H132176   0.433   6.050  13.386 -0.4552  1.1572  1.3404
 3587TIP3    H232177   0.310   5.962  13.380  0.7800 -0.5256 -0.3359
 3588TIP3   OH232178   0.616   4.651   4.918 -0.1794  0.3384 -0.5910
 3588TIP3    H132179   0.674   4.723   4.890 -0.0540  0.3953 -0.1823
 3588TIP3    H232180   0.558   4.638   4.843  0.1410  0.5106 -0.8740
 3589TIP3   OH232181   5.781   4.019   1.240 -0.3242  0.2523  0.5536
 3589TIP3    H132182   5.854   4.049   1.185 -2.5071  2.6626 -1.2419
 3589TIP3    H232183   5.730   3.961   1.184 -0.1072 -1.0414  1.6438
 3590TIP3   OH232184   3.983   5.920  16.854  0.5604 -0.4760 -0.4745
 3590TIP3    H132185   3.916   5.876  16.906  1.1590  0.0166  0.7338
 3590TIP3    H232186   3.936   5.992  16.812 -0.2863 -1.8233 -1.9710
 3591TIP3   OH232187   5.567   0.834  13.593  0.3260 -0.6927 -0.2193
 3591TIP3    H132188   5.644   0.824  13.537  0.5137 -1.0278  0.0986
 3591TIP3    H232189   5.498   0.864  13.533  1.0481  0.9732 -0.2673
 3592TIP3   OH232190   5.327   6.495   6.525  0.1081 -0.2823  0.4518
 3592TIP3    H132191   5.310   6.577   6.572  0.4707 -0.9525  1.8074
 3592TIP3    H232192   5.329   6.520   6.433 -2.2316  0.8111  0.6446
 3593TIP3   OH232193   1.230   0.921  16.027  0.1955 -0.1194 -0.0549
 3593TIP3    H132194   1.217   0.882  16.113 -1.1002 -0.7238 -0.5035
 3593TIP3    H232195   1.201   1.012  16.037 -2.2359 -0.7774 -0.3826
 3594TIP3   OH232196   0.462   0.954  13.560  0.4841 -0.2900  0.2608
 3594TIP3    H132197   0.455   1.012  13.635  1.2475  0.8773 -0.5366
 3594TIP3    H232198   0.446   1.010  13.484  2.2114 -0.8674 -0.5905
 3595TIP3   OH232199   4.181   2.823  13.426 -0.4006 -0.4698 -0.1883
 3595TIP3    H132200   4.198   2.915  13.404  3.0188 -1.4134 -2.2858
 3595TIP3    H232201   4.167   2.824  13.521  1.4587  2.0473  0.1812
 3596TIP3   OH232202   2.670   0.312   3.115 -0.2668 -0.2631 -0.0822
 3596TIP3    H132203   2.683   0.225   3.152  2.2951 -0.3952 -1.0191
 3596TIP3    H232204   2.713   0.372   3.177  1.1633 -0.1352 -1.1292
 3597TIP3   OH232205   3.822   2.191  14.765 -0.1731 -0.5677  0.2513
 3597TIP3    H132206   3.735   2.230  14.766  0.4997  0.9954  2.0665
 3597TIP3    H232207   3.829   2.146  14.849 -0.0307 -2.6926 -0.8200
 3598TIP3   OH232208   4.359   0.437  11.289  0.4053 -0.2286  0.5676
 3598TIP3    H132209   4.410   0.479  11.220 -1.5582  1.5156  0.0893
 3598TIP3    H232210   4.400   0.351  11.298  0.5758 -0.7092 -3.0209
 3599TIP3   OH232211   1.351   6.437   1.648 -0.3915  0.2670 -0.4018
 3599TIP3    H132212   1.358   6.400   1.736  0.8417 -3.4792 -1.8385
 3599TIP3    H232213   1.273   6.493   1.651 -0.3703  0.2960  3.0086
 3600TIP3   OH232214   0.971   5.098  14.306 -0.0822  0.4294 -0.1465
 3600TIP3    H132215   1.007   5.083  14.393 -0.9353 -2.1406 -0.1716
 3600TIP3    H232216   1.041   5.143  14.259  1.2910 -0.2310  1.1779
 3601TIP3   OH232217   4.375   6.327  11.528  0.7443 -0.4626  0.2835
 3601TIP3    H132218   4.304   6.374  11.484  1.3860  0.2039 -0.0601
 3601TIP3    H232219   4.352   6.331  11.621 -0.4299 -1.5587  0.0656
 3602TIP3   OH232220   3.981   5.417   3.305  0.3490  0.0807  0.0394
 3602TIP3    H132221   3.986   5.498   3.356  1.4324 -0.2005  0.3974
 3602TIP3    H232222   4.068   5.409   3.264 -0.2014 -0.1733 -1.1316
 3603TIP3   OH232223   4.155   4.465  13.422  0.4902 -0.4636 -0.9675
 3603TIP3    H132224   4.105   4.395  13.381  0.9648 -1.4972  0.1613
 3603TIP3    H232225   4.191   4.426  13.501 -0.6231  1.5117  0.6132
 3604TIP3   OH232226   4.641   2.958  14.965  0.0026 -0.0342  0.2412
 3604TIP3    H132227   4.714   2.960  14.903 -0.0607 -0.3881  0.1552
 3604TIP3    H232228   4.580   2.893  14.929 -0.1224 -0.1049  0.5770
 3605TIP3   OH232229   2.827   0.914   0.949  0.3553  0.9909 -0.3212
 3605TIP3    H132230   2.864   0.858   0.881  0.0212  0.6003 -0.1860
 3605TIP3    H232231   2.828   0.860   1.028 -0.6037  0.9308 -0.3421
 3606TIP3   OH232232   1.767   1.953  11.184  0.2979 -0.6516 -0.1120
 3606TIP3    H132233   1.793   2.017  11.118  1.4916 -2.4967 -1.5610
 3606TIP3    H232234   1.811   1.980  11.264  0.7815  0.3095 -0.6908
 3607TIP3   OH232235   2.361   3.297  12.452  1.0421  0.4135 -0.0279
 3607TIP3    H132236   2.328   3.353  12.522  2.3455  1.4590 -0.2156
 3607TIP3    H232237   2.282   3.262  12.410  0.2406 -0.3574  2.0129
 3608TIP3   OH232238   0.436   4.172   2.017 -0.5328 -0.1161 -0.0527
 3608TIP3    H132239   0.487   4.249   1.991 -2.8664  1.9879  1.2546
 3608TIP3    H232240   0.491   4.128   2.082  1.2852 -0.2267 -1.5613
 3609TIP3   OH232241   1.175   5.818   0.914 -0.2327  0.2587  0.0290
 3609TIP3    H132242   1.265   5.820   0.882  0.2476 -0.0295  1.3251
 3609TIP3    H232243   1.171   5.744   0.973 -0.6536  1.6308  1.8239
 3610TIP3   OH232244   0.772   5.787  17.254 -0.4184  0.2276 -0.7816
 3610TIP3    H132245   0.769   5.788  17.158 -0.3480  1.3941 -0.7760
 3610TIP3    H232246   0.863   5.767  17.275 -0.4785 -0.2438 -0.9468
 3611TIP3   OH232247   1.904   6.626   3.445  0.0130 -0.7212 -0.2927
 3611TIP3    H132248   1.872   6.711   3.414  1.4971 -0.1224 -0.2488
 3611TIP3    H232249   1.901   6.570   3.368  0.4644 -0.1976 -0.6951
 3612TIP3   OH232250   6.113   5.566  10.758  0.2788  0.1232 -0.3002
 3612TIP3    H132251   6.128   5.655  10.728  0.0855 -0.3043 -1.7833
 3612TIP3    H232252   6.200   5.525  10.753  0.0713 -0.2212 -1.2851
 3613TIP3   OH232253   5.577   6.751  14.301  0.3222  0.1484  0.2896
 3613TIP3    H132254   5.495   6.770  14.256  0.1057  0.4388  0.7892
 3613TIP3    H232255   5.571   6.802  14.382  1.1027  0.3701  0.2132
 3614TIP3   OH232256   3.307   2.407  14.492 -0.6182 -0.4575 -0.6188
 3614TIP3    H132257   3.381   2.420  14.552 -1.2922  0.3198  0.0615
 3614TIP3    H232258   3.308   2.484  14.435 -0.6595 -0.6511 -0.8835
 3615TIP3   OH232259   2.097   3.099  11.487  0.2731  0.2783 -0.2350
 3615TIP3    H132260   2.017   3.140  11.519 -0.4228 -1.0627 -0.1891
 3615TIP3    H232261   2.123   3.152  11.411 -2.6459 -1.2322 -2.4751
 3616TIP3   OH232262   5.232   5.494  16.129 -0.1107 -0.0540 -0.0086
 3616TIP3    H132263   5.264   5.439  16.201  1.3574  0.6603 -0.0867
 3616TIP3    H232264   5.236   5.438  16.052  1.6504  0.2086 -0.1394
 3617TIP3   OH232265   0.938   6.387  14.833  0.3022  0.4356  0.6092
 3617TIP3    H132266   1.027   6.365  14.861  0.6410  1.5776  0.4543
 3617TIP3    H232267   0.938   6.482  14.825 -0.7283  0.3901 -0.0936
 3618TIP3   OH232268   6.638   6.039   4.918  0.5309 -0.2852 -0.6010
 3618TIP3    H132269   6.711   5.979   4.905  1.3169  0.4716  0.1466
 3618TIP3    H232270   6.679   6.124   4.937 -0.5501  0.6343 -2.1665
 3619TIP3   OH232271   5.112   5.598  14.638 -0.0068  0.5061  0.0344
 3619TIP3    H132272   5.108   5.606  14.543 -1.5057  0.1441  0.0477
 3619TIP3    H232273   5.126   5.688  14.669 -0.4624  0.7548 -0.4810
 3620TIP3   OH232274   1.790   2.806  11.246 -0.1475  0.3460 -0.1496
 3620TIP3    H132275   1.760   2.874  11.306 -0.8743 -0.0596 -0.0424
 3620TIP3    H232276   1.822   2.736  11.303  1.2253  0.8512 -0.2607
 3621TIP3   OH232277   6.163   3.345  16.943  0.2321 -0.3422 -0.0860
 3621TIP3    H132278   6.119   3.406  16.883 -3.4366 -1.3974  1.2207
 3621TIP3    H232279   6.162   3.261  16.897 -3.1641 -1.3027  1.3595
 3622TIP3   OH232280   6.114   6.705  11.116 -0.4283 -0.4231 -0.0933
 3622TIP3    H132281   6.041   6.645  11.097  0.1301 -1.0708 -0.2247
 3622TIP3    H232282   6.162   6.664  11.187 -0.4444  0.2365  0.3136
 3623TIP3   OH232283   4.871   0.487   4.670  0.0091 -0.5281  0.5083
 3623TIP3    H132284   4.936   0.490   4.740 -0.0238  0.0872  0.5144
 3623TIP3    H232285   4.827   0.572   4.674  0.0830 -0.4379 -0.3274
 3624TIP3   OH232286   5.122   2.761  15.066 -0.6091 -0.0368 -0.3547
 3624TIP3    H132287   5.180   2.768  14.990 -2.8680  2.1893 -2.0128
 3624TIP3    H232288   5.069   2.840  15.064 -1.9599 -0.7140  2.6008
 3625TIP3   OH232289   0.502   0.392   5.739 -0.1033 -0.2314  0.5534
 3625TIP3    H132290   0.516   0.487   5.745 -1.8893  0.0312  1.2356
 3625TIP3    H232291   0.454   0.380   5.658  0.4696 -0.6105  0.2659
 3626TIP3   OH232292   5.185   2.210  11.977 -0.6202 -0.1620 -0.1955
 3626TIP3    H132293   5.170   2.223  11.883 -0.6699  0.7783 -0.0712
 3626TIP3    H232294   5.209   2.118  11.985  0.1850 -0.0686 -1.2454
 3627TIP3   OH232295   4.945   6.631  13.621  0.3093  0.4039 -0.0131
 3627TIP3    H132296   5.039   6.626  13.637 -0.0755  0.2817  2.6557
 3627TIP3    H232297   4.905   6.609  13.705 -2.1474 -0.4908 -1.3053
 3628TIP3   OH232298   6.692   0.986  11.935 -0.1913  0.1942 -0.3470
 3628TIP3    H132299   6.681   0.957  12.026 -0.1552 -0.3605 -0.5172
 3628TIP3    H232300   6.602   0.995  11.902 -0.2645 -2.3433 -1.1065
 3629TIP3   OH232301   4.315   6.684   1.407  0.3370  0.4066  0.2369
 3629TIP3    H132302   4.351   6.613   1.353  0.1185 -0.3387  1.0421
 3629TIP3    H232303   4.273   6.743   1.344  0.1200 -0.4189 -0.4186
 3630TIP3   OH232304   0.233   3.413  14.467 -0.3115 -0.3697  0.0851
 3630TIP3    H132305   0.182   3.428  14.546 -0.9297 -0.2380 -0.3304
 3630TIP3    H232306   0.309   3.362  14.496 -0.1171  0.3735  0.8813
 3631TIP3   OH232307   6.269   4.698  13.820 -0.5424  0.8120  0.0777
 3631TIP3    H132308   6.350   4.749  13.823 -1.2819  2.1823 -1.5761
 3631TIP3    H232309   6.246   4.684  13.912  0.8977  1.4901  0.5748
 3632TIP3   OH232310   6.765   0.958  14.101 -0.6095  0.1244  0.7362
 3632TIP3    H132311   6.705   0.944  14.029 -2.0463 -1.3468  2.1341
 3632TIP3    H232312   6.804   0.872  14.117 -1.3917  0.0657  2.5756
 3633TIP3   OH232313   4.150   3.747   1.305 -0.1343 -0.7519 -0.3290
 3633TIP3    H132314   4.240   3.768   1.331  0.4053 -1.3666 -1.6644
 3633TIP3    H232315   4.104   3.830   1.313  0.6908 -0.2898 -0.2072
 3634TIP3   OH232316   2.950   2.671   1.128  0.4759  0.3080 -0.3920
 3634TIP3    H132317   2.872   2.615   1.131  1.7987 -1.5904  2.1231
 3634TIP3    H232318   2.962   2.689   1.034 -0.8284 -2.5048 -1.2310
 3635TIP3   OH232319   5.740   1.120   6.277  0.5581  0.3896  0.2003
 3635TIP3    H132320   5.646   1.120   6.265  0.5888  1.5959 -0.1486
 3635TIP3    H232321   5.763   1.028   6.288 -0.7127  0.1263  0.7756
 3636TIP3   OH232322   4.154   6.236   5.211  0.5742  0.6191  0.8079
 3636TIP3    H132323   4.136   6.180   5.287  0.2122 -1.0764 -0.4523
 3636TIP3    H232324   4.069   6.247   5.169  0.8590  1.0428  0.3322
 3637TIP3   OH232325   3.453   6.427   4.493  0.3868 -0.8633  0.4150
 3637TIP3    H132326   3.484   6.517   4.490 -2.2347  0.1459  0.5037
 3637TIP3    H232327   3.466   6.395   4.403 -0.5135  0.3424 -0.1831
 3638TIP3   OH232328   5.841   4.258  12.277  0.2695 -0.2149  0.1733
 3638TIP3    H132329   5.862   4.343  12.240 -2.6757  0.4215 -0.2594
 3638TIP3    H232330   5.926   4.217  12.293  1.7354  2.1070 -1.1566
 3639TIP3   OH232331   5.236   0.690   1.367 -0.0785 -0.3185 -0.2139
 3639TIP3    H132332   5.310   0.632   1.347  0.1025 -0.3506  0.5315
 3639TIP3    H232333   5.190   0.647   1.439 -0.8304 -0.2983 -0.6739
 3640TIP3   OH232334   0.754   2.445   3.923  0.4268  0.4430  0.0996
 3640TIP3    H132335   0.756   2.491   3.839 -0.0132 -0.3845 -0.3774
 3640TIP3    H232336   0.663   2.455   3.953 -0.9047 -3.4326 -1.9544
 3641TIP3   OH232337   3.721   4.228  16.343 -0.6052 -0.1312  0.3604
 3641TIP3    H132338   3.787   4.289  16.311 -1.4010 -0.7993 -2.9261
 3641TIP3    H232339   3.757   4.142  16.324 -2.2482 -0.5079 -1.3872
 3642TIP3   OH232340   0.896   5.441   0.010  0.0240 -0.2679  0.1154
 3642TIP3    H132341   0.843   5.428   0.089 -1.9030 -1.1737 -1.2464
 3642TIP3    H232342   0.894   5.356  -0.034  1.5266  0.0655 -0.6690
 3643TIP3   OH232343   3.543   1.604   0.595 -0.4938  0.1453  0.0849
 3643TIP3    H132344   3.582   1.534   0.542  0.2202 -0.1931  1.0252
 3643TIP3    H232345   3.451   1.606   0.568 -0.5777 -1.2994  0.1716
 3644TIP3   OH232346   0.141   2.221  13.866  0.0666  0.3005  0.5106
 3644TIP3    H132347   0.194   2.284  13.914 -0.9245  0.0945  1.9234
 3644TIP3    H232348   0.203   2.177  13.808  0.8930  2.0682 -0.0110
 3645TIP3   OH232349   1.964   1.026   4.037 -0.0886 -0.2395  0.3178
 3645TIP3    H132350   2.033   1.090   4.020 -0.1391  0.4105  2.3292
 3645TIP3    H232351   2.002   0.965   4.100 -1.0542 -0.3780  0.7806
 3646TIP3   OH232352   5.160   2.602   4.416  0.3053  0.7004 -0.2632
 3646TIP3    H132353   5.161   2.547   4.495  2.1871  1.0963  0.0359
 3646TIP3    H232354   5.142   2.541   4.345 -2.2171  0.4502  0.4924
 3647TIP3   OH232355   6.219   0.119  15.111 -0.2512 -0.3039 -0.1253
 3647TIP3    H132356   6.151   0.080  15.166 -0.0921  1.0538  1.1094
 3647TIP3    H232357   6.216   0.212  15.133 -0.2085  0.3258 -2.4866
 3648TIP3   OH232358   4.736   0.051  15.852  0.7942  0.0132 -0.2483
 3648TIP3    H132359   4.737   0.089  15.940 -2.0697 -0.2199 -0.0401
 3648TIP3    H232360   4.658   0.087  15.811  1.1928 -1.1488 -2.1396
 3649TIP3   OH232361   4.774   2.871  13.202 -0.1936  0.0150 -0.0793
 3649TIP3    H132362   4.815   2.793  13.238 -1.3260 -0.4283  0.2966
 3649TIP3    H232363   4.793   2.940  13.266  2.0459  0.4374 -1.1113
 3650TIP3   OH232364   2.501   3.340   1.175  0.0323 -0.2050  0.0116
 3650TIP3    H132365   2.541   3.426   1.165  0.8084 -0.3123  1.7981
 3650TIP3    H232366   2.428   3.355   1.235  1.6732 -1.1325  2.3863
 3651TIP3   OH232367   0.199   3.672   1.621  0.5298  0.2763  0.0020
 3651TIP3    H132368   0.133   3.674   1.690 -0.3286 -2.6109 -0.6295
 3651TIP3    H232369   0.282   3.688   1.667 -0.3329  1.7609  1.1334
 3652TIP3   OH232370   2.869   4.208   1.378  0.1777  0.5034 -0.5372
 3652TIP3    H132371   2.832   4.288   1.339 -2.7619 -0.5685 -0.2105
 3652TIP3    H232372   2.879   4.148   1.304 -1.9406 -0.2884 -0.2527
 3653TIP3   OH232373   2.306   3.678   2.739  0.7908 -0.5133  0.1177
 3653TIP3    H132374   2.259   3.634   2.810 -0.4391 -0.5163 -0.6852
 3653TIP3    H232375   2.358   3.745   2.784  1.2678 -1.5482  1.1670
 3654TIP3   OH232376   5.984   5.561   5.550 -0.1043  0.1496 -0.1321
 3654TIP3    H132377   5.957   5.483   5.599 -0.3442 -0.8906 -1.8409
 3654TIP3    H232378   6.079   5.565   5.563 -0.1869  0.0048  0.5522
 3655TIP3   OH232379   2.197   0.884  15.821  0.3579 -0.0138  0.3429
 3655TIP3    H132380   2.201   0.968  15.776  0.7334 -0.4184 -0.3983
 3655TIP3    H232381   2.119   0.891  15.877  0.7469  1.0535  0.7841
 3656TIP3   OH232382   0.457   2.032   5.414  0.2968 -0.3302  0.2559
 3656TIP3    H132383   0.419   1.945   5.424  1.2174 -0.9339 -1.1033
 3656TIP3    H232384   0.548   2.021   5.443  0.0054  0.5813  1.5581
 3657TIP3   OH232385   6.233   4.773  15.890 -0.0168  0.5124  0.4967
 3657TIP3    H132386   6.252   4.680  15.892 -1.1731  0.2627  0.2987
 3657TIP3    H232387   6.259   4.801  15.801 -1.6504 -0.0723 -0.1904
 3658TIP3   OH232388   4.353   6.272   2.957  0.4238  0.4064  0.0030
 3658TIP3    H132389   4.425   6.298   3.015  1.2071 -1.2274 -0.1439
 3658TIP3    H232390   4.282   6.248   3.016  0.8641 -0.2726  0.2748
 3659TIP3   OH232391   4.762   3.949  11.598  0.0144 -0.4365 -0.2070
 3659TIP3    H132392   4.827   4.016  11.579 -0.9334  0.2432 -1.1365
 3659TIP3    H232393   4.737   3.915  11.513 -2.0805  0.5254 -0.0366
 3660TIP3   OH232394   4.864   2.128   5.550  0.7929 -0.4266 -0.1054
 3660TIP3    H132395   4.949   2.091   5.525  0.4583 -2.0719  1.0431
 3660TIP3    H232396   4.880   2.170   5.635  0.2538 -1.7179  0.6626
 3661TIP3   OH232397   5.144   2.865   0.049 -0.3421 -0.1384  0.2340
 3661TIP3    H132398   5.137   2.785   0.102  1.4210  0.5115  1.5313
 3661TIP3    H232399   5.169   2.933   0.111 -0.2399  1.1020 -1.1199
 3662TIP3   OH232400   1.747   6.138  13.565 -0.2841  0.1348  0.2501
 3662TIP3    H132401   1.750   6.117  13.659 -1.2085 -2.1579 -0.1489
 3662TIP3    H232402   1.769   6.231  13.560  2.9979 -0.3466  2.4455
 3663TIP3   OH232403   4.731   5.577   4.701 -0.0545  0.0043 -0.4408
 3663TIP3    H132404   4.765   5.488   4.692 -0.0065 -0.2194  1.5685
 3663TIP3    H232405   4.796   5.623   4.754 -1.2598  0.5135  0.6518
 3664TIP3   OH232406   0.506   5.167  17.080  0.6566  0.4454  0.1959
 3664TIP3    H132407   0.490   5.258  17.106  0.4866  0.3168  0.5550
 3664TIP3    H232408   0.509   5.119  17.163  1.3666  0.2172  0.0416
 3665TIP3   OH232409   4.015   0.102  13.113  0.4233  0.2558 -0.1011
 3665TIP3    H132410   3.938   0.156  13.133  0.1082  0.7664 -2.3938
 3665TIP3    H232411   4.089   0.151  13.150 -0.0662  1.2868 -0.4497
 3666TIP3   OH232412   3.783   6.693   1.175 -1.0028 -0.2298  0.3975
 3666TIP3    H132413   3.758   6.705   1.267 -1.6395 -0.1413  0.2209
 3666TIP3    H232414   3.801   6.600   1.167 -0.5575 -0.1759  0.6996
 3667TIP3   OH232415   4.752   5.202  15.440 -0.5686 -0.3109  0.1825
 3667TIP3    H132416   4.785   5.291  15.436  2.8498 -1.3163  1.8396
 3667TIP3    H232417   4.727   5.189  15.531 -2.0460 -0.7661 -0.2660
 3668TIP3   OH232418   2.687   2.190   4.567 -0.2663 -0.3610 -0.3254
 3668TIP3    H132419   2.647   2.226   4.646 -1.6000 -0.5011 -0.9121
 3668TIP3    H232420   2.724   2.106   4.595  1.8751  0.8679  0.7883
 3669TIP3   OH232421   3.133   6.392   4.486  0.5532 -0.6173  0.2198
 3669TIP3    H132422   3.154   6.474   4.529  0.1575 -0.9539  1.0847
 3669TIP3    H232423   3.207   6.375   4.428  0.8827  0.0836  0.4296
 3670TIP3   OH232424   3.407   5.356   1.744  1.2100  0.0027 -0.4413
 3670TIP3    H132425   3.464   5.425   1.709 -1.4913  2.7427  0.0911
 3670TIP3    H232426   3.342   5.341   1.674 -0.6831  1.1652  0.9672
 3671TIP3   OH232427   4.157   2.732   1.373  0.6809 -0.3637  0.1688
 3671TIP3    H132428   4.072   2.736   1.330  1.3966 -3.0216 -1.7825
 3671TIP3    H232429   4.186   2.823   1.379 -1.1200  0.3853 -1.6083
 3672TIP3   OH232430   6.678   0.309  16.925  0.8373 -0.1554  0.6261
 3672TIP3    H132431   6.616   0.241  16.950  0.0405  0.5636  0.6652
 3672TIP3    H232432   6.730   0.325  17.003  0.6636 -0.3419  0.7787
 3673TIP3   OH232433   5.146   1.768   4.112 -0.2523  0.2874 -0.1161
 3673TIP3    H132434   5.054   1.782   4.093 -0.7641 -1.2836  0.9636
 3673TIP3    H232435   5.177   1.711   4.041 -0.6791 -0.8805  0.6043
 3674TIP3   OH232436   5.823   3.652  12.263  0.2747 -0.0743 -0.5493
 3674TIP3    H132437   5.792   3.617  12.180 -0.6547 -1.5073  0.3513
 3674TIP3    H232438   5.770   3.730  12.278  0.1996 -0.0131 -1.1138
 3675TIP3   OH232439   2.643   6.163  10.430  0.1343 -0.3051  0.4675
 3675TIP3    H132440   2.604   6.249  10.448 -0.3692 -0.2390 -0.8762
 3675TIP3    H232441   2.575   6.100  10.456 -0.3706 -0.2253 -0.6312
 3676TIP3   OH232442   6.501   4.228   4.628 -0.1025  0.4954  0.5409
 3676TIP3    H132443   6.556   4.288   4.578 -0.0828 -0.9562 -1.2568
 3676TIP3    H232444   6.424   4.214   4.573 -0.0998 -1.1217  0.8881
 3677TIP3   OH232445   3.601   3.550  10.927  0.5407  0.4560  0.1474
 3677TIP3    H132446   3.535   3.603  10.881 -0.4938 -1.3361 -0.5809
 3677TIP3    H232447   3.625   3.601  11.003  0.3167  2.3736 -1.0080
 3678TIP3   OH232448   1.983   5.205   1.622  0.2152 -0.0534  0.4193
 3678TIP3    H132449   1.924   5.197   1.547  1.8984  1.4432 -1.1779
 3678TIP3    H232450   1.925   5.219   1.697 -1.5010 -0.8372 -0.6847
 3679TIP3   OH232451   2.230   5.356  15.959 -0.0860  0.3570 -0.3867
 3679TIP3    H132452   2.229   5.319  16.047  0.8269  0.2864 -0.3943
 3679TIP3    H232453   2.259   5.447  15.972 -2.7105  1.2819 -0.3131
 3680TIP3   OH232454   1.044   4.081  12.944  0.1158 -0.3848  0.1495
 3680TIP3    H132455   1.124   4.132  12.929  0.9793 -2.2786 -2.4371
 3680TIP3    H232456   1.075   3.996  12.975 -1.0246 -0.7010  0.4725
 3681TIP3   OH232457   4.863   1.751   5.081  0.0864 -0.1803  0.1025
 3681TIP3    H132458   4.886   1.739   4.989 -0.7297 -0.6538 -0.0461
 3681TIP3    H232459   4.787   1.695   5.095 -0.3521  0.5705  0.8463
 3682TIP3   OH232460   0.843   6.431  12.180 -0.1543 -0.0616  0.6426
 3682TIP3    H132461   0.770   6.477  12.223 -1.7091  0.1208 -1.9710
 3682TIP3    H232462   0.850   6.473  12.094  0.7663 -2.3348 -0.4655
 3683TIP3   OH232463   5.094   0.918  12.594 -0.2195  0.2092 -0.3069
 3683TIP3    H132464   5.183   0.884  12.603 -0.2771 -0.4539 -1.9295
 3683TIP3    H232465   5.038   0.840  12.594 -0.5632  0.4309 -1.7540
 3684TIP3   OH232466   2.024   0.152   0.911  0.0782  0.0076 -0.1289
 3684TIP3    H132467   2.060   0.214   0.974 -2.2577 -0.6495  2.0396
 3684TIP3    H232468   1.940   0.190   0.885 -1.0390 -1.8048  0.6410
 3685TIP3   OH232469   2.826   3.014   2.573  0.3293 -0.1126  0.2389
 3685TIP3    H132470   2.879   3.052   2.503  0.4294  0.6695  0.7195
 3685TIP3    H232471   2.739   3.003   2.534  0.5174 -0.1840 -0.1659
 3686TIP3   OH232472   2.393   3.716  12.266  0.0648  0.5404 -0.0864
 3686TIP3    H132473   2.455   3.655  12.227 -0.0973  1.0487 -1.1912
 3686TIP3    H232474   2.312   3.701  12.218 -0.7090 -0.1522  1.3725
 3687TIP3   OH232475   1.938   6.042   4.613  0.3329  0.1377 -0.1071
 3687TIP3    H132476   1.909   5.992   4.690  2.2368  1.0536  1.2835
 3687TIP3    H232477   1.930   6.133   4.640  1.0949  0.4649 -0.9798
 3688TIP3   OH232478   0.342   0.177   0.363 -0.3992  0.1693 -0.5602
 3688TIP3    H132479   0.263   0.202   0.315 -1.3533  0.9248  1.3334
 3688TIP3    H232480   0.313   0.108   0.423  0.4090  0.3821  0.0911
 3689TIP3   OH232481   5.009   2.837  14.569 -0.7853  0.0094  0.2032
 3689TIP3    H132482   5.040   2.748  14.586 -2.1755 -0.4812  0.3798
 3689TIP3    H232483   4.936   2.825  14.507 -0.7683  1.0581 -0.0415
 3690TIP3   OH232484   3.649   2.071   5.086 -0.2909 -0.2138  0.6616
 3690TIP3    H132485   3.601   2.097   5.008  1.1882  0.5929 -0.0038
 3690TIP3    H232486   3.697   1.992   5.060  0.7623  0.4598  0.5122
 3691TIP3   OH232487   4.795   1.908  11.325  0.0939 -0.4081  0.4259
 3691TIP3    H132488   4.712   1.945  11.355  0.0952 -1.9789  2.5837
 3691TIP3    H232489   4.841   1.884  11.406  1.1619 -2.6858 -0.7682
 3692TIP3   OH232490   0.435   2.785   1.398  0.7832 -0.1710 -0.3379
 3692TIP3    H132491   0.448   2.880   1.403  1.2194 -0.1741 -1.2458
 3692TIP3    H232492   0.436   2.756   1.489  3.9148  0.2764 -0.1340
 3693TIP3   OH232493   5.086   6.186  10.705 -0.2064 -0.0898 -0.0017
 3693TIP3    H132494   5.081   6.197  10.800 -2.3924 -2.7215  0.3291
 3693TIP3    H232495   5.170   6.142  10.690 -1.6495 -3.7369  1.4137
 3694TIP3   OH232496   5.408   4.719   0.910  0.2646  0.2613  0.2204
 3694TIP3    H132497   5.397   4.791   0.972 -1.6524 -0.6800  1.0509
 3694TIP3    H232498   5.357   4.647   0.948  0.6991 -0.9808 -1.4573
 3695TIP3   OH232499   1.928   2.041  15.744 -0.1927  0.3900  0.1580
 3695TIP3    H132500   1.912   2.119  15.692 -0.1222  0.2783 -0.0326
 3695TIP3    H232501   1.954   1.974  15.680  2.5454  0.9523  0.5720
 3696TIP3   OH232502   3.548   3.470  13.343  0.1142 -0.4067 -0.2242
 3696TIP3    H132503   3.499   3.390  13.323  0.5027 -0.7617  0.2198
 3696TIP3    H232504   3.503   3.508  13.418 -1.6009  1.1502 -1.9384
 3697TIP3   OH232505   2.922   0.263   4.178  0.1359  0.0121 -0.6270
 3697TIP3    H132506   2.965   0.200   4.120  1.1200  0.8560 -0.8439
 3697TIP3    H232507   2.989   0.330   4.194  1.0009 -1.5347  3.7616
 3698TIP3   OH232508   5.086   0.551   2.537  0.3808 -0.5463  0.5579
 3698TIP3    H132509   5.035   0.622   2.577 -0.7328 -0.3601 -1.0906
 3698TIP3    H232510   5.166   0.548   2.589 -1.0385 -0.4852  2.9438
 3699TIP3   OH232511   6.007   1.018  15.110 -0.7517  0.4281 -0.7364
 3699TIP3    H132512   5.984   1.058  15.194 -4.0421 -1.0298 -0.7563
 3699TIP3    H232513   5.992   1.087  15.046 -3.0499  0.2739 -0.4699
 3700TIP3   OH232514   5.262   0.562   5.199 -0.1082  0.1355  0.5092
 3700TIP3    H132515   5.288   0.633   5.257 -0.3106  1.9108 -1.4645
 3700TIP3    H232516   5.187   0.521   5.242  0.9843  0.0510  2.4304
 3701TIP3   OH232517   0.078   6.571   0.829 -0.1381 -0.1266  0.1016
 3701TIP3    H132518   0.043   6.488   0.863 -1.0265  0.2412  0.1031
 3701TIP3    H232519   0.172   6.565   0.846 -0.5427  0.1580  2.9187
 3702TIP3   OH232520   0.743   5.371  16.857  0.0600  0.2961  0.1717
 3702TIP3    H132521   0.704   5.427  16.924 -0.5958  0.7834 -0.5922
 3702TIP3    H232522   0.689   5.386  16.779  0.0733 -1.1383 -0.1511
 3703TIP3   OH232523   1.701   5.609   5.948  0.7646 -0.0140  0.2134
 3703TIP3    H132524   1.792   5.638   5.938  0.1333  1.5612 -2.0195
 3703TIP3    H232525   1.650   5.677   5.903 -1.2329 -2.5485 -1.6579
 3704TIP3   OH232526   4.191   4.767   2.785  0.1284  0.1581  0.0902
 3704TIP3    H132527   4.145   4.766   2.701  1.3889  0.9028 -0.6378
 3704TIP3    H232528   4.232   4.681   2.791  1.1899  0.5936 -0.7371
 3705TIP3   OH232529   3.909   3.146  12.933  0.6601  0.8052  0.0308
 3705TIP3    H132530   3.855   3.224  12.921 -0.5044  0.2073  1.1941
 3705TIP3    H232531   3.848   3.079  12.962  1.5407 -0.7325 -1.5142
 3706TIP3   OH232532   0.597   5.352  11.005  0.6840  0.1446 -0.2157
 3706TIP3    H132533   0.579   5.282  11.069  1.9246  0.1675  0.1916
 3706TIP3    H232534   0.616   5.305  10.924 -2.4558  0.1526 -1.0571
 3707TIP3   OH232535   2.357   4.164   3.558  0.1261  0.0164 -0.1691
 3707TIP3    H132536   2.450   4.187   3.567 -0.5200  2.7170  0.4273
 3707TIP3    H232537   2.337   4.114   3.637  0.9336 -0.1950 -0.0839
 3708TIP3   OH232538   4.106   6.135  17.070 -0.1447 -0.0481  0.3570
 3708TIP3    H132539   4.063   6.075  17.009  0.0994  0.0127  0.1278
 3708TIP3    H232540   4.182   6.168  17.022 -1.1738  1.7198 -0.1419
 3709TIP3   OH232541   2.255   0.811  17.231  0.4864  0.4738  0.6994
 3709TIP3    H132542   2.297   0.787  17.314  1.6572  0.6490  0.1707
 3709TIP3    H232543   2.295   0.754  17.166  0.3970  1.1199  0.0631
 3710TIP3   OH232544   6.717   1.653  16.996  0.1768 -0.2051 -0.0843
 3710TIP3    H132545   6.687   1.738  16.965 -0.4405  0.4606  2.1435
 3710TIP3    H232546   6.788   1.673  17.057 -0.5135 -1.1756  1.0914
 3711TIP3   OH232547   4.887   6.661   0.966  0.0126  0.2904  0.4502
 3711TIP3    H132548   4.834   6.721   0.914  0.5312  0.7224  0.4075
 3711TIP3    H232549   4.962   6.714   0.994 -0.8300  0.4380  2.6339
 3712TIP3   OH232550   0.866   1.142  13.208 -0.0681  0.0468  0.1856
 3712TIP3    H132551   0.902   1.071  13.154 -0.0395 -1.1575  1.7036
 3712TIP3    H232552   0.801   1.098  13.264 -1.5938  1.6050 -0.2659
 3713TIP3   OH232553   6.568   4.304   5.186  0.2158  0.0598  0.1860
 3713TIP3    H132554   6.493   4.245   5.178 -0.6125  1.0468  0.5384
 3713TIP3    H232555   6.615   4.294   5.103  0.3362 -1.4121  0.4145
 3714TIP3   OH232556   6.266   5.026   4.383  0.9459  0.2624 -0.2724
 3714TIP3    H132557   6.353   5.022   4.343 -0.1847 -1.4338 -2.8490
 3714TIP3    H232558   6.234   4.936   4.379 -0.9433  0.8498  0.6047
 3715TIP3   OH232559   4.315   1.340   5.753 -0.5355 -0.2887 -0.4861
 3715TIP3    H132560   4.228   1.369   5.780 -0.3385  0.6882 -0.8658
 3715TIP3    H232561   4.310   1.334   5.658 -1.1211 -3.3747 -0.3654
 3716TIP3   OH232562   2.435   1.624  12.948 -0.7769 -0.3741  0.2958
 3716TIP3    H132563   2.487   1.631  12.868 -1.0559 -0.0500  0.1384
 3716TIP3    H232564   2.439   1.531  12.971  1.7855 -0.0144  1.6052
 3717TIP3   OH232565   3.816   5.365  14.389 -0.7352  0.5455 -0.1617
 3717TIP3    H132566   3.799   5.420  14.312 -1.3920  0.7311  0.1137
 3717TIP3    H232567   3.750   5.296  14.384 -0.6188  0.4146  0.1034
 3718TIP3   OH232568   1.608   0.039  13.061 -0.6238  0.2522  0.3768
 3718TIP3    H132569   1.609  -0.053  13.088  2.2354  0.1288  0.1839
 3718TIP3    H232570   1.634   0.087  13.140 -0.1313  0.6799 -0.0373
 3719TIP3   OH232571   4.627   3.843  16.849 -0.2167 -0.4395 -0.1472
 3719TIP3    H132572   4.675   3.912  16.803 -0.8446 -0.2910 -0.5931
 3719TIP3    H232573   4.586   3.887  16.923 -0.5867 -0.3397 -0.4111
 3720TIP3   OH232574   0.864   2.207   1.416  0.1388  0.3898 -0.3938
 3720TIP3    H132575   0.953   2.201   1.380  0.6774  0.5425  0.8657
 3720TIP3    H232576   0.807   2.203   1.339  1.1384 -1.7622 -1.1079
 3721TIP3   OH232577   1.332   0.992   1.964 -0.0105  0.1641 -0.4973
 3721TIP3    H132578   1.275   1.068   1.950  0.7991  0.6528 -1.2218
 3721TIP3    H232579   1.408   1.008   1.909  1.7059  0.4354  1.8094
 3722TIP3   OH232580   4.326   2.382   4.832 -0.0253  0.0866 -0.0035
 3722TIP3    H132581   4.257   2.321   4.807  0.4847 -1.4714  2.0830
 3722TIP3    H232582   4.281   2.464   4.850 -1.1601 -0.5191  0.0153
 3723TIP3   OH232583   0.949   0.145   2.730 -0.2208 -0.2910 -0.8163
 3723TIP3    H132584   0.949   0.157   2.825  1.3261 -2.2072 -0.5005
 3723TIP3    H232585   0.919   0.055   2.718  1.0024 -0.5541 -2.0467
 3724TIP3   OH232586   5.228   4.174   4.857  0.1048  0.4060  0.8020
 3724TIP3    H132587   5.260   4.255   4.818  2.4136 -0.1474  1.4132
 3724TIP3    H232588   5.209   4.196   4.948  2.4963 -0.0602  1.4862
 3725TIP3   OH232589   3.372   3.069   6.225  0.2615 -0.1545  0.0220
 3725TIP3    H132590   3.405   2.985   6.258  1.1008  0.0332 -0.3223
 3725TIP3    H232591   3.402   3.134   6.289 -1.4698 -0.2341  0.9824
 3726TIP3   OH232592   5.842   4.676  13.892 -1.1175  0.4837  0.3012
 3726TIP3    H132593   5.792   4.755  13.871  0.7865  1.9954  1.1550
 3726TIP3    H232594   5.909   4.672  13.823 -0.4335  0.3442  0.9681
 3727TIP3   OH232595   2.444   0.200   2.761  0.1094 -0.0394  0.1630
 3727TIP3    H132596   2.473   0.262   2.828 -1.2537  0.0749  0.6715
 3727TIP3    H232597   2.363   0.163   2.796 -0.3627 -0.3547 -1.1997
 3728TIP3   OH232598   1.986   5.813  14.525  0.3228 -0.0666 -0.2053
 3728TIP3    H132599   2.039   5.820  14.604  2.1880 -3.8748 -0.9018
 3728TIP3    H232600   2.050   5.806  14.454 -1.2446 -0.1342 -1.6724
 3729TIP3   OH232601   0.526   5.068   2.948  0.3329 -0.2041  0.3119
 3729TIP3    H132602   0.533   5.084   2.853 -3.7071  1.2169  0.0648
 3729TIP3    H232603   0.598   5.118   2.986 -1.3431  4.3519 -1.7524
 3730TIP3   OH232604   5.313   3.646  13.243 -0.0776  0.3222 -0.0976
 3730TIP3    H132605   5.318   3.722  13.301  2.3179  0.2223 -0.0797
 3730TIP3    H232606   5.328   3.571  13.301  2.1994  0.2133 -0.7411
 3731TIP3   OH232607   4.447   6.680   1.998 -0.7369  0.0642  0.5578
 3731TIP3    H132608   4.416   6.759   2.042  1.2075  0.9692  0.4009
 3731TIP3    H232609   4.486   6.711   1.917  0.9992 -0.8973  0.9733
 3732TIP3   OH232610   3.367   1.437  15.278 -0.0845  0.2501 -0.2571
 3732TIP3    H132611   3.355   1.370  15.346 -1.0192 -0.5542 -1.1678
 3732TIP3    H232612   3.444   1.409  15.230  1.6930  1.8045  1.5225
 3733TIP3   OH232613   2.418   2.385   0.151  0.6675 -0.8545  0.0264
 3733TIP3    H132614   2.395   2.400   0.243  0.5632  0.6456 -0.2196
 3733TIP3    H232615   2.334   2.372   0.107  0.5190  0.5800 -0.1860
 3734TIP3   OH232616   4.433   6.694   3.749 -0.5077 -0.3140  0.2939
 3734TIP3    H132617   4.397   6.771   3.704 -0.4403  0.2442  1.1561
 3734TIP3    H232618   4.356   6.645   3.777 -0.5750 -0.0260  0.6224
 3735TIP3   OH232619   4.035   5.070   2.527 -0.1007 -0.5360 -0.6967
 3735TIP3    H132620   4.057   5.143   2.469 -0.6518 -1.1655 -1.7049
 3735TIP3    H232621   4.113   5.015   2.527 -0.1380 -0.5896 -0.9228
 3736TIP3   OH232622   4.729   1.648   4.693 -0.2455 -0.3642  0.2998
 3736TIP3    H132623   4.682   1.682   4.616 -1.5222 -0.0438  1.1890
 3736TIP3    H232624   4.721   1.553   4.686  1.6708 -0.4831 -1.1683
 3737TIP3   OH232625   3.344   0.740   5.380  0.0344 -0.0898 -0.5091
 3737TIP3    H132626   3.357   0.646   5.369  0.2379 -0.1878  0.4293
 3737TIP3    H232627   3.333   0.751   5.474 -0.2634  0.7976 -0.6419
 3738TIP3   OH232628   6.134   3.153  14.711 -0.2786 -0.6113 -0.0522
 3738TIP3    H132629   6.222   3.157  14.673 -0.3462 -0.6843 -0.2160
 3738TIP3    H232630   6.101   3.066  14.687 -0.5404 -0.4425 -0.3107
 3739TIP3   OH232631   2.215   4.752   6.438  0.2421  0.0545 -0.4734
 3739TIP3    H132632   2.186   4.839   6.412 -1.4460 -0.7975 -1.6548
 3739TIP3    H232633   2.223   4.757   6.533 -0.4415  1.3237 -0.4554
 3740TIP3   OH232634   0.352   6.318  11.038 -0.0278 -0.2899 -0.9413
 3740TIP3    H132635   0.420   6.371  10.996 -0.1369 -0.1174 -0.9024
 3740TIP3    H232636   0.282   6.313  10.973 -0.6300  0.8319 -0.4242
 3741TIP3   OH232637   1.530   5.116   5.870  0.5663  0.2582  0.6143
 3741TIP3    H132638   1.534   5.199   5.918 -0.7551  0.1981  0.8627
 3741TIP3    H232639   1.502   5.052   5.935 -0.0064 -0.0675  0.0628
 3742TIP3   OH232640   4.329   5.767   5.257  0.3029 -0.5679  0.6665
 3742TIP3    H132641   4.391   5.752   5.329 -0.3850  0.1393  1.4251
 3742TIP3    H232642   4.382   5.760   5.178  2.3902  4.0299  1.3155
 3743TIP3   OH232643   4.849   5.146   3.519  0.2324 -0.1365  0.3170
 3743TIP3    H132644   4.927   5.093   3.526  0.3695  0.1702  1.4764
 3743TIP3    H232645   4.786   5.092   3.472  1.2212 -0.2619 -0.9127
 3744TIP3   OH232646   4.562   1.393   3.989  0.4155  0.2779  0.0631
 3744TIP3    H132647   4.527   1.377   3.901  1.6128  1.3169 -0.6236
 3744TIP3    H232648   4.484   1.392   4.046 -0.1620 -2.6880 -0.6121
 3745TIP3   OH232649   5.443   5.023   2.579  0.3000 -0.1148 -0.0058
 3745TIP3    H132650   5.397   5.062   2.653 -1.9081 -1.1142 -0.7503
 3745TIP3    H232651   5.519   4.979   2.618 -0.4897 -0.1284  1.5985
 3746TIP3   OH232652   2.178   6.125  11.927  0.0185 -0.1846  0.0670
 3746TIP3    H132653   2.230   6.047  11.907 -1.4920 -1.2849  0.2014
 3746TIP3    H232654   2.174   6.173  11.844  1.0102 -0.2104 -0.0030
 3747TIP3   OH232655   5.515   2.966   5.620 -0.6131 -0.3263  0.1224
 3747TIP3    H132656   5.431   2.987   5.659 -0.0746 -1.5943  2.1268
 3747TIP3    H232657   5.501   2.881   5.578 -0.3281 -0.6064  0.5801
 3748TIP3   OH232658   6.356   6.354  14.681 -0.0708 -0.1179  0.4237
 3748TIP3    H132659   6.301   6.422  14.643  1.2523  0.2599 -0.9411
 3748TIP3    H232660   6.432   6.401  14.716  0.7474 -0.8309 -0.3153
 3749TIP3   OH232661   4.179   2.251   5.861  0.5827 -0.0905  0.2349
 3749TIP3    H132662   4.258   2.198   5.875  1.3392  1.0212  0.2545
 3749TIP3    H232663   4.166   2.296   5.945  0.9618  1.0807 -0.3172
 3750TIP3   OH232664   0.475   0.513  11.255 -0.1516  0.1699  1.2113
 3750TIP3    H132665   0.524   0.439  11.220  0.6785  1.2228  0.0432
 3750TIP3    H232666   0.421   0.543  11.182  0.2496  1.3000  1.3625
 3751TIP3   OH232667   6.290   0.044  14.735  0.0779 -0.7735 -0.2581
 3751TIP3    H132668   6.312  -0.030  14.791 -0.2963 -1.6628 -1.2526
 3751TIP3    H232669   6.201   0.069  14.761  0.7556  0.3368  1.1169
 3752TIP3   OH232670   3.609   6.126   3.587  0.3522 -0.0083  0.7598
 3752TIP3    H132671   3.602   6.196   3.522 -0.3047 -0.8888 -0.1489
 3752TIP3    H232672   3.548   6.152   3.656  0.7465  0.7334  0.8436
 3753TIP3   OH232673   4.466   3.357  13.438  0.9912  0.1150 -0.3839
 3753TIP3    H132674   4.505   3.442  13.416  0.5009  1.7320  4.1190
 3753TIP3    H232675   4.535   3.311  13.486  0.3722 -0.9851 -0.5135
 3754TIP3   OH232676   3.587   2.182  11.597  0.4457  0.2260  0.0036
 3754TIP3    H132677   3.572   2.138  11.514  1.1202 -1.1889  0.5742
 3754TIP3    H232678   3.645   2.255  11.576  0.0956  0.2696 -0.8462
 3755TIP3   OH232679   4.372   6.088   5.375 -0.6060 -0.4452  0.1387
 3755TIP3    H132680   4.425   6.018   5.336 -0.4701 -0.5232  0.4607
 3755TIP3    H232681   4.351   6.146   5.302  0.2997 -0.1736  0.0836
 3756TIP3   OH232682   4.729   3.769  13.606 -0.0791 -0.0858  0.6466
 3756TIP3    H132683   4.735   3.713  13.529 -0.6944  0.8879 -0.1477
 3756TIP3    H232684   4.652   3.824  13.589  0.8601  1.4383  1.0599
 3757TIP3   OH232685   1.376   2.719  15.532  0.6576 -0.3115  0.0976
 3757TIP3    H132686   1.413   2.648  15.479  0.9070 -0.3570  0.3345
 3757TIP3    H232687   1.309   2.758  15.475 -1.1267 -2.1952  0.7970
 3758TIP3   OH232688   5.225   4.170  11.886  0.3628 -0.1269 -0.0594
 3758TIP3    H132689   5.262   4.231  11.823  1.1876 -0.0210  0.5192
 3758TIP3    H232690   5.189   4.099  11.833  0.5343  0.2385 -0.6670
 3759TIP3   OH232691   4.110   6.607  16.577 -0.0594  0.1016 -0.4169
 3759TIP3    H132692   4.060   6.607  16.495  0.0022  3.0258 -0.5583
 3759TIP3    H232693   4.113   6.515  16.603 -1.8578 -0.6745 -2.6044
 3760TIP3   OH232694   2.291   3.730   4.889 -0.3291  0.1473  0.0637
 3760TIP3    H132695   2.384   3.724   4.868 -0.2174  1.7422  0.0312
 3760TIP3    H232696   2.280   3.673   4.965  0.6536 -0.1322  0.0072
 3761TIP3   OH232697   1.867   4.639   0.947  0.2715 -0.3518 -0.0178
 3761TIP3    H132698   1.876   4.545   0.929 -0.2357 -0.7692  1.7041
 3761TIP3    H232699   1.775   4.658   0.927  0.0429 -0.5242  0.8417
 3762TIP3   OH232700   3.141   4.511   0.988  0.3296  0.3603  0.0992
 3762TIP3    H132701   3.100   4.578   1.043 -0.2259  0.0147  0.1139
 3762TIP3    H232702   3.178   4.448   1.050  0.7308  0.5823  0.0848
 3763TIP3   OH232703   0.371   6.530  15.960 -0.2887 -0.2307 -0.0249
 3763TIP3    H132704   0.396   6.465  15.895  2.5922  0.2496  0.5001
 3763TIP3    H232705   0.278   6.513  15.976 -0.2267 -2.5714 -1.7058
 3764TIP3   OH232706   1.967   0.656  14.662 -0.0051  0.0207 -0.4190
 3764TIP3    H132707   1.883   0.614  14.643 -0.4518  0.5626  0.3113
 3764TIP3    H232708   2.024   0.583  14.687 -0.6077 -0.2366  0.2658
 3765TIP3   OH232709   6.227   1.360   0.223 -0.3431 -0.2416 -0.2837
 3765TIP3    H132710   6.155   1.393   0.276 -0.0520 -0.7689  0.4506
 3765TIP3    H232711   6.302   1.414   0.248 -0.4793  0.3277 -1.0699
 3766TIP3   OH232712   2.539   1.835   1.709 -0.0974  0.2930  0.2796
 3766TIP3    H132713   2.456   1.883   1.705  0.2431  1.2484  2.7432
 3766TIP3    H232714   2.605   1.900   1.686  0.0705 -0.1774 -0.6060
 3767TIP3   OH232715   5.482   0.065   3.709  0.4605  1.0290 -0.7961
 3767TIP3    H132716   5.500   0.120   3.633 -1.4180  1.9745 -0.5954
 3767TIP3    H232717   5.459   0.126   3.779  1.5270  0.1412  0.3839
 3768TIP3   OH232718   2.138   2.619  11.236  0.5032 -0.0849  0.6559
 3768TIP3    H132719   2.097   2.556  11.177  2.0114 -0.9021  0.4097
 3768TIP3    H232720   2.164   2.691  11.178  0.7214 -0.2464  0.5477
 3769TIP3   OH232721   4.167   2.100  15.759  0.5649 -0.1445 -0.5810
 3769TIP3    H132722   4.193   2.165  15.825  0.9509  1.3527 -2.1441
 3769TIP3    H232723   4.243   2.091  15.703 -0.2088 -0.3388 -1.6333
 3770TIP3   OH232724   1.265   4.636  14.667 -0.5231 -0.1551 -0.2839
 3770TIP3    H132725   1.249   4.653  14.760 -0.5006 -0.9800 -0.1224
 3770TIP3    H232726   1.177   4.636  14.628 -0.6680 -1.3541  0.0156
 3771TIP3   OH232727   1.538   4.280  15.172  0.1447  0.3104 -0.7769
 3771TIP3    H132728   1.535   4.370  15.138 -0.6104  0.8289  0.5964
 3771TIP3    H232729   1.460   4.272  15.227  0.8154 -0.8014  0.0605
 3772TIP3   OH232730   4.187   4.498  15.497  0.2633  0.3153  0.2390
 3772TIP3    H132731   4.181   4.529  15.407 -0.0671  2.0773  0.8359
 3772TIP3    H232732   4.117   4.432  15.504  0.2493  0.2049 -0.7585
 3773TIP3   OH232733   4.757   3.413   5.765  0.4564 -0.3264 -0.2126
 3773TIP3    H132734   4.792   3.359   5.694 -1.8717 -0.4551 -1.3566
 3773TIP3    H232735   4.757   3.502   5.730 -3.4163 -0.7060 -1.7566
 3774TIP3   OH232736   6.056   6.183  14.970  0.1285  0.0231  0.1931
 3774TIP3    H132737   6.035   6.092  14.993  0.9142  0.0739  1.1761
 3774TIP3    H232738   6.152   6.185  14.968  0.3201  1.5586  3.5537
 3775TIP3   OH232739   5.715   6.316  16.833 -0.3612 -0.0595  0.3420
 3775TIP3    H132740   5.653   6.354  16.771 -0.0058 -0.9452 -0.5837
 3775TIP3    H232741   5.661   6.279  16.902 -0.8340 -0.1195 -0.0535
 3776TIP3   OH232742   1.066   3.286  15.835  0.1168  0.0779 -0.3042
 3776TIP3    H132743   1.027   3.351  15.894  1.1173  0.0474  0.4096
 3776TIP3    H232744   1.001   3.276  15.765 -0.1799  1.6552 -0.3014
 3777TIP3   OH232745   1.398   0.390   4.937  0.5761 -0.1042  0.4746
 3777TIP3    H132746   1.370   0.314   4.886 -1.4224  0.2299  0.9942
 3777TIP3    H232747   1.373   0.369   5.027  0.5280  0.9072  0.7083
 3778TIP3   OH232748   6.110   0.148   4.650  0.1754 -0.2630  0.1377
 3778TIP3    H132749   6.156   0.160   4.734 -1.4362 -0.1285  1.0460
 3778TIP3    H232750   6.114   0.054   4.634  0.4882 -0.2905  0.3587
 3779TIP3   OH232751   5.953   2.998  16.607  0.1944  0.1968  0.8623
 3779TIP3    H132752   5.964   2.904  16.616 -0.5366  0.1663  1.6440
 3779TIP3    H232753   5.863   3.014  16.636 -0.6825  0.7883 -1.9062
 3780TIP3   OH232754   4.415   2.568  11.590  0.6755 -0.4257 -0.1489
 3780TIP3    H132755   4.488   2.588  11.532 -0.0947  1.0001 -0.6605
 3780TIP3    H232756   4.454   2.565  11.678  1.2888  0.7658 -0.3616
 3781TIP3   OH232757   6.079   6.708  16.058 -0.0158  0.0449 -0.1196
 3781TIP3    H132758   6.047   6.618  16.064 -2.3705  0.8178 -0.1180
 3781TIP3    H232759   6.084   6.725  15.964  2.5934 -0.7124 -0.2142
 3782TIP3   OH232760   4.648   6.247  13.258 -0.5429 -0.1873  0.6583
 3782TIP3    H132761   4.648   6.332  13.301 -1.2009 -0.2430  0.7660
 3782TIP3    H232762   4.689   6.263  13.173 -0.6412  0.2241  0.6901
 3783TIP3   OH232763   3.830   5.925   5.447 -0.1315 -0.2238 -0.4662
 3783TIP3    H132764   3.905   5.886   5.402 -0.8058 -1.0201 -0.9439
 3783TIP3    H232765   3.754   5.894   5.397 -0.6825  2.6822 -1.6238
 3784TIP3   OH232766   1.943   4.600  11.948 -0.3546 -0.1954  0.2653
 3784TIP3    H132767   1.852   4.600  11.976 -0.3328  0.3923  0.3603
 3784TIP3    H232768   1.989   4.551  12.017 -0.3230  1.1239  1.2184
 3785TIP3   OH232769   2.263   6.271   3.116  0.1968 -0.2417  0.0783
 3785TIP3    H132770   2.279   6.176   3.117  1.3991 -0.0512 -0.0572
 3785TIP3    H232771   2.344   6.308   3.081 -0.5766  0.7806 -0.6621
 3786TIP3   OH232772   4.093   3.284   3.201 -0.0359  0.3097 -0.6763
 3786TIP3    H132773   4.148   3.241   3.136 -1.0406  0.4199 -1.6085
 3786TIP3    H232774   4.155   3.337   3.253  0.9735 -0.9632 -0.5460
 3787TIP3   OH232775   1.234   2.101   0.463 -0.1839  0.0956  0.2102
 3787TIP3    H132776   1.204   2.012   0.481  0.0187  0.3801  2.0877
 3787TIP3    H232777   1.154   2.154   0.459 -0.3061 -0.1386 -0.9293
 3788TIP3   OH232778   1.263   4.772  12.113  0.0793  0.4078  0.1251
 3788TIP3    H132779   1.241   4.817  12.194  1.4615  0.4565  0.5029
 3788TIP3    H232780   1.268   4.679  12.137  0.9171  0.4669  0.2141
 3789TIP3   OH232781   1.128   0.092  17.125  0.2290  0.2892  0.3993
 3789TIP3    H132782   1.034   0.110  17.123  0.4738  1.6967 -1.8767
 3789TIP3    H232783   1.134  -0.004  17.121 -1.0758  0.1740  0.6273
 3790TIP3   OH232784   0.096   0.066  15.275 -0.5299 -0.1369  0.8228
 3790TIP3    H132785   0.038   0.013  15.221 -1.4817 -0.8198  2.4409
 3790TIP3    H232786   0.146   0.003  15.327  0.5624  0.4881  0.5776
 3791TIP3   OH232787   5.757   3.676   4.809  0.8524 -0.3288 -0.2113
 3791TIP3    H132788   5.794   3.592   4.782 -1.1399 -0.6631 -2.1834
 3791TIP3    H232789   5.687   3.653   4.870  1.4291  0.0703  0.6365
 3792TIP3   OH232790   1.010   6.243   1.662  0.1393 -0.0580 -0.4539
 3792TIP3    H132791   0.993   6.336   1.647 -1.0731 -0.3606 -1.0401
 3792TIP3    H232792   0.978   6.200   1.584  1.2611 -0.9337 -0.4543
 3793TIP3   OH232793   6.717   5.990  17.255 -0.9297  0.0731  0.0039
 3793TIP3    H132794   6.695   5.930  17.184 -1.2988  0.9016 -0.6038
 3793TIP3    H232795   6.800   5.958  17.289 -1.8430 -1.6842  0.7269
 3794TIP3   OH232796   1.514   0.298   0.315  0.4282  0.2510 -0.1014
 3794TIP3    H132797   1.596   0.315   0.360  1.8954 -1.2467 -2.0674
 3794TIP3    H232798   1.469   0.233   0.369  0.6787  0.7986  0.7813
 3795TIP3   OH232799   6.003   2.169   3.336 -0.3804  0.2712 -0.5122
 3795TIP3    H132800   5.959   2.192   3.417 -0.7632  1.0658 -0.9290
 3795TIP3    H232801   5.966   2.229   3.271  1.3682  1.0135 -0.8705
 3796TIP3   OH232802   3.924   2.714  16.933 -0.6926 -0.0010  0.0091
 3796TIP3    H132803   3.969   2.642  16.889 -0.1906  0.0063  0.5103
 3796TIP3    H232804   3.887   2.766  16.862 -1.4210 -0.9837 -0.3474
 3797TIP3   OH232805   1.938   2.720   0.133  0.1356 -0.3883 -0.0750
 3797TIP3    H132806   1.967   2.670   0.209  0.6358 -1.2100 -0.7790
 3797TIP3    H232807   1.968   2.669   0.058  0.6280  0.9435 -0.8315
 3798TIP3   OH232808   3.275   0.450   6.218 -0.3026 -0.5896  0.0457
 3798TIP3    H132809   3.264   0.404   6.302 -0.8151 -1.3591 -0.4204
 3798TIP3    H232810   3.203   0.417   6.164 -0.7509  0.8600 -0.2829
 3799TIP3   OH232811   0.645   0.792  14.194  0.0851  0.1426 -0.1160
 3799TIP3    H132812   0.689   0.838  14.266  0.8334 -1.0936  0.2455
 3799TIP3    H232813   0.716   0.750  14.146 -0.6462 -1.5945  0.2591
 3800TIP3   OH232814   3.086   2.669  14.868 -0.9260  0.1108  0.3994
 3800TIP3    H132815   3.101   2.678  14.774 -2.0469 -1.2357  0.0629
 3800TIP3    H232816   2.997   2.633  14.875 -0.4252 -0.9217  1.9084
 3801TIP3   OH232817   2.433   1.822  16.423 -0.3319  0.1736  0.7053
 3801TIP3    H132818   2.499   1.820  16.493 -0.1414  2.6661  0.7101
 3801TIP3    H232819   2.471   1.772  16.352  0.7506  0.0069  1.3845
 3802TIP3   OH232820   5.010   1.155  12.435  0.4077 -0.3588 -0.3026
 3802TIP3    H132821   5.076   1.120  12.494 -0.2032  0.8251  1.1456
 3802TIP3    H232822   4.941   1.189  12.493 -1.0995 -0.8196 -1.7321
 3803TIP3   OH232823   0.097   6.130   5.248  0.0093  0.7069 -0.1753
 3803TIP3    H132824   0.118   6.212   5.292 -2.0159  2.2266 -1.8574
 3803TIP3    H232825   0.065   6.157   5.162 -0.3241 -1.8988 -0.9387
 3804TIP3   OH232826   5.426   1.976   3.402 -0.1882  0.0187  0.4459
 3804TIP3    H132827   5.333   1.984   3.382  0.1292 -0.6608 -1.5147
 3804TIP3    H232828   5.465   2.056   3.365 -0.0011  0.3632  1.3738
 3805TIP3   OH232829   5.445   1.633   5.462 -0.4094  0.6614  0.5260
 3805TIP3    H132830   5.366   1.606   5.510  0.1087 -0.3907  0.8288
 3805TIP3    H232831   5.434   1.595   5.375 -1.5301  2.8942 -0.3906
 3806TIP3   OH232832   0.414   5.020  12.154 -0.0922  0.0434 -0.1577
 3806TIP3    H132833   0.487   4.958  12.151  0.9190  1.2053 -0.8088
 3806TIP3    H232834   0.432   5.075  12.230 -1.9912 -1.5587  1.5735
 3807TIP3   OH232835   0.171   1.406   2.358  0.4460  0.3053 -0.6041
 3807TIP3    H132836   0.197   1.458   2.434  0.0665  0.0565 -0.3002
 3807TIP3    H232837   0.141   1.471   2.294  0.7710  0.5160 -0.5484
 3808TIP3   OH232838   3.298   1.634  15.972  0.1784  0.2911  0.4914
 3808TIP3    H132839   3.245   1.579  15.915  1.2182 -0.7430  0.4891
 3808TIP3    H232840   3.235   1.674  16.032 -0.6780 -0.3271  0.0213
 3809TIP3   OH232841   3.774   2.647  14.749  0.1391 -0.7194  0.2504
 3809TIP3    H132842   3.844   2.710  14.768 -0.7173  0.0103  1.1393
 3809TIP3    H232843   3.807   2.596  14.675  2.1516 -1.2654  1.4228
 3810TIP3   OH232844   4.117   1.263  14.925  0.0528  0.0394 -0.6405
 3810TIP3    H132845   4.133   1.305  15.009  2.9935 -0.8934 -0.6398
 3810TIP3    H232846   4.108   1.170  14.945 -0.5587 -0.0371 -1.2377
 3811TIP3   OH232847   5.542   1.995   0.646  0.0185 -0.0791  0.2471
 3811TIP3    H132848   5.628   1.953   0.641 -0.3813 -0.9710  0.6392
 3811TIP3    H232849   5.510   1.975   0.734 -0.6620  0.1015  0.0509
 3812TIP3   OH232850   2.634   0.777  16.457  0.0226  0.3330  0.2875
 3812TIP3    H132851   2.683   0.716  16.512  2.2259  0.2138 -1.6547
 3812TIP3    H232852   2.692   0.796  16.383 -2.0000  2.0146 -1.0162
 3813TIP3   OH232853   5.609   0.593  14.253 -0.1605  0.5309  0.2210
 3813TIP3    H132854   5.518   0.588  14.282  0.3427 -2.0059  1.7377
 3813TIP3    H232855   5.648   0.510  14.282  1.7643 -0.1001 -3.4976
 3814TIP3   OH232856   2.002   3.939  14.092  0.5777  0.2084 -0.4817
 3814TIP3    H132857   1.932   3.953  14.029  0.7514  1.8819 -0.3417
 3814TIP3    H232858   2.072   3.898  14.042 -0.0507 -0.3989 -0.8848
 3815TIP3   OH232859   6.677   0.806   1.162 -0.4173 -0.4895 -0.0842
 3815TIP3    H132860   6.605   0.826   1.102 -0.7240 -0.2580  0.3583
 3815TIP3    H232861   6.678   0.879   1.224  0.8818  0.0579 -0.7107
 3816TIP3   OH232862   2.435   3.394  15.688  0.1682  0.6094  0.2415
 3816TIP3    H132863   2.397   3.480  15.705  1.3869  1.5041 -1.3312
 3816TIP3    H232864   2.530   3.409  15.686  0.4064 -0.7855  0.0364
 3817TIP3   OH232865   5.428   3.895  11.638  0.3381 -0.5215  0.6120
 3817TIP3    H132866   5.332   3.891  11.648  0.3651 -0.0975  1.1079
 3817TIP3    H232867   5.445   3.852  11.554 -0.7068  3.1224 -1.6943
 3818TIP3   OH232868   0.396   5.184   5.033 -0.1145 -0.4716 -0.2032
 3818TIP3    H132869   0.374   5.255   5.093 -0.2724  1.7058 -2.6648
 3818TIP3    H232870   0.491   5.182   5.031 -0.0899  0.3593 -0.7817
 3819TIP3   OH232871   4.981   3.906   4.095  0.4501  0.3922 -0.4770
 3819TIP3    H132872   4.995   3.939   4.006 -1.2809  0.0980 -0.8898
 3819TIP3    H232873   4.983   3.811   4.085 -0.5147  0.3490 -0.3594
 3820TIP3   OH232874   1.903   3.394  11.218 -0.0875  0.0574 -0.4597
 3820TIP3    H132875   1.917   3.300  11.208  1.0608  0.3033 -1.2610
 3820TIP3    H232876   1.922   3.411  11.311 -1.1901 -0.6262 -0.0846
 3821TIP3   OH232877   3.711   6.672  14.425  0.3440  0.1689 -0.3363
 3821TIP3    H132878   3.623   6.634  14.419  0.4560 -0.1049 -0.3067
 3821TIP3    H232879   3.747   6.633  14.505  0.3147  0.6605 -0.0812
 3822TIP3   OH232880   4.309   3.762   2.748 -0.3932 -0.0260  0.1992
 3822TIP3    H132881   4.223   3.765   2.705  0.0819 -2.2074 -1.0558
 3822TIP3    H232882   4.321   3.670   2.770  0.6881  0.5857  2.4273
 3823TIP3   OH232883   0.122   3.229  17.144  0.0039 -0.7181 -0.2608
 3823TIP3    H132884   0.185   3.166  17.108  1.1830  0.3512 -0.1549
 3823TIP3    H232885   0.143   3.311  17.099 -2.9259 -0.8031 -2.0469
 3824TIP3   OH232886   1.343   1.148   6.103  0.3036 -0.3521  0.1680
 3824TIP3    H132887   1.432   1.168   6.073  0.5901 -0.8246  0.6889
 3824TIP3    H232888   1.293   1.227   6.082  0.8758 -0.0230  0.0043
 3825TIP3   OH232889   4.768   1.088  10.982 -0.1233 -0.4724 -0.2442
 3825TIP3    H132890   4.763   1.081  11.077  2.6294 -1.8600 -0.1188
 3825TIP3    H232891   4.722   1.010  10.949 -0.2803 -0.4650 -0.0456
 3826TIP3   OH232892   2.300   3.994  13.039 -0.4856  0.1589  0.2284
 3826TIP3    H132893   2.299   3.905  13.003  2.2790  0.1161 -0.0112
 3826TIP3    H232894   2.344   4.046  12.972 -0.3266  1.2843  1.1779
 3827TIP3   OH232895   4.722   6.301  14.697 -0.7842  0.6527  0.1369
 3827TIP3    H132896   4.754   6.267  14.614  0.5938  0.9625  0.5157
 3827TIP3    H232897   4.632   6.270  14.703 -0.9004  0.6365 -1.4628
 3828TIP3   OH232898   2.161   5.053  15.202 -0.0402 -0.0849  1.1760
 3828TIP3    H132899   2.227   5.109  15.161  0.8589 -1.7623  0.2249
 3828TIP3    H232900   2.105   5.024  15.129  0.5340 -1.7386  1.3432
 3829TIP3   OH232901   0.600   4.516  12.709 -0.0502  0.0509 -0.7590
 3829TIP3    H132902   0.621   4.583  12.643  0.0403  0.2044 -0.5773
 3829TIP3    H232903   0.532   4.556  12.762 -0.7008 -0.3879 -1.2501
 3830TIP3   OH232904   5.457   5.566  13.501  0.1801 -0.0607 -0.2034
 3830TIP3    H132905   5.491   5.602  13.420 -2.2189  1.8314 -0.4906
 3830TIP3    H232906   5.484   5.474  13.500  0.1962 -0.1188 -3.1736
 3831TIP3   OH232907   5.169   5.555   0.213 -0.5190  0.3658 -0.7790
 3831TIP3    H132908   5.239   5.490   0.215 -0.4168  0.4196  2.2588
 3831TIP3    H232909   5.195   5.621   0.278 -2.9071  0.8605 -0.2222
 3832TIP3   OH232910   3.150   5.211  13.057  0.4382  1.1251  0.1514
 3832TIP3    H132911   3.174   5.231  13.147 -0.2238 -0.3585  0.6866
 3832TIP3    H232912   3.226   5.163  13.022  0.2653  0.7613  0.2699
 3833TIP3   OH232913   3.329   6.634  17.239  0.1102  0.5067 -0.1530
 3833TIP3    H132914   3.277   6.593  17.170 -0.2897  2.8975 -1.3768
 3833TIP3    H232915   3.420   6.627  17.208  0.0376  0.6053 -0.3893
 3834TIP3   OH232916   2.178   1.544  11.285  0.3800 -0.5743 -0.0828
 3834TIP3    H132917   2.143   1.528  11.198  1.3426  0.1016 -0.6148
 3834TIP3    H232918   2.110   1.592  11.331 -0.0427 -0.7454 -0.5284
 3835TIP3   OH232919   1.757   0.058   3.340 -0.0916 -0.4191 -0.5220
 3835TIP3    H132920   1.821   0.087   3.275  0.4137 -0.6853 -0.1485
 3835TIP3    H232921   1.777   0.109   3.418 -0.5541 -0.2611 -0.5077
 3836TIP3   OH232922   6.259   3.775  12.391  0.0027 -0.3574 -0.4676
 3836TIP3    H132923   6.285   3.683  12.391  1.3298 -0.0018 -0.1441
 3836TIP3    H232924   6.234   3.793  12.482  1.1345 -0.0497 -0.1964
 3837TIP3   OH232925   1.791   3.323  15.053  0.0262 -0.1370  0.5759
 3837TIP3    H132926   1.817   3.362  14.969 -2.2166  0.5198  0.1132
 3837TIP3    H232927   1.874   3.305  15.097  1.2673  0.1943 -1.4545
 3838TIP3   OH232928   0.876   5.013  13.855 -0.4376 -0.0508 -0.3581
 3838TIP3    H132929   0.885   5.003  13.760  0.3721  0.0449 -0.2993
 3838TIP3    H232930   0.914   5.098  13.874 -0.3754 -0.1762  0.0864
 3839TIP3   OH232931   4.406   5.850   3.346 -0.2911 -0.4435 -0.4647
 3839TIP3    H132932   4.395   5.867   3.439  0.1000  0.3884 -0.5676
 3839TIP3    H232933   4.441   5.761   3.342 -0.5843 -0.5910  0.1614
 3840TIP3   OH232934   5.751   4.308  11.656  0.5318  0.4364 -0.2972
 3840TIP3    H132935   5.754   4.263  11.571  3.2890 -0.3471  0.1272
 3840TIP3    H232936   5.699   4.249  11.712 -2.2154  1.4446 -1.5673
 3841TIP3   OH232937   5.380   2.967   1.809  0.1140  0.9034 -0.4643
 3841TIP3    H132938   5.363   2.885   1.855 -1.5918  0.8391 -1.1213
 3841TIP3    H232939   5.474   2.979   1.815  0.8752 -2.5379 -2.7684
 3842TIP3   OH232940   4.743   0.745   3.374 -0.3909  0.4095  0.1375
 3842TIP3    H132941   4.702   0.806   3.435 -1.5718 -1.0736  0.9161
 3842TIP3    H232942   4.826   0.721   3.414  0.8288  2.6220 -0.9241
 3843TIP3   OH232943   5.805   5.820   0.180  0.0512  0.1741  0.3544
 3843TIP3    H132944   5.853   5.813   0.098  1.0326 -0.3211  0.9423
 3843TIP3    H232945   5.869   5.856   0.242 -1.0073  1.6467  0.6341
 3844TIP3   OH232946   2.439   1.394   5.752  0.3156  0.1310 -0.6750
 3844TIP3    H132947   2.454   1.334   5.680 -0.0303 -1.3771  0.4541
 3844TIP3    H232948   2.350   1.427   5.737 -0.2870 -1.2286 -0.2439
 3845TIP3   OH232949   2.926   1.207  12.511  0.4434 -0.1044  0.7996
 3845TIP3    H132950   2.874   1.167  12.581  0.9705  0.4298  1.5006
 3845TIP3    H232951   2.861   1.256  12.460 -0.5502 -3.1429 -1.1257
 3846TIP3   OH232952   6.414   4.425   3.364 -0.6325 -0.3303  0.0141
 3846TIP3    H132953   6.375   4.509   3.391  1.5447  1.0627 -0.9258
 3846TIP3    H232954   6.346   4.384   3.310 -1.7222  0.8538  0.4207
 3847TIP3   OH232955   0.050   0.354   1.841  0.1120  0.5830  0.0383
 3847TIP3    H132956   0.047   0.287   1.772 -2.3316 -0.5945  1.1484
 3847TIP3    H232957   0.099   0.313   1.912  0.6739  0.9199 -0.1497
 3848TIP3   OH232958   3.508   2.164   2.475 -0.4098  0.1054 -0.1181
 3848TIP3    H132959   3.597   2.189   2.500 -1.3175  1.5104  2.0455
 3848TIP3    H232960   3.519   2.090   2.415  2.1709 -0.4262  0.8938
 3849TIP3   OH232961   2.174   0.673   6.137  0.3162  0.6920  0.1505
 3849TIP3    H132962   2.150   0.684   6.045 -1.5189  0.5276  0.5776
 3849TIP3    H232963   2.092   0.685   6.186  1.3401  1.3060  1.8191
 3850TIP3   OH232964   6.277   5.031  12.680  0.0410  0.8028 -0.6849
 3850TIP3    H132965   6.217   5.089  12.729 -0.2204  0.4278 -0.5542
 3850TIP3    H232966   6.282   5.070  12.593 -0.1603  1.0090 -0.6067
 3851TIP3   OH232967   2.555   5.380  16.471 -0.2434 -0.7333  0.0812
 3851TIP3    H132968   2.499   5.303  16.457 -2.1139  0.3637  1.0513
 3851TIP3    H232969   2.605   5.359  16.550 -2.0004 -0.3728  1.3653
 3852TIP3   OH232970   5.280   5.821  15.229 -1.2065  0.2186  0.2865
 3852TIP3    H132971   5.221   5.758  15.187 -0.9510  1.4512 -2.0634
 3852TIP3    H232972   5.251   5.906  15.198  0.3224  1.0372  0.9831
 3853TIP3   OH232973   5.810   1.646   3.663 -0.1894 -0.9629  0.0828
 3853TIP3    H132974   5.872   1.680   3.598  2.0947 -2.8354  1.1426
 3853TIP3    H232975   5.724   1.672   3.630  1.0405  0.5546 -2.1959
 3854TIP3   OH232976   0.797   3.271  13.441  0.4497  0.4551 -0.1662
 3854TIP3    H132977   0.781   3.184  13.477 -0.9493  0.5088 -0.6231
 3854TIP3    H232978   0.741   3.329  13.493  0.2558  0.8689 -0.8250
 3855TIP3   OH232979   0.865   0.649  14.767  0.1385 -0.2187 -0.3694
 3855TIP3    H132980   0.949   0.604  14.777 -1.1039 -2.2342  2.3210
 3855TIP3    H232981   0.802   0.578  14.750 -1.3052  1.0173 -0.4260
 3856TIP3   OH232982   6.695   5.688  15.744 -0.2929  0.1034  0.4550
 3856TIP3    H132983   6.605   5.682  15.777 -0.3346  0.2891  0.3738
 3856TIP3    H232984   6.698   5.770  15.696 -0.6435 -0.8206 -1.2396
 3857TIP3   OH232985   2.870   3.925   6.433  0.3684 -0.3029 -0.0804
 3857TIP3    H132986   2.775   3.921   6.442  0.2611  0.5638 -0.7360
 3857TIP3    H232987   2.902   3.855   6.490 -0.7087 -1.5342 -0.9319
 3858TIP3   OH232988   5.480   2.284   2.209 -0.2685  0.1923  0.2732
 3858TIP3    H132989   5.386   2.293   2.228 -0.4341 -1.1342  0.2020
 3858TIP3    H232990   5.523   2.304   2.292 -0.5080  2.1571 -0.0351
 3859TIP3   OH232991   5.592   5.685  14.862  0.0706 -0.2264 -0.3895
 3859TIP3    H132992   5.602   5.643  14.777  0.7413  0.1805 -0.5209
 3859TIP3    H232993   5.555   5.772  14.842  0.9952  0.1866 -0.3484
 3860TIP3   OH232994   3.636   3.087  16.947  0.1024 -0.2400 -0.5857
 3860TIP3    H132995   3.708   3.040  16.990 -1.4208  0.4099  3.0400
 3860TIP3    H232996   3.567   3.021  16.938 -1.6183  0.7130  3.4595
 3861TIP3   OH232997   2.389   3.042  14.897 -0.7075 -0.2060  0.1602
 3861TIP3    H132998   2.360   3.129  14.924 -0.4066 -0.2966  0.7816
 3861TIP3    H232999   2.482   3.053  14.874 -0.7241 -0.3210  0.0309
 3862TIP3   OH233000   6.376   3.546  16.948 -0.1428  0.0290 -0.2465
 3862TIP3    H133001   6.293   3.498  16.953  0.0648 -0.1786  1.7504
 3862TIP3    H233002   6.370   3.612  17.017  1.5401 -0.3080  0.2575
 3863TIP3   OH233003   5.170   3.148  13.550 -0.2772  0.3112 -0.2456
 3863TIP3    H133004   5.129   3.221  13.596  0.0153 -0.8615  1.9697
 3863TIP3    H233005   5.260   3.148  13.581 -0.4552 -1.4073  0.3507
 3864TIP3   OH233006   5.507   5.020  11.066 -0.5829  0.3247 -0.4841
 3864TIP3    H133007   5.597   5.016  11.098 -0.6990 -0.1400 -0.2004
 3864TIP3    H233008   5.494   4.938  11.019 -0.0938  1.4155 -2.6460
 3865TIP3   OH233009   2.040   5.007  15.471 -0.0328 -0.2891  0.0867
 3865TIP3    H133010   2.014   4.915  15.473  0.8917 -0.5655 -0.2382
 3865TIP3    H233011   2.096   5.014  15.393 -0.7083  0.7167 -0.3265
 3866TIP3   OH233012   2.228   2.042   3.776 -0.4093  0.7623  0.5487
 3866TIP3    H133013   2.271   1.969   3.821 -0.0400 -0.7549 -2.0283
 3866TIP3    H233014   2.300   2.099   3.748 -0.5323  1.0723  0.8620
 3867TIP3   OH233015   1.725   4.181  13.449 -0.1668  0.3288  0.3101
 3867TIP3    H133016   1.819   4.173  13.468 -0.0700 -1.5174 -0.6646
 3867TIP3    H233017   1.683   4.135  13.522 -0.1540 -0.9031 -0.4305
 3868TIP3   OH233018   3.465   3.895  16.750 -0.5196  0.0104 -0.1779
 3868TIP3    H133019   3.535   3.874  16.812 -1.1254 -0.5584  0.3218
 3868TIP3    H233020   3.396   3.934  16.804 -0.1350  1.7110 -0.8300
 3869TIP3   OH233021   1.643   4.073   4.379 -0.2231  0.0790 -0.1806
 3869TIP3    H133022   1.657   4.013   4.305 -0.8095 -1.0635  0.6007
 3869TIP3    H233023   1.728   4.114   4.393  0.4729 -1.3211 -0.1283
 3870TIP3   OH233024   1.756   0.480  14.750  0.2336  0.0187  0.8787
 3870TIP3    H133025   1.747   0.432  14.833  2.2186 -1.2952  0.3881
 3870TIP3    H233026   1.749   0.413  14.683 -0.2743  0.9229  0.0042
 3871TIP3   OH233027   3.842   1.542  11.432 -0.1521  0.3256 -0.3945
 3871TIP3    H133028   3.864   1.564  11.523 -0.5470 -0.4173 -0.1153
 3871TIP3    H233029   3.762   1.590  11.414 -1.2264 -1.1181  0.3404
 3872TIP3   OH233030   3.898   1.543   6.057  0.1966  0.1580 -0.0018
 3872TIP3    H133031   3.965   1.481   6.087  0.6487 -0.4737 -2.1327
 3872TIP3    H233032   3.821   1.524   6.111  1.3464  0.0949  1.6959
 3873TIP3   OH233033   2.584   1.591   1.468 -0.1461 -0.2671  1.0854
 3873TIP3    H133034   2.507   1.641   1.496  0.1665  2.3965 -2.2019
 3873TIP3    H233035   2.656   1.627   1.520  0.2613  3.8211 -1.8459
 3874TIP3   OH233036   5.840   2.154   2.262 -0.1112 -0.2542  0.3734
 3874TIP3    H133037   5.916   2.194   2.220 -0.0610 -1.2308 -0.5026
 3874TIP3    H233038   5.870   2.135   2.351  0.2884  0.4264  0.3898
 3875TIP3   OH233039   0.053   6.429  16.819  0.2162 -0.1650  0.2040
 3875TIP3    H133040   0.026   6.350  16.772  1.4861  0.6523 -2.0113
 3875TIP3    H233041   0.140   6.409  16.853 -0.6132 -0.6835  2.1926
 3876TIP3   OH233042   3.488   5.987  17.061  0.4471  0.5212  0.4765
 3876TIP3    H133043   3.554   5.917  17.065  1.0225  1.0935  1.2443
 3876TIP3    H233044   3.538   6.068  17.058 -0.1656  0.8956 -2.5899
 3877TIP3   OH233045   5.991   3.020   4.528  0.4927  0.2883  0.3541
 3877TIP3    H133046   6.005   3.010   4.622  1.1485  0.4849  0.2807
 3877TIP3    H233047   6.074   2.994   4.488  0.2444  0.2817 -0.1655
 3878TIP3   OH233048   2.023   1.080  16.785  0.0246 -0.1881 -0.8813
 3878TIP3    H133049   1.961   1.025  16.737 -1.0243  0.7330 -0.6254
 3878TIP3    H233050   2.002   1.065  16.878 -0.2154  0.5398 -0.8048
 3879TIP3   OH233051   1.420   2.166   0.269  0.3070  0.8672 -0.3209
 3879TIP3    H133052   1.483   2.204   0.330  0.4132  1.8725 -1.0357
 3879TIP3    H233053   1.338   2.162   0.318  0.5677  0.9729  0.1240
 3880TIP3   OH233054   1.040   0.252  12.646  0.0775  0.1682  0.3754
 3880TIP3    H133055   1.063   0.241  12.738 -0.1848 -0.4181  0.3730
 3880TIP3    H233056   1.055   0.166  12.607  0.9768  0.6049 -0.3070
 3881TIP3   OH233057   0.705   5.818   5.714 -0.3016 -0.5762  0.3415
 3881TIP3    H133058   0.713   5.816   5.809 -0.0049 -1.4211  0.3110
 3881TIP3    H233059   0.790   5.848   5.682 -1.3044  2.6444  0.4122
 3882TIP3   OH233060   4.121   0.593   2.081  0.1498 -0.3658 -0.3806
 3882TIP3    H133061   4.055   0.572   2.147 -2.2958  2.5912 -1.6300
 3882TIP3    H233062   4.140   0.510   2.038  0.4998 -2.0502  2.7663
 3883TIP3   OH233063   3.205   3.495   2.258 -0.3413  0.0603  0.3767
 3883TIP3    H133064   3.132   3.485   2.319 -0.6545 -2.8778 -0.3048
 3883TIP3    H233065   3.232   3.586   2.266 -3.3186  0.9466  1.5135
 3884TIP3   OH233066   0.409   4.290   3.540  0.0253  0.1563 -0.1708
 3884TIP3    H133067   0.328   4.264   3.496 -1.1821  0.4806  1.7269
 3884TIP3    H233068   0.456   4.208   3.556 -0.3714 -0.1272 -0.4736
 3885TIP3   OH233069   1.980   2.447  11.819  0.6436 -0.2974  0.1917
 3885TIP3    H133070   2.035   2.433  11.742  0.4825  1.7683 -0.3542
 3885TIP3    H233071   1.958   2.540  11.816 -2.7773 -0.9667  0.4298
 3886TIP3   OH233072   5.090   1.249   1.774 -0.0722 -0.1997 -0.1393
 3886TIP3    H133073   5.008   1.298   1.767 -0.4784 -0.9863 -0.9783
 3886TIP3    H233074   5.106   1.216   1.686  0.9005 -0.4597  0.1259
 3887TIP3   OH233075   0.093   3.685  13.118  0.0884  0.2526 -0.7727
 3887TIP3    H133076   0.151   3.734  13.059  0.8540 -0.1780 -0.3925
 3887TIP3    H233077   0.057   3.751  13.177 -0.4340  0.6398 -1.5128
 3888TIP3   OH233078   4.411   6.617  16.170 -0.0870  0.5482 -0.0530
 3888TIP3    H133079   4.359   6.563  16.111 -1.4047  0.7036  0.9152
 3888TIP3    H233080   4.500   6.585  16.161 -0.6164 -0.8195 -0.5727
 3889TIP3   OH233081   4.011   3.180   2.865  0.1693  0.4026  0.5424
 3889TIP3    H133082   4.039   3.095   2.899 -0.4944  0.3017  0.8724
 3889TIP3    H233083   3.924   3.163   2.828  1.0983  0.3945 -1.7737
 3890TIP3   OH233084   3.225   1.884  14.609 -0.5068  0.2320 -0.4750
 3890TIP3    H133085   3.225   1.930  14.525 -1.0726 -1.1601 -1.2794
 3890TIP3    H233086   3.318   1.873  14.631 -0.3339  2.7553  0.3655
 3891TIP3   OH233087   4.486   0.312   4.858  0.6088  0.2368  0.0356
 3891TIP3    H133088   4.514   0.400   4.883  0.8751 -0.2855  1.6942
 3891TIP3    H233089   4.558   0.255   4.885 -0.4590 -0.7123  1.0267
 3892TIP3   OH233090   0.104   5.172  13.108 -0.0444 -0.3293  0.2407
 3892TIP3    H133091   0.162   5.138  13.176  0.2022  0.6071  0.5083
 3892TIP3    H233092   0.101   5.266  13.124 -0.6669 -0.2118 -0.5260
 3893TIP3   OH233093   1.341   3.564   4.956  0.1841  0.2512  0.5017
 3893TIP3    H133094   1.336   3.473   4.985 -0.1920  0.3304  0.7004
 3893TIP3    H233095   1.250   3.595   4.960  0.1762  0.3814 -0.3967
 3894TIP3   OH233096   4.628   0.167  14.058  0.0004 -0.4505 -0.0119
 3894TIP3    H133097   4.705   0.123  14.093  0.1685 -0.6751 -0.6398
 3894TIP3    H233098   4.567   0.171  14.131  0.3789 -0.8094  0.3302
 3895TIP3   OH233099   4.446   5.050  14.751  1.0636  0.1411 -0.3960
 3895TIP3    H133100   4.523   5.017  14.797  1.1247  1.6183  0.6610
 3895TIP3    H233101   4.385   4.976  14.748  2.0867 -0.7273 -0.2623
 3896TIP3   OH233102   2.803   4.861  15.388  0.5625  0.4302 -0.1777
 3896TIP3    H133103   2.714   4.887  15.412  0.8274  0.3700  0.9031
 3896TIP3    H233104   2.811   4.887  15.296 -0.1179  1.6887  0.0875
 3897TIP3   OH233105   6.615   5.007   1.127  0.3527 -0.1129 -0.6602
 3897TIP3    H133106   6.624   5.047   1.040  2.6243  1.1304  0.0684
 3897TIP3    H233107   6.637   5.077   1.188 -0.7464 -1.0924  0.9174
 3898TIP3   OH233108   2.163   5.599  12.212  0.0437 -0.0141  0.4660
 3898TIP3    H133109   2.178   5.645  12.295  3.4046 -1.2154  0.6897
 3898TIP3    H233110   2.092   5.538  12.231  1.5551 -1.1674  2.9389
 3899TIP3   OH233111   2.679   4.277   4.111 -0.2612  0.0173  0.3703
 3899TIP3    H133112   2.643   4.215   4.047 -0.8274  0.5715  0.1504
 3899TIP3    H233113   2.607   4.294   4.171  0.0793  0.0009  0.7879
 3900TIP3   OH233114   2.501   6.579  13.914 -0.2817  0.2062  0.4934
 3900TIP3    H133115   2.593   6.566  13.890 -0.2547  0.0609  0.6740
 3900TIP3    H233116   2.459   6.606  13.833 -0.2268 -0.4602  0.2310
 3901TIP3   OH233117   5.749   3.029   1.566 -0.0448  0.2734 -0.0873
 3901TIP3    H133118   5.803   2.951   1.555  0.5991  0.8281 -1.0014
 3901TIP3    H233119   5.801   3.086   1.622 -0.1757  0.3678 -0.0608
 3902TIP3   OH233120   2.402   0.968   3.314  0.4317 -0.2982 -0.3280
 3902TIP3    H133121   2.452   1.040   3.351  1.4142 -1.2731  0.2958
 3902TIP3    H233122   2.315   1.004   3.299  0.5210  0.6362  1.2554
 3903TIP3   OH233123   1.915   3.049   3.825 -0.1714 -0.3795  0.7042
 3903TIP3    H133124   1.880   2.967   3.791  0.6265  0.1077 -1.4231
 3903TIP3    H233125   1.962   3.088   3.751 -0.1283  1.7732  1.7855
 3904TIP3   OH233126   4.933   5.548   5.660 -0.1687  0.0825  0.4275
 3904TIP3    H133127   4.923   5.459   5.624 -1.2822  0.0118  0.8777
 3904TIP3    H233128   4.851   5.564   5.706 -1.1197  2.4003 -1.8763
 3905TIP3   OH233129   2.304   1.724   5.339  0.4238  0.2775  0.6349
 3905TIP3    H133130   2.377   1.777   5.370 -0.3139  1.9151 -0.3024
 3905TIP3    H233131   2.237   1.734   5.407  0.3628  0.3782  0.5605
 3906TIP3   OH233132   4.000   2.200   3.399  0.0350 -0.0475  0.0241
 3906TIP3    H133133   4.029   2.140   3.330 -2.5057 -2.1082  0.5886
 3906TIP3    H233134   3.981   2.282   3.353  0.2177 -0.7569 -1.3779
 3907TIP3   OH233135   1.664   2.046   1.958 -0.2306  0.4746 -0.1508
 3907TIP3    H133136   1.583   2.085   1.990 -0.1893  0.8666 -0.5114
 3907TIP3    H233137   1.680   1.971   2.016 -0.6186  0.6517  0.1865
 3908TIP3   OH233138   3.774   1.075  13.410 -0.0737  0.0187  0.2582
 3908TIP3    H133139   3.777   1.141  13.480 -0.8476  0.9951 -0.5947
 3908TIP3    H233140   3.682   1.049  13.405  0.1903 -1.0011  0.4494
 3909TIP3   OH233141   6.185   5.825  10.679 -0.1487 -0.6627 -0.0505
 3909TIP3    H133142   6.263   5.796  10.632  0.0509 -2.3506  1.2550
 3909TIP3    H233143   6.217   5.892  10.740  0.1133 -0.6745 -0.1731
 3910TIP3   OH233144   1.481   4.270  11.703 -0.0840  0.0181 -0.1051
 3910TIP3    H133145   1.471   4.215  11.625 -2.4413 -0.9101  0.7586
 3910TIP3    H233146   1.575   4.288  11.708  0.3517 -1.3643 -2.1516
 3911TIP3   OH233147   3.341   1.140  16.953  0.9328  0.3107 -0.1765
 3911TIP3    H133148   3.357   1.231  16.928 -1.6907  1.1010  0.6694
 3911TIP3    H233149   3.272   1.145  17.020 -0.5252 -2.3680 -1.3235
 3912TIP3   OH233150   0.048   1.865  11.758 -0.6971  0.1653  0.2658
 3912TIP3    H133151   0.101   1.933  11.715 -1.4855  0.9431  0.4955
 3912TIP3    H233152  -0.042   1.895  11.749 -0.8748  0.7588  3.0856
 3913TIP3   OH233153   4.238   0.982   4.749  0.1045  0.4551  0.0218
 3913TIP3    H133154   4.282   1.006   4.830  0.4245 -1.1107  0.3335
 3913TIP3    H233155   4.150   0.955   4.777  0.8614 -2.0709  0.1527
 3914TIP3   OH233156   5.432   0.034   0.360  0.4343  0.0917 -0.2017
 3914TIP3    H133157   5.347  -0.010   0.363 -0.6910  2.1835  1.1261
 3914TIP3    H233158   5.480  -0.003   0.435  0.4250 -0.5385 -0.4975
 3915TIP3   OH233159   4.626   5.482   2.761  0.0951 -0.2964  0.3980
 3915TIP3    H133160   4.689   5.477   2.833  0.0266  0.5337  0.5297
 3915TIP3    H233161   4.553   5.427   2.789  0.5195 -0.8141  0.4925
 3916TIP3   OH233162   6.029   6.731  10.705  0.0104 -0.3715  0.3867
 3916TIP3    H133163   5.968   6.666  10.739  0.4329 -1.9357 -1.6882
 3916TIP3    H233164   5.979   6.781  10.641 -0.2958  1.4186  1.9182
 3917TIP3   OH233165   2.108   6.633   2.295 -0.4106  0.5546 -0.5815
 3917TIP3    H133166   2.168   6.598   2.361  0.2581  1.5284 -0.6700
 3917TIP3    H233167   2.136   6.591   2.214  0.0874  0.9302 -0.6058
 3918TIP3   OH233168   2.586   6.067  15.558  0.6212  0.1271  0.0762
 3918TIP3    H133169   2.549   6.030  15.638  1.9615 -0.8839  0.2657
 3918TIP3    H233170   2.677   6.088  15.581  1.6314 -1.9494 -1.6524
 3919TIP3   OH233171   4.335   4.393   0.755  0.5258  0.0543  0.1806
 3919TIP3    H133172   4.394   4.386   0.830  1.4523  0.4301 -0.5104
 3919TIP3    H233173   4.283   4.312   0.758 -0.2855  0.5881  1.9154
 3920TIP3   OH233174   1.373   0.323   6.099  0.1233  0.0928  0.1127
 3920TIP3    H133175   1.353   0.417   6.091 -0.8465 -0.0464  0.7467
 3920TIP3    H233176   1.410   0.314   6.187 -1.4013 -0.3643  0.7399
 3921TIP3   OH233177   3.754   4.899   6.020  0.4423 -0.0727  0.1696
 3921TIP3    H133178   3.746   4.967   5.953 -0.3263 -1.3623 -1.0926
 3921TIP3    H233179   3.679   4.841   6.006  1.7125 -1.8637  0.4033
 3922TIP3   OH233180   1.377   0.786  11.386 -0.1520 -0.6866  0.1039
 3922TIP3    H133181   1.345   0.697  11.403 -3.6430  0.2322 -0.8905
 3922TIP3    H233182   1.403   0.784  11.294  0.2032 -0.7444  0.2007
 3923TIP3   OH233183   3.009   2.850   2.724  0.2115 -0.0908  0.8899
 3923TIP3    H133184   2.934   2.907   2.706  1.1352  0.9249  0.0973
 3923TIP3    H233185   2.999   2.778   2.662  0.7847  0.9298 -0.4383
 3924TIP3   OH233186   1.211   4.549  12.707 -0.2426 -0.6368 -0.0167
 3924TIP3    H133187   1.172   4.497  12.637  1.3542  0.7059 -2.0108
 3924TIP3    H233188   1.303   4.521  12.711  0.5166  1.5173 -0.7465
 3925TIP3   OH233189   0.028   6.145  13.190  0.4817 -0.3932 -0.3686
 3925TIP3    H133190  -0.003   6.071  13.241  0.5416 -0.9032 -1.0616
 3925TIP3    H233191   0.055   6.210  13.256  0.2512 -0.9040  0.2372
 3926TIP3   OH233192   1.065   0.624   5.164  0.0259  0.1550  0.2144
 3926TIP3    H133193   1.150   0.602   5.202  0.2058  0.6967  0.1298
 3926TIP3    H233194   1.053   0.716   5.184 -0.2516  0.2417 -0.3360
 3927TIP3   OH233195   5.063   2.146  13.229  0.1731  0.0260  0.0798
 3927TIP3    H133196   5.036   2.180  13.314 -0.4858 -1.5983  0.5629
 3927TIP3    H233197   5.155   2.122  13.241 -0.6631 -3.0704  1.4029
 3928TIP3   OH233198   0.807   3.104  16.737  0.0684  0.0317 -0.1778
 3928TIP3    H133199   0.840   3.157  16.809 -1.8311 -0.6667  1.2862
 3928TIP3    H233200   0.860   3.131  16.662 -0.0097  3.1155  0.7244
 3929TIP3   OH233201   1.286   1.706   5.977 -0.4160 -0.0805  0.3251
 3929TIP3    H133202   1.357   1.742   6.031 -0.5152 -1.5620  1.4919
 3929TIP3    H233203   1.231   1.658   6.038 -1.9192  0.2223 -0.7236
 3930TIP3   OH233204   0.928   6.620   4.173 -0.2833  0.3426  0.0464
 3930TIP3    H133205   1.023   6.627   4.167 -0.3619  0.4020 -1.5668
 3930TIP3    H233206   0.908   6.532   4.140 -0.7797  0.1427  0.8222
 3931TIP3   OH233207   1.052   0.895  16.796 -0.1951  0.1227 -0.3558
 3931TIP3    H133208   0.993   0.968  16.779 -1.1968 -0.7105 -0.5948
 3931TIP3    H233209   1.049   0.843  16.716  0.7692 -0.0119 -0.3163
 3932TIP3   OH233210   5.879   3.389  13.514  0.2278  0.1932  0.4906
 3932TIP3    H133211   5.884   3.452  13.442 -1.8772 -0.2187 -0.0723
 3932TIP3    H233212   5.867   3.442  13.592 -1.2233  0.5445  0.0563
 3933TIP3   OH233213   2.632   3.026   5.037  0.0569  0.7658 -0.3403
 3933TIP3    H133214   2.644   3.079   5.116 -1.0456  0.3291  0.1404
 3933TIP3    H233215   2.540   3.038   5.014 -0.1537 -0.6890 -0.3818
 3934TIP3   OH233216   4.610   6.532  14.798 -0.7142 -0.4547  0.1008
 3934TIP3    H133217   4.668   6.577  14.859 -1.5172 -0.0283  0.5646
 3934TIP3    H233218   4.666   6.469  14.754  0.4836  1.0869 -0.6808
 3935TIP3   OH233219   1.525   1.667   2.961  0.3173 -0.2247 -0.1163
 3935TIP3    H133220   1.547   1.583   3.001 -1.6613 -1.1306 -0.8333
 3935TIP3    H233221   1.443   1.693   3.002  0.9831  1.5145  0.2415
 3936TIP3   OH233222   0.293   1.488  14.068 -0.0542  0.4432 -0.0882
 3936TIP3    H133223   0.289   1.392  14.059  0.0446  0.4653 -0.3874
 3936TIP3    H233224   0.251   1.521  13.988  0.4218  0.6496 -0.2616
 3937TIP3   OH233225   2.413   3.858   1.518 -0.4390 -0.7541  0.7707
 3937TIP3    H133226   2.329   3.855   1.472 -0.1253 -1.1019  0.1988
 3937TIP3    H233227   2.391   3.881   1.608 -1.0493  0.1381  0.4023
 3938TIP3   OH233228   6.301   4.228  11.398  0.0161  0.6553 -0.1386
 3938TIP3    H133229   6.307   4.133  11.388  0.0460  0.8499 -2.6589
 3938TIP3    H233230   6.304   4.243  11.492  0.5001 -1.7993  0.2931
 3939TIP3   OH233231   6.449   3.341  12.580  0.7128  0.0581  0.5353
 3939TIP3    H133232   6.390   3.413  12.555  1.4636  0.1669 -1.0144
 3939TIP3    H233233   6.520   3.384  12.627  1.5257  0.4572 -1.0093
 3940TIP3   OH233234   2.355   4.443  11.883 -0.2011  0.1568 -0.5752
 3940TIP3    H133235   2.261   4.449  11.865 -0.3334 -0.0144  0.0109
 3940TIP3    H233236   2.360   4.398  11.968  0.5531 -3.8065 -2.5142
 3941TIP3   OH233237   2.508   4.816  12.666  0.5988  0.0712  0.5256
 3941TIP3    H133238   2.558   4.831  12.746  1.9733  3.2972 -0.7399
 3941TIP3    H233239   2.428   4.867  12.678  0.5606  0.1249  0.0612
 3942TIP3   OH233240   2.524   2.973  15.379 -0.6548  1.1828  0.6211
 3942TIP3    H133241   2.570   2.969  15.295  0.4491 -0.0935  1.2394
 3942TIP3    H233242   2.453   3.036  15.365 -1.0586  0.3422 -1.5405
 3943TIP3   OH233243   6.176   6.025  13.336 -0.6633  0.2168  0.1566
 3943TIP3    H133244   6.098   6.065  13.376 -1.5357 -2.2436  1.0813
 3943TIP3    H233245   6.227   5.994  13.411 -0.0248 -0.3844 -0.5246
 3944TIP3   OH233246   4.023   4.719  16.129  0.1169 -0.1472 -0.3294
 3944TIP3    H133247   4.088   4.725  16.059  0.1544  1.0266 -0.2121
 3944TIP3    H233248   4.041   4.634  16.171  1.5551  0.1305 -0.3346
 3945TIP3   OH233249   5.189   1.645  14.899  0.0427  0.0637  0.3729
 3945TIP3    H133250   5.104   1.688  14.903 -0.1220 -0.3306  1.4299
 3945TIP3    H233251   5.170   1.553  14.879  0.3608  0.3394 -1.3434
 3946TIP3   OH233252   3.268   2.869  14.523  0.3586  0.2594  0.3337
 3946TIP3    H133253   3.251   2.927  14.597  3.5904  0.8667  0.7867
 3946TIP3    H233254   3.334   2.916  14.471  0.3331 -1.4303 -1.3518
 3947TIP3   OH233255   3.487   6.250  15.056  0.0331 -0.2616 -0.0268
 3947TIP3    H133256   3.552   6.253  14.986 -0.2896 -0.2101 -0.3257
 3947TIP3    H233257   3.430   6.325  15.039 -0.5394 -0.7296 -0.1945
 3948TIP3   OH233258   0.897   5.542   1.881 -0.2608 -0.1382  0.5748
 3948TIP3    H133259   0.948   5.512   1.805  0.8206  0.3689  1.0803
 3948TIP3    H233260   0.868   5.461   1.924 -2.1344 -0.4640 -1.1486
 3949TIP3   OH233261   3.302   1.920  14.097  0.1339 -0.7710  0.0352
 3949TIP3    H133262   3.352   1.838  14.097 -0.8367 -1.3724 -0.0349
 3949TIP3    H233263   3.369   1.988  14.110  1.2916 -1.3390 -2.3121
 3950TIP3   OH233264   2.615   1.267   3.286  0.2227 -0.2811 -0.0139
 3950TIP3    H133265   2.545   1.331   3.294 -0.8199 -1.4705  0.8603
 3950TIP3    H233266   2.596   1.203   3.354  0.4483 -2.2305 -1.6910
 3951TIP3   OH233267   3.895   6.759   3.307 -0.2702 -0.8329 -0.4724
 3951TIP3    H133268   3.955   6.689   3.279  1.3655 -0.8360  2.5783
 3951TIP3    H233269   3.921   6.835   3.255  2.3250 -0.9078  0.5433
 3952TIP3   OH233270   2.669   2.056  13.705 -1.1804 -0.7036  0.3215
 3952TIP3    H133271   2.632   2.052  13.617  0.1188 -1.8177 -0.2049
 3952TIP3    H233272   2.703   2.146  13.713  2.3584 -1.6691 -1.9361
 3953TIP3   OH233273   1.079   2.641  16.541 -0.4881  0.5924 -0.1157
 3953TIP3    H133274   1.163   2.609  16.576 -0.7311  1.2011  1.0697
 3953TIP3    H233275   1.074   2.731  16.571 -2.4375  0.0170  1.4692
 3954TIP3   OH233276   3.777   2.062  12.676  0.5666 -0.1497 -0.2624
 3954TIP3    H133277   3.848   2.059  12.612  2.0123 -0.5786  1.2954
 3954TIP3    H233278   3.804   2.129  12.738 -0.9308  0.4353 -0.1934
 3955TIP3   OH233279   6.063   0.132  14.885 -0.4322  0.0133  0.0164
 3955TIP3    H133280   6.062   0.226  14.865 -0.9167  0.1904  0.8550
 3955TIP3    H233281   6.121   0.125  14.961 -1.2622 -0.2266  0.6318
 3956TIP3   OH233282   5.790   2.302  11.748  0.1209 -0.2356 -0.8719
 3956TIP3    H133283   5.740   2.232  11.789 -0.3640 -0.1540 -1.3139
 3956TIP3    H233284   5.873   2.303  11.795 -0.8717  0.6872  0.9527
 3957TIP3   OH233285   0.062   3.879  11.722 -0.4385 -0.5314  0.1340
 3957TIP3    H133286   0.134   3.816  11.722 -0.6864 -0.8375  1.3047
 3957TIP3    H233287   0.016   3.863  11.805  0.2283  2.0306  1.0660
 3958TIP3   OH233288   0.710   5.538   4.416 -0.8196 -0.1338  0.1500
 3958TIP3    H133289   0.750   5.518   4.332  0.8460 -2.5090  1.4075
 3958TIP3    H233290   0.699   5.453   4.458 -1.6828  0.9768  2.3124
 3959TIP3   OH233291   0.135   5.723   0.669 -0.3627  0.2403 -0.4343
 3959TIP3    H133292   0.141   5.753   0.578  0.7061  0.5242 -0.2883
 3959TIP3    H233293   0.221   5.745   0.707 -0.4137 -0.8325  0.3523
 3960TIP3   OH233294   6.211   5.334   3.510  0.4288  0.3159  0.6673
 3960TIP3    H133295   6.250   5.374   3.432  0.2775  0.5764  0.7250
 3960TIP3    H233296   6.282   5.282   3.548  0.2463 -0.5585 -0.1495
 3961TIP3   OH233297   3.070   5.227  14.121  0.6732 -0.0852 -0.3619
 3961TIP3    H133298   3.108   5.308  14.088 -1.9098  3.3260  3.9165
 3961TIP3    H233299   3.110   5.215  14.207 -2.3120 -0.4947  1.1291
 3962TIP3   OH233300   4.059   1.513   6.802  0.2028  0.5010  0.0879
 3962TIP3    H133301   4.153   1.519   6.788  0.1944  1.9176  0.4430
 3962TIP3    H233302   4.026   1.469   6.724  1.2256 -0.6571  0.2839
 3963TIP3   OH233303   5.321   6.680  12.650  0.4735  0.4848  0.9907
 3963TIP3    H133304   5.395   6.646  12.701  1.0157 -1.1156 -0.7568
 3963TIP3    H233305   5.361   6.731  12.580  0.5657 -4.0461 -2.8279
 3964TIP3   OH233306   3.208   3.543   1.087 -0.7044 -0.0950 -0.3036
 3964TIP3    H133307   3.253   3.627   1.084  0.4447 -0.6501  0.6327
 3964TIP3    H233308   3.191   3.529   1.180 -0.8709 -0.9170 -0.4536
 3965TIP3   OH233309   2.831   1.410  14.119 -0.2806 -0.0365  0.1904
 3965TIP3    H133310   2.886   1.437  14.192 -1.7726  0.0320  1.3345
 3965TIP3    H233311   2.851   1.472  14.049  1.1526 -0.0876  0.5369
 3966TIP3   OH233312   1.934   1.163  15.505 -0.4255  0.5865  0.7039
 3966TIP3    H133313   1.927   1.249  15.464  0.2164 -0.1088 -0.9551
 3966TIP3    H233314   1.907   1.177  15.595  0.8811  2.7925  0.8269
 3967TIP3   OH233315   4.431   5.558   4.680 -0.2186  0.4183  0.3690
 3967TIP3    H133316   4.515   5.571   4.724  1.0974 -0.2925 -1.7742
 3967TIP3    H233317   4.449   5.575   4.588 -1.5316 -2.9563 -0.6801
 3968TIP3   OH233318   3.631   0.149  14.334 -0.1997 -0.6690  0.8145
 3968TIP3    H133319   3.600   0.168  14.245  0.6758 -0.6711  0.4972
 3968TIP3    H233320   3.692   0.076  14.322  1.0675  0.2934  1.2061
 3969TIP3   OH233321   4.496   0.596  12.051  0.4662  0.4794 -0.3431
 3969TIP3    H133322   4.436   0.597  11.976  1.5900 -0.3896 -1.3080
 3969TIP3    H233323   4.460   0.659  12.112 -2.0691 -0.8080 -0.3730
 3970TIP3   OH233324   4.606   2.746   1.387 -0.0074  0.1422 -0.0433
 3970TIP3    H133325   4.559   2.692   1.451 -0.6336  0.4963 -0.1981
 3970TIP3    H233326   4.629   2.684   1.317 -0.5714  0.0363 -0.1403
 3971TIP3   OH233327   4.495   1.278   6.159 -0.1043  0.4709 -0.6112
 3971TIP3    H133328   4.408   1.314   6.177 -0.3006  0.1469 -0.9100
 3971TIP3    H233329   4.510   1.296   6.066  0.1616  0.5546 -0.5533
 3972TIP3   OH233330   5.769   3.753   0.749 -0.0636 -0.1721 -0.0461
 3972TIP3    H133331   5.710   3.771   0.676  0.3015 -1.9808 -0.8572
 3972TIP3    H233332   5.723   3.686   0.801  0.6510 -0.5623  0.0992
 3973TIP3   OH233333   5.656   4.441   0.601  0.1655 -0.2026 -0.6818
 3973TIP3    H133334   5.667   4.526   0.645 -0.4785 -0.7246  0.5431
 3973TIP3    H233335   5.737   4.394   0.620  1.5867  0.9494 -3.3842
 3974TIP3   OH233336   2.052   0.275   1.976 -0.8357  0.3816 -0.2950
 3974TIP3    H133337   1.962   0.253   1.951 -0.8383 -0.8839  0.7058
 3974TIP3    H233338   2.043   0.324   2.057 -0.6040 -0.7603  0.4453
 3975TIP3   OH233339   2.477   1.631  16.248 -0.0143 -0.8091 -0.4469
 3975TIP3    H133340   2.483   1.673  16.162 -1.0226  0.3714  0.0353
 3975TIP3    H233341   2.562   1.588  16.259  1.4340  1.8152 -0.6312
 3976TIP3   OH233342   0.749   4.024   1.720  0.5199 -0.6309  1.0529
 3976TIP3    H133343   0.747   3.964   1.795 -1.3058  0.5951  2.0536
 3976TIP3    H233344   0.657   4.039   1.698  0.7936  2.6742  1.6327
 3977TIP3   OH233345   2.129   5.031   3.017  0.0800  0.2484  0.2738
 3977TIP3    H133346   2.095   5.110   3.060  0.4913  1.6342 -1.7798
 3977TIP3    H233347   2.143   5.058   2.926  2.0046 -1.6899 -0.0782
 3978TIP3   OH233348   0.460   2.414   2.174 -0.0373  0.3460  0.2422
 3978TIP3    H133349   0.520   2.358   2.223  0.7010 -0.9975 -2.0567
 3978TIP3    H233350   0.389   2.356   2.147 -0.1786  0.9250 -0.6637
 3979TIP3   OH233351   1.402   2.111   2.026  0.3910  1.0719  0.1214
 3979TIP3    H133352   1.351   2.165   2.086 -1.1841  1.2948 -1.3585
 3979TIP3    H233353   1.348   2.104   1.947  0.6109 -2.5184  0.1478
 3980TIP3   OH233354   5.734   0.653  13.022  0.3536 -0.3977  0.0130
 3980TIP3    H133355   5.668   0.587  13.000 -0.6862  1.1574 -1.8993
 3980TIP3    H233356   5.800   0.644  12.953  1.4604 -0.9776  1.1026
 3981TIP3   OH233357   5.502   6.276  16.640 -0.0908 -0.1501  0.1555
 3981TIP3    H133358   5.462   6.245  16.559 -1.0539  0.1770  0.4941
 3981TIP3    H233359   5.446   6.242  16.710 -0.5199  1.3698  0.5883
 3982TIP3   OH233360   5.180   4.369   2.368  0.4670 -0.3294  0.0649
 3982TIP3    H133361   5.206   4.299   2.429  0.0874 -0.0228  0.5895
 3982TIP3    H233362   5.120   4.424   2.419 -1.5894 -1.2668 -1.2513
 3983TIP3   OH233363   2.474   4.573  15.137 -0.1076 -0.9969  0.4278
 3983TIP3    H133364   2.553   4.627  15.127 -0.9461  0.1826 -0.1308
 3983TIP3    H233365   2.404   4.637  15.154 -1.1458 -1.9256 -0.2335
 3984TIP3   OH233366   5.918   5.612   3.711  0.0325  0.0386 -0.4404
 3984TIP3    H133367   6.012   5.622   3.720 -0.1534  1.7097 -0.1829
 3984TIP3    H233368   5.880   5.663   3.782 -1.0727 -1.0366 -0.2165
 3985TIP3   OH233369   4.536   5.151   3.943 -0.1404 -0.0631  0.4059
 3985TIP3    H133370   4.526   5.160   4.038  2.2468 -0.7420  0.7934
 3985TIP3    H233371   4.582   5.068   3.931 -0.2528  0.0876 -1.3387
 3986TIP3   OH233372   1.201   3.115   2.331  0.0916  0.2171  0.3375
 3986TIP3    H133373   1.189   3.207   2.356  0.6620  0.6588 -0.8966
 3986TIP3    H233374   1.284   3.115   2.283 -0.2965 -0.7910 -0.3555
 3987TIP3   OH233375   6.546   1.643  10.602  0.3405  0.2035  0.0489
 3987TIP3    H133376   6.451   1.659  10.609  0.5549  1.5179  0.2395
 3987TIP3    H233377   6.585   1.710  10.658  1.4649  0.7288 -1.3273
 3988TIP3   OH233378   0.143   3.197   2.300 -0.8775  0.3461 -0.5294
 3988TIP3    H133379   0.146   3.141   2.377 -2.4493  0.3879 -0.4165
 3988TIP3    H233380   0.105   3.142   2.231  2.7090 -0.5077 -2.0449
 3989TIP3   OH233381   0.314   0.257   4.511  0.5728  0.2995  0.1458
 3989TIP3    H133382   0.277   0.344   4.497 -1.7995 -0.7728 -0.6017
 3989TIP3    H233383   0.362   0.238   4.431  0.4000  0.5661 -0.0224
 3990TIP3   OH233384   3.221   6.640   4.584 -0.3117 -0.1796 -0.0213
 3990TIP3    H133385   3.297   6.616   4.638 -0.1501  0.4696  0.0419
 3990TIP3    H233386   3.258   6.666   4.500 -0.4775 -0.0168 -0.0446
 3991TIP3   OH233387   3.411   4.316  14.962  0.2234 -0.2420  0.5400
 3991TIP3    H133388   3.415   4.374  14.886 -1.2452 -0.6975  0.0839
 3991TIP3    H233389   3.459   4.238  14.935 -0.8094 -0.6502 -0.1760
 3992TIP3   OH233390   1.028   2.522  12.877  0.0048  0.0736 -0.2296
 3992TIP3    H133391   0.994   2.433  12.891  0.5726 -0.5758 -2.5007
 3992TIP3    H233392   1.112   2.522  12.923 -0.3983 -0.2609  0.5225
 3993TIP3   OH233393   3.816   3.079  12.570 -0.4107 -0.2559  0.5334
 3993TIP3    H133394   3.850   3.116  12.488  0.2205 -0.1914  0.8128
 3993TIP3    H233395   3.787   3.155  12.621 -0.6330 -0.2814  0.4462
 3994TIP3   OH233396   4.996   0.799  14.656 -0.4042  1.1384  0.4220
 3994TIP3    H133397   4.968   0.716  14.696 -0.5216  1.5044  1.1050
 3994TIP3    H233398   4.931   0.816  14.588  0.2602  0.0854 -0.5159
 3995TIP3   OH233399   0.161   3.651   2.520 -0.0361  0.3398 -0.2681
 3995TIP3    H133400   0.124   3.642   2.432  1.1665  0.6592 -0.8316
 3995TIP3    H233401   0.197   3.565   2.540  0.6547  0.5557 -0.5544
 3996TIP3   OH233402   3.029   3.593   4.555 -0.3373  0.0753  0.0200
 3996TIP3    H133403   3.115   3.622   4.524 -1.3360  0.7740 -2.2692
 3996TIP3    H233404   3.011   3.649   4.631  1.6992 -0.9280  1.3430
 3997TIP3   OH233405   2.987   4.014  13.081 -0.1993  0.3464  0.1779
 3997TIP3    H133406   2.961   3.971  13.000 -0.9695  0.0805  0.5577
 3997TIP3    H233407   2.970   3.950  13.150  2.6268 -0.3360  0.3790
 3998TIP3   OH233408   6.136   4.544  14.458 -0.5545  0.0972 -0.2362
 3998TIP3    H133409   6.207   4.607  14.468 -0.1328  0.0787 -2.6044
 3998TIP3    H233410   6.179   4.459  14.460 -0.8870 -0.0714  0.9413
 3999TIP3   OH233411   2.564   3.801   4.957 -0.0723 -0.4263  0.3656
 3999TIP3    H133412   2.619   3.845   4.892 -1.7918 -0.5869 -1.2616
 3999TIP3    H233413   2.596   3.833   5.041  2.6638 -0.7067 -0.4642
 4000TIP3   OH233414   0.024   1.492   1.637 -0.0745 -0.3083 -0.2324
 4000TIP3    H133415   0.082   1.498   1.713 -0.6198 -2.1081  0.3913
 4000TIP3    H233416   0.082   1.499   1.561  0.3639  2.5746  0.2521
 4001TIP3   OH233417   2.574   4.263   4.845  0.9356 -0.6047 -0.0876
 4001TIP3    H133418   2.493   4.218   4.869  0.8225 -0.1941  0.3194
 4001TIP3    H233419   2.586   4.329   4.914  2.4878 -1.7181  0.7881
 4002TIP3   OH233420   6.357   5.521   1.117 -0.5186 -0.5509 -0.1137
 4002TIP3    H133421   6.392   5.497   1.031 -0.3374 -1.1092  0.1151
 4002TIP3    H233422   6.426   5.495   1.179 -1.0901 -1.1217  0.2918
 4003TIP3   OH233423   4.728   6.053   4.888  0.6590  0.9114 -0.4556
 4003TIP3    H133424   4.755   6.116   4.822  0.1037 -0.7644 -2.4083
 4003TIP3    H233425   4.695   5.978   4.837 -2.7454  0.7391  1.7060
 4004TIP3   OH233426   2.573   2.359  14.664  0.0539 -0.6424  0.0988
 4004TIP3    H133427   2.666   2.339  14.662  0.3145  0.4405  0.5382
 4004TIP3    H233428   2.541   2.317  14.744  0.3143 -0.4175  0.3235
 4005TIP3   OH233429   4.763   1.617  15.843  0.2927 -0.1905  0.4512
 4005TIP3    H133430   4.843   1.566  15.830 -1.2037 -2.0576 -2.8859
 4005TIP3    H233431   4.784   1.702  15.806  1.2278 -0.0667  1.2150
 4006TIP3   OH233432   6.248   2.978  14.016 -0.1195  0.5901 -0.2362
 4006TIP3    H133433   6.324   2.953  13.965  0.3760  2.1632 -0.3354
 4006TIP3    H233434   6.173   2.949  13.965  0.3851 -0.7888 -0.2379
 4007TIP3   OH233435   5.461   2.635   4.470  0.3324  0.2151  0.4855
 4007TIP3    H133436   5.434   2.726   4.483  1.0232  0.5519 -0.3924
 4007TIP3    H233437   5.381   2.591   4.441 -0.1215  0.4221  1.3605
 4008TIP3   OH233438   6.519   0.213  14.796  0.0081 -0.2099  0.0498
 4008TIP3    H133439   6.534   0.306  14.778  2.1419 -0.4305  0.4546
 4008TIP3    H233440   6.437   0.193  14.751 -0.6848  1.9406  0.2428
 4009TIP3   OH233441   0.770   2.174   3.708 -0.7143  0.3922  0.8954
 4009TIP3    H133442   0.839   2.239   3.716 -1.1499  0.8213  1.2330
 4009TIP3    H233443   0.813   2.091   3.728 -0.1070  0.5422  0.2472
 4010TIP3   OH233444   2.881   2.338  15.056  0.4808 -0.0234  0.4998
 4010TIP3    H133445   2.966   2.349  15.014 -0.0633 -1.8327 -1.2006
 4010TIP3    H233446   2.841   2.263  15.012 -1.1082 -0.6164  2.7422
 4011TIP3   OH233447   6.665   3.389  16.348 -0.0806 -0.5367 -0.1328
 4011TIP3    H133448   6.749   3.369  16.308  0.3014 -0.4457  0.5957
 4011TIP3    H233449   6.640   3.474  16.311  1.0207  0.3049  0.9567
 4012TIP3   OH233450   2.077   0.229  12.208  0.2456 -0.0973 -0.3348
 4012TIP3    H133451   2.151   0.261  12.261  2.2827  0.0024 -3.0136
 4012TIP3    H233452   2.054   0.304  12.152 -0.7181 -0.6957 -0.7583
 4013TIP3   OH233453   3.571   2.006   2.749  0.0462  0.4274  0.1710
 4013TIP3    H133454   3.650   2.039   2.792  0.2587  1.1572 -0.7301
 4013TIP3    H233455   3.553   2.070   2.680 -0.2458 -0.7278 -0.8593
 4014TIP3   OH233456   5.851   1.089   3.761  0.1288  0.0443 -0.2555
 4014TIP3    H133457   5.764   1.110   3.794 -0.6277 -0.8724 -1.5789
 4014TIP3    H233458   5.897   1.052   3.836 -0.9291 -0.3163  0.2296
 4015TIP3   OH233459   2.187   0.786   3.649 -0.6541 -0.0403 -0.5216
 4015TIP3    H133460   2.248   0.740   3.591 -1.3148 -0.4733 -0.8814
 4015TIP3    H233461   2.226   0.777   3.736  0.0883  0.1788 -0.8224
 4016TIP3   OH233462   6.002   4.153  16.811 -0.4296 -0.3109 -0.3915
 4016TIP3    H133463   6.058   4.225  16.840 -0.2547 -1.2605  1.8133
 4016TIP3    H233464   5.914   4.191  16.808 -0.4132 -0.0784  1.2234
 4017TIP3   OH233465   1.098   1.922   4.295  0.4348 -0.3413 -0.2354
 4017TIP3    H133466   1.069   1.852   4.354  2.1916  0.2938  1.4791
 4017TIP3    H233467   1.017   1.963   4.265 -0.5478 -1.0961  1.2534
 4018TIP3   OH233468   6.227   1.497  13.508  0.4994  0.4621  0.0098
 4018TIP3    H133469   6.168   1.569  13.528 -1.5736 -0.6247 -1.6638
 4018TIP3    H233470   6.313   1.537  13.498 -0.8260  3.0255 -2.4891
 4019TIP3   OH233471   0.191   5.114   4.846 -0.0467 -0.3434  0.5037
 4019TIP3    H133472   0.115   5.095   4.901 -0.9103 -0.0210 -0.5502
 4019TIP3    H233473   0.244   5.175   4.897 -0.4602 -0.6237  1.2724
 4020TIP3   OH233474   4.206   2.757  15.850 -0.7172  1.0691 -0.1339
 4020TIP3    H133475   4.215   2.670  15.811  0.4686  1.0322  0.1856
 4020TIP3    H233476   4.132   2.750  15.909 -0.7620  0.3397 -0.2738
 4021TIP3   OH233477   2.332   3.740   0.447 -0.2410  0.0635  0.1817
 4021TIP3    H133478   2.357   3.721   0.537 -2.0681  0.9401  0.9359
 4021TIP3    H233479   2.365   3.829   0.432 -1.7408  0.7686  0.7840
 4022TIP3   OH233480   4.168   0.109  13.907 -0.4576  0.1698  0.1545
 4022TIP3    H133481   4.257   0.131  13.883  0.1450 -0.7030  1.4487
 4022TIP3    H233482   4.127   0.193  13.928 -1.0155  0.9819 -3.5685
 4023TIP3   OH233483   1.156   1.071  11.689  0.1331 -0.0476  0.1788
 4023TIP3    H133484   1.088   1.137  11.682  0.3655  0.1899  0.1492
 4023TIP3    H233485   1.142   1.015  11.612  0.5580  0.5604 -0.3548
 4024TIP3   OH233486   1.366   1.801  13.143  0.7997 -0.2515  0.1592
 4024TIP3    H133487   1.282   1.811  13.189  1.4268 -0.6803  1.4325
 4024TIP3    H233488   1.365   1.870  13.077 -1.2441 -1.2439 -0.9495
 4025TIP3   OH233489   3.256   3.858   2.547 -0.2180 -0.4151  0.3850
 4025TIP3    H133490   3.277   3.795   2.478  1.3600 -1.3283  1.6140
 4025TIP3    H233491   3.197   3.810   2.605  0.1596 -0.3998  0.7824
 4026TIP3   OH233492   5.310   0.868  11.844  0.1004 -0.8137 -0.6850
 4026TIP3    H133493   5.299   0.892  11.751  1.4040 -0.0384 -0.6614
 4026TIP3    H233494   5.405   0.862  11.856 -0.0430 -0.4823  0.7144
 4027TIP3   OH233495   2.602   2.771   3.968  0.0624 -0.1460 -0.6148
 4027TIP3    H133496   2.653   2.691   3.950 -0.6523 -1.0525  1.1648
 4027TIP3    H233497   2.668   2.838   3.986  0.6554 -0.8091 -0.2592
 4028TIP3   OH233498   0.744   5.033   2.147 -0.4207 -0.6939  0.0091
 4028TIP3    H133499   0.726   4.971   2.076  0.8138 -0.7678 -0.2575
 4028TIP3    H233500   0.777   4.979   2.218  0.0789 -0.4135 -0.0080
 4029TIP3   OH233501   1.703   6.609   1.980 -0.1854  0.1854 -0.2156
 4029TIP3    H133502   1.757   6.677   2.021  0.9385  0.1724 -1.5908
 4029TIP3    H233503   1.626   6.656   1.949 -0.4902  0.4064  0.8508
 4030TIP3   OH233504   1.724   2.716   4.624 -0.1962 -0.0034  0.2486
 4030TIP3    H133505   1.761   2.777   4.560  1.9617 -0.4753  0.9943
 4030TIP3    H233506   1.660   2.665   4.573 -1.6342  2.4153 -0.5117
 4031TIP3   OH233507   1.006   2.972   4.704 -0.5941  0.4747 -0.1275
 4031TIP3    H133508   1.005   3.063   4.733 -0.9348  0.2572  0.5753
 4031TIP3    H233509   1.066   2.928   4.764  0.6630  0.4875 -1.3201
 4032TIP3   OH233510   1.492   6.682  15.399 -0.3799  0.2672  0.0415
 4032TIP3    H133511   1.420   6.733  15.435  0.1682 -0.6217  2.5932
 4032TIP3    H233512   1.551   6.667  15.473  2.6387  1.1982 -1.9856
 4033TIP3   OH233513   0.027   3.704   5.122 -0.6553  0.4134  0.2973
 4033TIP3    H133514   0.083   3.750   5.058 -0.2828  2.8811  2.2468
 4033TIP3    H233515  -0.035   3.771   5.152 -1.1791 -0.8180  2.1059
 4034TIP3   OH233516   0.514   6.333  13.971 -0.2772 -0.4800  0.3486
 4034TIP3    H133517   0.539   6.416  14.012  0.7981 -2.0553  3.2248
 4034TIP3    H233518   0.597   6.294  13.944 -0.9124  0.1712 -2.9620
 4035TIP3   OH233519   0.896   5.880   2.290 -0.2578 -0.1485  0.8442
 4035TIP3    H133520   0.853   5.800   2.262  0.2242 -0.2423  0.3610
 4035TIP3    H233521   0.954   5.903   2.217  1.2867 -0.5912  1.9088
 4036TIP3   OH233522   4.270   3.130  17.076 -0.3843  0.4916 -0.4360
 4036TIP3    H133523   4.333   3.087  17.134  1.7609  0.3491 -2.7067
 4036TIP3    H233524   4.202   3.064  17.061  0.7187 -0.6426 -0.6075
 4037TIP3   OH233525   2.773   5.056   3.709  0.6073  0.1871 -0.1820
 4037TIP3    H133526   2.837   5.076   3.777  0.5212 -0.2982  0.0514
 4037TIP3    H233527   2.814   5.086   3.628  0.9790  0.2009  0.0078
 4038TIP3   OH233528   3.569   2.908  14.152  0.0237  0.2820 -0.3690
 4038TIP3    H133529   3.594   2.872  14.067 -1.6283 -1.0709 -0.3344
 4038TIP3    H233530   3.484   2.869  14.170  2.0462 -2.8873  3.8730
 4039TIP3   OH233531   6.431   6.030   2.336 -0.8160 -0.4336  0.0855
 4039TIP3    H133532   6.450   6.039   2.430  2.2103 -3.0001 -0.1295
 4039TIP3    H233533   6.490   6.092   2.294 -1.3914 -0.0808 -0.2269
 4040TIP3   OH233534   6.223   0.031  15.534 -0.1642 -0.5613  0.4668
 4040TIP3    H133535   6.308   0.003  15.499 -0.5114  1.0027 -1.8388
 4040TIP3    H233536   6.245   0.073  15.617  1.2587 -0.7672  0.2282
 4041TIP3   OH233537   0.072   0.655  15.332  0.5730 -0.2997 -0.6319
 4041TIP3    H133538   0.103   0.614  15.412  0.1884 -0.5910 -0.6283
 4041TIP3    H233539   0.085   0.589  15.264  0.8462 -0.0747 -0.8009
 4042TIP3   OH233540   3.121   3.686  11.611 -0.0228  0.4956  0.1204
 4042TIP3    H133541   3.168   3.653  11.535 -0.5803  0.7985 -0.3618
 4042TIP3    H233542   3.086   3.608  11.654  1.7547  0.1520  1.0840
 4043TIP3   OH233543   6.474   4.512  12.481  0.0474 -0.1006  0.0116
 4043TIP3    H133544   6.467   4.563  12.562  3.3734  0.1188  0.3093
 4043TIP3    H233545   6.391   4.526  12.437 -0.4711  2.8637  1.6506
 4044TIP3   OH233546   5.331   1.203  15.736  0.5247 -0.1662 -0.5649
 4044TIP3    H133547   5.321   1.282  15.790 -1.6861  0.6214 -1.9812
 4044TIP3    H233548   5.387   1.231  15.664  1.0539 -0.3771 -0.2430
 4045TIP3   OH233549   6.566   0.488   3.008  0.0766  0.3791 -0.5401
 4045TIP3    H133550   6.641   0.480   2.949  0.3900 -1.5245  0.0302
 4045TIP3    H233551   6.604   0.506   3.094 -0.0173 -1.3303 -0.1054
 4046TIP3   OH233552   5.107   4.263   2.813 -0.1676  0.1687  0.1566
 4046TIP3    H133553   5.168   4.220   2.873  1.0869  1.2137 -0.3227
 4046TIP3    H233554   5.112   4.212   2.732 -1.3955 -0.8701  0.6896
 4047TIP3   OH233555   1.757   2.599  13.079 -0.3988 -0.7972 -0.3444
 4047TIP3    H133556   1.690   2.612  13.012  0.7764  0.0354 -1.3771
 4047TIP3    H233557   1.806   2.681  13.081  0.6359 -1.4110  0.3626
 4048TIP3   OH233558   6.359   1.984   3.035 -0.7878  0.1665  0.0589
 4048TIP3    H133559   6.307   2.028   3.102  0.2173  1.6268 -0.0672
 4048TIP3    H233560   6.369   2.049   2.965  1.9176  0.3229  0.4610
 4049TIP3   OH233561   2.505   6.000  12.272 -0.1030 -0.0254  0.1344
 4049TIP3    H133562   2.545   6.080  12.237 -1.1023  1.0381  1.3253
 4049TIP3    H233563   2.412   6.020  12.277 -0.1921 -0.7039  1.8557
 4050TIP3   OH233564   3.611   1.401   5.980 -0.2082 -0.2327  0.3758
 4050TIP3    H133565   3.691   1.349   5.990  0.8061  1.3063  0.6916
 4050TIP3    H233566   3.612   1.461   6.054 -1.1939  0.4086 -0.1054
 4051TIP3   OH233567   5.690   0.140  14.558  0.3057 -0.2776  0.4647
 4051TIP3    H133568   5.657   0.066  14.610  0.1027  0.5101  1.5012
 4051TIP3    H233569   5.757   0.180  14.614  1.2677 -0.3835 -0.5881
 4052TIP3   OH233570   3.989   4.633   0.706 -0.3324 -0.3229  0.2531
 4052TIP3    H133571   4.059   4.584   0.663  1.6572  0.6963  2.1043
 4052TIP3    H233572   4.014   4.725   0.695 -1.0334  0.0389  1.5053
 4053TIP3   OH233573   5.282   3.802  11.981  0.7178 -0.6317 -0.4430
 4053TIP3    H133574   5.241   3.717  11.964  0.1152 -0.2896 -0.6984
 4053TIP3    H233575   5.215   3.852  12.027  1.8134 -1.0561  1.7605
 4054TIP3   OH233576   1.119   1.096  16.311 -0.1816  0.0341  0.3910
 4054TIP3    H133577   1.204   1.100  16.353  0.4974  1.0580 -1.0169
 4054TIP3    H233578   1.096   1.187  16.293 -0.1922 -0.3495 -1.8399
 4055TIP3   OH233579   3.094   3.759   1.611 -0.0708 -0.4936  0.6805
 4055TIP3    H133580   3.144   3.822   1.560  0.0671 -1.3860 -0.3192
 4055TIP3    H233581   3.003   3.777   1.589  0.0553 -2.0388 -1.3545
 4056TIP3   OH233582   6.730   2.198  16.801 -0.3321 -0.3800  0.2982
 4056TIP3    H133583   6.793   2.170  16.735  0.6710 -0.5787  1.3153
 4056TIP3    H233584   6.722   2.293  16.787 -1.4797 -0.6649 -1.2233
 4057TIP3   OH233585   2.041   6.056  12.518  0.1375 -0.4407 -0.0285
 4057TIP3    H133586   1.957   6.015  12.539  0.1376 -0.6937 -0.5065
 4057TIP3    H233587   2.052   6.124  12.585 -0.4263 -0.4321  0.0613
 4058TIP3   OH233588   1.026   0.873  12.505 -0.8171  0.2349 -0.0754
 4058TIP3    H133589   1.106   0.889  12.455 -0.7810  0.0877 -0.0647
 4058TIP3    H233590   1.028   0.938  12.575 -0.7695  0.3133 -0.1495
 4059TIP3   OH233591   6.702   2.596  12.448 -0.8615 -0.2911 -0.0602
 4059TIP3    H133592   6.713   2.677  12.398 -1.5087 -0.2734 -0.1786
 4059TIP3    H233593   6.689   2.529  12.381  0.6255 -0.6695 -0.0125
 4060TIP3   OH233594   6.691   0.420   3.963  0.4882 -0.3765  0.0304
 4060TIP3    H133595   6.710   0.430   3.870 -1.0507  0.2495 -0.2463
 4060TIP3    H233596   6.600   0.448   3.972  0.7013 -0.1238  1.7767
 4061TIP3   OH233597   6.196   2.826  15.427 -0.2160 -0.1083 -0.0950
 4061TIP3    H133598   6.164   2.831  15.517 -2.5500 -1.3023 -0.7809
 4061TIP3    H233599   6.132   2.771  15.381  2.5465 -2.1908 -1.7975
 4062TIP3   OH233600   4.561   5.794  16.022  0.3423 -0.5591 -0.1886
 4062TIP3    H133601   4.543   5.744  15.943 -0.9397 -1.3515  0.5670
 4062TIP3    H233602   4.494   5.765  16.084  0.9475  0.4838  0.9891
 4063TIP3   OH233603   5.018   5.344   3.366  0.3399 -0.2761  0.7329
 4063TIP3    H133604   4.947   5.312   3.421  0.5649 -0.8874  0.6747
 4063TIP3    H233605   5.082   5.273   3.366  1.3168  0.5621  1.4265
 4064TIP3   OH233606   2.594   1.314   4.391  0.0650 -0.1784  0.0900
 4064TIP3    H133607   2.506   1.282   4.411 -0.4594  0.1617 -1.4655
 4064TIP3    H233608   2.635   1.328   4.476 -0.5690 -2.5029  0.8426
 4065TIP3   OH233609   0.154   2.069  16.146  0.0908 -0.1030  0.3031
 4065TIP3    H133610   0.067   2.033  16.164  0.1210  0.0716  0.8333
 4065TIP3    H233611   0.214   2.000  16.173  0.1180 -0.2418 -0.1084
 4066TIP3   OH233612   6.247   0.712   1.493  0.1751  0.3727  0.3229
 4066TIP3    H133613   6.340   0.716   1.471 -0.3507  0.8872 -2.0629
 4066TIP3    H233614   6.220   0.803   1.503 -0.4570  0.3298 -0.8840
 4067TIP3   OH233615   3.628   0.901  11.455 -0.2393 -0.5162  0.0277
 4067TIP3    H133616   3.658   0.987  11.424  0.3997 -1.6630 -2.8363
 4067TIP3    H233617   3.559   0.922  11.518  0.6375  2.1003  0.2641
 4068TIP3   OH233618   4.224   3.905  16.762  0.2203 -0.7972  0.2572
 4068TIP3    H133619   4.226   4.001  16.755  0.2493 -0.9126 -2.0683
 4068TIP3    H233620   4.310   3.882  16.799 -0.1088  0.0791  1.6532
 4069TIP3   OH233621   0.656   6.385   1.412  0.2818 -0.1441 -0.0446
 4069TIP3    H133622   0.715   6.389   1.487  1.4123  1.0095 -0.9654
 4069TIP3    H233623   0.571   6.363   1.450  0.9192 -0.0148  1.5150
 4070TIP3   OH233624   5.661   5.715  13.717 -0.4692  0.1366 -0.1432
 4070TIP3    H133625   5.695   5.655  13.783  0.8180  0.5094 -0.4369
 4070TIP3    H233626   5.700   5.799  13.739 -1.7892  0.7596 -0.0877
 4071TIP3   OH233627   5.771   1.261  13.905  0.0217 -0.0284 -0.0314
 4071TIP3    H133628   5.703   1.200  13.933  0.1773 -0.5959 -0.8415
 4071TIP3    H233629   5.806   1.222  13.825  2.9091 -0.9937  1.5701
 4072TIP3   OH233630   3.169   1.093   0.143  0.2314  0.0336  0.4523
 4072TIP3    H133631   3.103   1.027   0.160 -0.0564 -0.0427 -0.8160
 4072TIP3    H233632   3.252   1.046   0.144  0.1154 -0.1688  0.4690
 4073TIP3   OH233633   1.157   4.021  16.671  0.4467 -0.1149 -0.6783
 4073TIP3    H133634   1.219   4.036  16.743 -0.3744 -0.5717  0.1614
 4073TIP3    H233635   1.141   3.927  16.673 -0.9195  0.1045 -0.3007
 4074TIP3   OH233636   6.128   4.701  16.772  0.1668 -0.5873 -0.3686
 4074TIP3    H133637   6.117   4.779  16.717  0.4851  0.6249  1.2214
 4074TIP3    H233638   6.097   4.628  16.717 -2.1475  0.8923 -1.1586
 4075TIP3   OH233639   1.423   6.368   1.904 -0.3785  0.0322 -0.0225
 4075TIP3    H133640   1.358   6.401   1.966 -0.6467 -0.7724  0.1294
 4075TIP3    H233641   1.427   6.274   1.920  2.3394  0.2699  1.4179
 4076TIP3   OH233642   3.580   1.950  12.241  0.6936  0.2668  0.3161
 4076TIP3    H133643   3.575   2.036  12.199 -1.0995  0.6803  1.2746
 4076TIP3    H233644   3.635   1.898  12.182  0.7356  1.6839 -0.9669
 4077TIP3   OH233645   4.977   4.485  14.476 -0.6476 -0.0159  0.1615
 4077TIP3    H133646   4.976   4.529  14.561 -0.5717 -1.2718  0.8339
 4077TIP3    H233647   5.049   4.422  14.483  1.2688  1.7998 -1.8635
 4078TIP3   OH233648   6.247   5.912   4.755 -0.1084 -0.1487 -0.3832
 4078TIP3    H133649   6.159   5.943   4.777  0.6485  0.4850  2.0711
 4078TIP3    H233650   6.285   5.885   4.838  2.1840 -0.0234 -1.2941
 4079TIP3   OH233651   5.950   0.279   5.655 -0.3362  0.8879 -0.1682
 4079TIP3    H133652   6.000   0.220   5.712  0.2349 -0.2521 -1.7832
 4079TIP3    H233653   5.953   0.364   5.699  0.8298  0.2448  1.0420
 4080TIP3   OH233654   6.345   6.167   1.519 -0.2206  0.2106  0.5178
 4080TIP3    H133655   6.267   6.112   1.522 -0.6357  0.5192 -2.0249
 4080TIP3    H233656   6.319   6.242   1.466  2.4343 -0.9181 -2.7507
 4081TIP3   OH233657   2.615   0.167   3.773  0.5465 -0.6814 -0.5800
 4081TIP3    H133658   2.633   0.224   3.848 -0.2823  0.4800 -1.2328
 4081TIP3    H233659   2.533   0.122   3.796  0.6351 -0.8154 -0.5223
 4082TIP3   OH233660   3.305   4.804  11.542 -0.4626  0.0588  0.5698
 4082TIP3    H133661   3.225   4.784  11.493 -0.8024  0.1568  1.0749
 4082TIP3    H233662   3.315   4.731  11.603  0.8398 -0.8779 -0.7040
 4083TIP3   OH233663   1.146   1.494  11.699  0.2770  0.1791 -0.3886
 4083TIP3    H133664   1.203   1.512  11.623  0.6086  0.3212 -0.1090
 4083TIP3    H233665   1.151   1.399  11.710  0.3087  0.1691 -0.4873
 4084TIP3   OH233666   0.858   5.201   5.979 -0.6429  0.6232  0.3832
 4084TIP3    H133667   0.841   5.289   6.013 -1.0001  1.4837 -1.8705
 4084TIP3    H233668   0.827   5.203   5.888  0.7544 -1.3661 -0.2181
 4085TIP3   OH233669   1.259   2.586  15.182  0.1965 -0.1131 -0.2708
 4085TIP3    H133670   1.180   2.567  15.132  0.4003 -0.9479 -0.2807
 4085TIP3    H233671   1.323   2.614  15.117  0.7459 -2.0622 -0.6314
 4086TIP3   OH233672   5.520   0.223  13.550 -0.7037  0.2153 -0.3141
 4086TIP3    H133673   5.605   0.255  13.521 -0.3156 -0.3159  0.2119
 4086TIP3    H233674   5.492   0.163  13.480 -0.5419  0.2179 -0.3815
 4087TIP3   OH233675   5.025   6.685  10.832 -0.1343  0.1760 -0.3279
 4087TIP3    H133676   5.088   6.729  10.775  0.9374  1.0805  1.4618
 4087TIP3    H233677   4.997   6.753  10.893 -3.4134 -0.0177 -1.4382
 4088TIP3   OH233678   3.503   2.327  15.319 -0.9960 -0.1429  0.0501
 4088TIP3    H133679   3.534   2.344  15.408 -0.2283 -1.4744  0.0676
 4088TIP3    H233680   3.450   2.248  15.327 -1.0919 -0.1512 -0.6402
 4089TIP3   OH233681   0.640   3.012   2.618 -0.5220 -0.2914 -0.4169
 4089TIP3    H133682   0.564   3.068   2.633 -1.2873 -0.4511 -3.1897
 4089TIP3    H233683   0.611   2.924   2.643 -0.3250  0.0344  1.0427
 4090TIP3   OH233684   1.374   0.737   1.143 -0.0164  0.3688  0.3703
 4090TIP3    H133685   1.462   0.773   1.129  0.1679 -0.6605 -1.3649
 4090TIP3    H233686   1.356   0.753   1.236  1.4385  1.8103  0.4431
 4091TIP3   OH233687   5.671   6.770  12.569 -0.2591 -0.2726 -0.1461
 4091TIP3    H133688   5.658   6.796  12.661  3.6208 -2.4148  1.2172
 4091TIP3    H233689   5.653   6.676  12.568 -0.6515 -0.2150 -1.7503
 4092TIP3   OH233690   6.145   2.956  14.523 -0.0228 -0.0026 -0.6019
 4092TIP3    H133691   6.185   2.912  14.448  0.3871 -0.1229 -0.3210
 4092TIP3    H233692   6.137   3.048  14.495  2.4696  0.5082  0.0757
 4093TIP3   OH233693   4.612   1.555  14.938  0.5256 -0.4377 -0.0622
 4093TIP3    H133694   4.546   1.511  14.885  0.5648 -2.7679  1.6691
 4093TIP3    H233695   4.656   1.615  14.877 -2.2614  0.2684 -1.5728
 4094TIP3   OH233696   2.737   4.921  14.654 -0.0452 -0.0695 -0.9760
 4094TIP3    H133697   2.773   4.964  14.731 -0.6979 -1.1382 -0.0506
 4094TIP3    H233698   2.667   4.980  14.625  0.5685  0.6154 -1.1117
 4095TIP3   OH233699   0.427   4.370  13.013  0.4401 -0.4793  0.4009
 4095TIP3    H133700   0.423   4.342  13.104 -1.6197 -1.6188  0.0316
 4095TIP3    H233701   0.358   4.436  13.004  0.3125 -0.7068 -0.4207
 4096TIP3   OH233702   0.693   5.905   1.358 -0.0691  0.3710 -0.2162
 4096TIP3    H133703   0.728   5.992   1.341 -1.8946  1.6338  1.9991
 4096TIP3    H233704   0.618   5.897   1.299 -0.7427  0.9028  0.5517
 4097TIP3   OH233705   0.505   2.424   4.578  0.1737  0.4844 -0.1586
 4097TIP3    H133706   0.444   2.354   4.554 -0.4927  0.5568  1.2626
 4097TIP3    H233707   0.590   2.380   4.584 -0.5017 -0.6592  2.4907
 4098TIP3   OH233708   1.693   1.188  16.982 -0.0825 -0.0681 -0.1052
 4098TIP3    H133709   1.646   1.108  17.003 -0.2678  0.2322  0.6762
 4098TIP3    H233710   1.773   1.184  17.035  0.4538 -0.2622 -0.9170
 4099TIP3   OH233711   4.984   3.950   5.619 -0.1909  0.2782  0.5133
 4099TIP3    H133712   4.895   3.913   5.615 -0.0693 -0.3219  2.2973
 4099TIP3    H233713   5.001   3.980   5.530 -0.7757 -2.8662 -0.8059
 4100TIP3   OH233714   0.047   0.427  15.103  0.6175  0.3916 -0.7457
 4100TIP3    H133715  -0.047   0.408  15.105  0.7328 -0.2299  1.8033
 4100TIP3    H233716   0.089   0.342  15.095  0.9847  0.4783  0.2071
 4101TIP3   OH233717   1.638   0.086   2.320 -0.0816  0.0498  0.0422
 4101TIP3    H133718   1.663   0.023   2.388 -2.0488 -0.9522 -0.0911
 4101TIP3    H233719   1.567   0.136   2.358  1.0965  1.8923 -0.0625
 4102TIP3   OH233720   1.940   2.217  13.019  0.2280 -0.0938  0.1131
 4102TIP3    H133721   2.004   2.148  13.039  1.9499  1.3060 -0.2238
 4102TIP3    H233722   1.896   2.234  13.102 -0.9092 -2.1964 -0.0040
 4103TIP3   OH233723   0.689   3.627   1.693 -0.4326  0.2436  0.0516
 4103TIP3    H133724   0.673   3.534   1.677  0.8624 -0.0098  0.1702
 4103TIP3    H233725   0.707   3.664   1.607  2.7009 -0.3700  0.3364
 4104TIP3   OH233726   2.706   3.912   6.759  0.0737  0.1852 -0.7452
 4104TIP3    H133727   2.724   3.970   6.684 -2.4808 -1.2189 -2.6317
 4104TIP3    H233728   2.622   3.944   6.793 -0.7704 -1.5898 -1.0633
 4105TIP3   OH233729   2.989   6.570  15.272  0.4295  0.2288  0.1904
 4105TIP3    H133730   2.947   6.494  15.312  0.7055 -0.6367 -1.0906
 4105TIP3    H233731   2.944   6.581  15.188  0.8847  1.0422  0.0423
 4106TIP3   OH233732   4.620   1.435   3.657  0.6084  0.1853  0.0961
 4106TIP3    H133733   4.541   1.439   3.711 -0.6766 -0.6838 -1.6383
 4106TIP3    H233734   4.588   1.416   3.569  2.7238  0.4426 -0.7763
 4107TIP3   OH233735   2.509   0.482  11.919  0.0338 -0.4520  0.0169
 4107TIP3    H133736   2.557   0.407  11.954 -2.0593 -1.9439 -0.1502
 4107TIP3    H233737   2.427   0.483  11.969 -0.5230  0.9500 -0.8714
 4108TIP3   OH233738   5.507   5.808  17.209 -0.2243  0.0813  0.3850
 4108TIP3    H133739   5.429   5.861  17.195 -0.8972 -1.1275 -0.6261
 4108TIP3    H233740   5.477   5.718  17.200  1.2752 -0.4116  0.0256
 4109TIP3   OH233741   6.188   0.453   1.389 -0.0410 -0.3593 -0.4986
 4109TIP3    H133742   6.103   0.413   1.371 -0.1621 -0.0838 -0.5329
 4109TIP3    H233743   6.169   0.526   1.447  0.0707  0.2215 -1.1764
 4110TIP3   OH233744   0.933   0.770   4.415  0.4850 -0.2967  0.2963
 4110TIP3    H133745   1.023   0.795   4.396  0.3350 -1.3973 -2.3250
 4110TIP3    H233746   0.880   0.828   4.360 -0.3220 -0.6068  0.7298
 4111TIP3   OH233747   2.655   1.099   6.816  0.4891  0.3072 -0.2081
 4111TIP3    H133748   2.718   1.158   6.856 -0.6029  1.2584  0.1771
 4111TIP3    H233749   2.608   1.153   6.752 -0.0441 -0.3300 -0.3754
 4112TIP3   OH233750   4.670   5.765  17.151  0.0998 -0.7437 -0.0586
 4112TIP3    H133751   4.684   5.859  17.165 -0.8973 -0.5782 -0.1465
 4112TIP3    H233752   4.746   5.737  17.099  0.9475 -0.2093  0.8545
 4113TIP3   OH233753   2.789   2.375   4.842 -0.3766 -0.2618  0.4881
 4113TIP3    H133754   2.853   2.362   4.772 -1.1558 -1.8388  0.0228
 4113TIP3    H233755   2.727   2.303   4.832 -2.7616  1.6923  0.3874
 4114TIP3   OH233756   1.925   4.298  14.474  0.6562 -0.7423 -0.6574
 4114TIP3    H133757   1.946   4.261  14.388  1.1902 -1.4899 -0.2121
 4114TIP3    H233758   2.006   4.342  14.501 -0.0912  1.1647 -1.3649
 4115TIP3   OH233759   5.807   4.701   0.561 -0.0862  0.2827  0.2406
 4115TIP3    H133760   5.875   4.713   0.627  0.8839  0.8836 -0.8348
 4115TIP3    H233761   5.725   4.711   0.609  0.5999  2.0421  1.1312
 4116TIP3   OH233762   2.094   3.061   4.716 -0.1458  0.0528 -0.0418
 4116TIP3    H133763   2.039   3.001   4.666 -0.2914  0.0420  0.1336
 4116TIP3    H233764   2.184   3.039   4.690 -0.2313  0.1936 -0.4663
 4117TIP3   OH233765   5.614   3.444  16.654  0.2585 -0.5617 -0.0091
 4117TIP3    H133766   5.545   3.454  16.719 -1.0711 -0.7860 -1.3445
 4117TIP3    H233767   5.695   3.443  16.705 -0.7709 -1.2276  1.6877
 4118TIP3   OH233768   2.167   1.306   5.528 -0.3451 -0.7188  0.5659
 4118TIP3    H133769   2.185   1.230   5.585 -0.6609 -0.8025  0.5573
 4118TIP3    H233770   2.086   1.342   5.563 -0.2569 -0.4534  0.4940
 4119TIP3   OH233771   0.340   1.410   0.010  0.8487  0.2906 -0.1397
 4119TIP3    H133772   0.298   1.333  -0.028 -1.2496  1.1792  0.2214
 4119TIP3    H233773   0.353   1.469  -0.064 -0.8314  0.9608  0.0353
 4120TIP3   OH233774   0.561   2.808  13.043 -0.3785 -0.3582 -0.2261
 4120TIP3    H133775   0.586   2.899  13.028  1.0732 -0.7378 -0.2419
 4120TIP3    H233776   0.520   2.780  12.961 -2.0992  0.6541  0.2349
 4121TIP3   OH233777   4.185   4.371   4.124 -0.0592  0.5039 -0.2156
 4121TIP3    H133778   4.230   4.342   4.204  1.0490  0.5635 -0.7903
 4121TIP3    H233779   4.129   4.297   4.101  2.2983 -1.0950 -1.3318
 4122TIP3   OH233780   1.843   3.222   1.679 -0.1744 -0.2346  0.5743
 4122TIP3    H133781   1.757   3.191   1.652  0.3761 -0.3358 -1.1658
 4122TIP3    H233782   1.829   3.260   1.766 -2.0136  0.0476  0.1830
 4123TIP3   OH233783   4.201   0.198   1.229  0.0308  0.1091  0.2166
 4123TIP3    H133784   4.106   0.189   1.219  0.1035  0.9542 -1.4353
 4123TIP3    H233785   4.212   0.257   1.304 -0.7374  0.0420  0.3917
 4124TIP3   OH233786   5.393   4.762   5.766 -0.4429  0.1683  0.3414
 4124TIP3    H133787   5.370   4.800   5.851  1.8098 -1.6437  1.8927
 4124TIP3    H233788   5.360   4.672   5.770  2.1519 -0.8620  0.5824
 4125TIP3   OH233789   0.550   1.008  16.040  0.1251 -0.2214 -0.2819
 4125TIP3    H133790   0.551   0.926  16.090 -0.7334  0.7455  1.4276
 4125TIP3    H233791   0.531   0.981  15.950 -0.1220 -1.8913  0.2266
 4126TIP3   OH233792   6.719   4.554   1.546 -0.8139 -0.6321  0.2944
 4126TIP3    H133793   6.715   4.597   1.461  0.0175  1.5150  1.2802
 4126TIP3    H233794   6.789   4.599   1.593 -1.3977 -1.6053  2.2022
 4127TIP3   OH233795   0.201   5.953  11.527  0.1274  0.2337 -0.5205
 4127TIP3    H133796   0.275   5.998  11.488 -1.1531  0.8998 -2.3011
 4127TIP3    H233797   0.221   5.860  11.517  0.8169  0.4036 -0.7555
 4128TIP3   OH233798   1.792   4.906  16.937  0.4441  0.0537 -0.3669
 4128TIP3    H133799   1.734   4.830  16.940  0.7777 -0.1881 -0.0563
 4128TIP3    H233800   1.853   4.887  16.866  0.0998  0.3460 -0.7505
 4129TIP3   OH233801   0.915   2.622  16.208  0.7327 -0.7206  0.3922
 4129TIP3    H133802   0.982   2.562  16.241  0.7865  0.3391  2.3732
 4129TIP3    H233803   0.893   2.677  16.283  0.4143  1.5032 -1.2386
 4130TIP3   OH233804   5.928   6.023  12.619 -0.2662 -0.2105 -0.1530
 4130TIP3    H133805   5.943   5.934  12.651 -1.4715 -0.5013 -0.3516
 4130TIP3    H233806   6.009   6.047  12.575  0.0469 -1.2429 -0.1547
 4131TIP3   OH233807   3.901   4.083  11.255  0.7574  0.3568  0.0658
 4131TIP3    H133808   3.898   4.070  11.160  0.1576  1.1633 -0.0367
 4131TIP3    H233809   3.945   4.005  11.289  0.7605 -0.0479 -0.8538
 4132TIP3   OH233810   5.170   4.742  17.280  0.6636 -0.3908 -0.3097
 4132TIP3    H133811   5.125   4.658  17.267  1.1997 -0.7719  0.2064
 4132TIP3    H233812   5.229   4.725  17.354  1.3810  0.2033 -0.7436
 4133TIP3   OH233813   2.129   2.424   0.136 -0.5822  0.3252 -0.4184
 4133TIP3    H133814   2.130   2.331   0.157  2.9503  0.5638  1.2752
 4133TIP3    H233815   2.067   2.463   0.198 -1.3928 -0.7548 -0.5324
 4134TIP3   OH233816   3.557   0.928   5.789 -0.4850 -0.8111 -0.0190
 4134TIP3    H133817   3.626   0.995   5.784 -1.9153  0.8178  0.8663
 4134TIP3    H233818   3.604   0.845   5.783  1.1823  0.1666 -3.7488
 4135TIP3   OH233819   5.227   3.189   1.818  0.1327 -0.2198 -0.0649
 4135TIP3    H133820   5.205   3.212   1.727  2.1697  0.7657 -0.3821
 4135TIP3    H233821   5.303   3.131   1.809 -1.0037 -1.9511  0.9808
 4136TIP3   OH233822   2.985   0.570  11.888  0.1660 -0.0867 -0.2912
 4136TIP3    H133823   2.937   0.521  11.956  0.3145  0.1646 -0.0012
 4136TIP3    H233824   3.072   0.583  11.925 -0.5559  2.5468  0.7363
 4137TIP3   OH233825   3.770   6.584   2.419  0.8254  0.2688 -0.4611
 4137TIP3    H133826   3.838   6.536   2.371 -0.5206  0.9127 -3.1563
 4137TIP3    H233827   3.722   6.632   2.353 -0.9753  1.5168  1.6039
 4138TIP3   OH233828   0.512   4.672   5.949  0.3195  0.1373 -0.6791
 4138TIP3    H133829   0.534   4.579   5.948 -0.2317 -0.0271  0.5526
 4138TIP3    H233830   0.423   4.675   5.984  0.1983  1.1145 -1.0334
 4139TIP3   OH233831   2.765   2.241  10.606 -0.7768 -0.3148 -0.2799
 4139TIP3    H133832   2.671   2.229  10.622 -1.0493  0.4051 -1.2548
 4139TIP3    H233833   2.771   2.254  10.511 -0.0001  2.3576  0.0568
 4140TIP3   OH233834   0.133   3.444  12.888  0.0530 -0.5781  0.7586
 4140TIP3    H133835   0.224   3.457  12.914 -0.0186 -1.7170  1.6410
 4140TIP3    H233836   0.108   3.527  12.847  0.7189  0.6896  2.7767
 4141TIP3   OH233837   2.740   3.656  12.497 -0.3701 -0.3187  0.2946
 4141TIP3    H133838   2.703   3.618  12.576  0.8467 -0.1921  0.9553
 4141TIP3    H233839   2.685   3.732  12.478  0.0204  0.3617  1.7316
 4142TIP3   OH233840   0.645   3.767   1.426  0.0266 -0.3256 -0.1685
 4142TIP3    H133841   0.552   3.748   1.420  0.0609 -1.6847  2.2995
 4142TIP3    H233842   0.656   3.848   1.377 -2.2800 -0.5787 -1.2342
 4143TIP3   OH233843   3.837   3.904  14.140  0.2522  0.0020  0.1855
 4143TIP3    H133844   3.906   3.971  14.140 -0.0160  0.3354 -1.8224
 4143TIP3    H233845   3.779   3.929  14.212 -0.0706  2.2184 -0.7660
 4144TIP3   OH233846   3.009   3.762   4.766 -0.7113 -0.1717 -0.0773
 4144TIP3    H133847   3.038   3.812   4.842 -1.8676  0.4061  0.0031
 4144TIP3    H233848   2.990   3.828   4.699 -0.8115 -0.5968 -0.4740
 4145TIP3   OH233849   5.458   3.293  14.165 -0.0479 -0.3187 -0.4351
 4145TIP3    H133850   5.436   3.386  14.162  1.0368 -0.0460 -0.3667
 4145TIP3    H233851   5.431   3.259  14.080  0.9383  0.4052 -1.0581
 4146TIP3   OH233852   2.088   0.616   4.435 -0.1715 -0.1157  0.4508
 4146TIP3    H133853   2.030   0.569   4.376  0.5534 -0.3332 -0.1011
 4146TIP3    H233854   2.036   0.690   4.466 -1.2052 -1.0573  1.0533
 4147TIP3   OH233855   6.299   3.094   4.852 -0.3644 -0.7337 -0.1200
 4147TIP3    H133856   6.327   3.181   4.879 -2.4242 -0.3536  1.0120
 4147TIP3    H233857   6.245   3.062   4.926 -3.1926 -1.1745 -2.1981
 4148TIP3   OH233858   1.320   0.089   3.877 -0.6687  1.0518  0.7129
 4148TIP3    H133859   1.373   0.016   3.909  0.4150  0.7207 -1.6228
 4148TIP3    H233860   1.231   0.069   3.906 -0.3523 -1.1048  0.3332
 4149TIP3   OH233861   5.705   5.176  13.238 -0.9098  0.2258  0.0853
 4149TIP3    H133862   5.661   5.104  13.193  1.5810 -1.6740  0.4171
 4149TIP3    H233863   5.655   5.189  13.319 -0.7224 -2.0898  0.6368
 4150TIP3   OH233864   4.485   0.606   0.764  0.0380  0.3916 -0.4164
 4150TIP3    H133865   4.497   0.566   0.850  0.7140 -0.3033 -0.8210
 4150TIP3    H233866   4.571   0.601   0.723 -0.4045  0.1910 -1.3505
 4151TIP3   OH233867   2.176   6.295   5.798 -0.0308 -0.2460  0.2449
 4151TIP3    H133868   2.269   6.314   5.788 -0.0717 -0.6836 -1.2767
 4151TIP3    H233869   2.173   6.213   5.849  0.6732 -2.6289 -3.1922
 4152TIP3   OH233870   2.458   6.141  13.599  0.1474  0.2244 -0.1254
 4152TIP3    H133871   2.504   6.057  13.588 -1.1276 -0.4081 -0.9245
 4152TIP3    H233872   2.389   6.139  13.533  0.0884  1.9290 -0.1559
 4153TIP3   OH233873   0.059   1.412   0.784 -0.5478 -0.3053 -0.5993
 4153TIP3    H133874   0.002   1.359   0.728  2.0462 -2.6023 -1.2996
 4153TIP3    H233875   0.059   1.365   0.868 -0.4495  0.2520 -0.2835
 4154TIP3   OH233876   3.335   3.848   5.537  0.1524 -0.0823 -0.0069
 4154TIP3    H133877   3.306   3.928   5.582  0.5513 -0.6389  1.2928
 4154TIP3    H233878   3.260   3.789   5.543 -0.2741  0.3094 -1.2942
 4155TIP3   OH233879   3.469   6.034  12.024 -0.1802 -0.5204 -0.4384
 4155TIP3    H133880   3.418   6.035  12.105  2.2129  2.5876  1.2086
 4155TIP3    H233881   3.475   6.126  11.998  0.8617 -1.2432 -3.0619
 4156TIP3   OH233882   0.191   2.004   0.622 -0.2505 -0.9519 -0.0896
 4156TIP3    H133883   0.156   1.915   0.612 -2.8009 -0.0495  0.1799
 4156TIP3    H233884   0.156   2.034   0.706  3.0469 -0.6802  1.3703
 4157TIP3   OH233885   3.405   2.302  16.846  0.8845 -0.3196 -0.0486
 4157TIP3    H133886   3.338   2.255  16.797 -1.0516  1.0680  1.1226
 4157TIP3    H233887   3.477   2.239  16.855 -1.3863 -2.9889  1.1040
 4158TIP3   OH233888   2.287   2.759   4.865 -0.0125  0.0208 -0.2517
 4158TIP3    H133889   2.344   2.778   4.939 -1.1281  2.5498  0.0482
 4158TIP3    H233890   2.319   2.815   4.795 -0.4543 -0.5668 -0.9400
 4159TIP3   OH233891   5.550   2.020  15.842  0.0472  0.0218 -0.0080
 4159TIP3    H133892   5.490   2.079  15.888 -0.6353 -1.2437  0.7629
 4159TIP3    H233893   5.499   1.940  15.827  1.1176 -0.5785 -0.5558
 4160TIP3   OH233894   0.134   2.165   2.665 -0.3509 -0.2785  0.2768
 4160TIP3    H133895   0.200   2.102   2.693 -0.1067 -0.6424 -1.0575
 4160TIP3    H233896   0.175   2.250   2.677  1.4086 -0.5360 -2.8517
 4161TIP3   OH233897   3.805   4.202  11.881 -0.1686  0.2192 -0.5675
 4161TIP3    H133898   3.769   4.114  11.897  0.0088  0.5444  2.1581
 4161TIP3    H233899   3.889   4.201  11.928  0.8221  1.2337 -2.2345
 4162TIP3   OH233900   1.858   5.627   5.077 -0.5703  0.4130  0.0598
 4162TIP3    H133901   1.773   5.589   5.056 -0.9551  0.6114  1.2122
 4162TIP3    H233902   1.877   5.685   5.003 -1.5468  0.5416 -0.1032
 4163TIP3   OH233903   2.746   3.143  15.072  0.4039  0.3017 -0.4583
 4163TIP3    H133904   2.797   3.223  15.085  0.3035  0.1635  0.9645
 4163TIP3    H233905   2.786   3.079  15.130 -0.4995 -0.2229 -0.3836
 4164TIP3   OH233906   4.057   3.428  12.037 -0.0420 -0.2408 -0.1650
 4164TIP3    H133907   4.095   3.480  11.966 -0.8205 -0.4853 -0.7747
 4164TIP3    H233908   4.131   3.403  12.091  0.4954  0.4301 -0.5777
 4165TIP3   OH233909   4.586   1.332  13.109  0.2911  0.5604  0.5293
 4165TIP3    H133910   4.538   1.252  13.086 -2.7309  2.1695  0.7067
 4165TIP3    H233911   4.662   1.301  13.159 -0.0441 -2.2290 -0.5087
 4166TIP3   OH233912   4.599   2.335  14.187 -0.2294  0.4321 -0.4223
 4166TIP3    H133913   4.693   2.343  14.173 -0.2778  2.9979  0.1363
 4166TIP3    H233914   4.591   2.299  14.276  0.1915 -0.2618 -0.6547
 4167TIP3   OH233915   0.576   0.040   1.072  0.5190  0.2841 -0.2918
 4167TIP3    H133916   0.634   0.010   1.002 -0.6152 -1.5419 -0.5150
 4167TIP3    H233917   0.582  -0.028   1.139 -0.4994  0.6434  0.1783
 4168TIP3   OH233918   3.026   6.006  11.203  0.3098  0.2518  0.2903
 4168TIP3    H133919   2.979   6.015  11.286 -0.1639 -0.5024  0.1216
 4168TIP3    H233920   3.086   6.080  11.201  1.3686 -0.4986  1.9718
 4169TIP3   OH233921   6.010   3.881  14.786 -0.6019  0.4973  0.2392
 4169TIP3    H133922   6.037   3.812  14.725  0.9387  1.1535  0.1285
 4169TIP3    H233923   5.954   3.836  14.849  0.0396 -0.7881 -0.0629
 4170TIP3   OH233924   4.389   1.262  17.120  0.6249 -0.2006  0.6483
 4170TIP3    H133925   4.305   1.264  17.166  0.1342 -0.4683 -0.2035
 4170TIP3    H233926   4.440   1.332  17.160 -0.1016  0.1382  1.0042
 4171TIP3   OH233927   5.630   6.557  13.330 -0.7457 -0.3970 -0.2449
 4171TIP3    H133928   5.690   6.622  13.368 -1.6827 -0.0021  0.5868
 4171TIP3    H233929   5.576   6.607  13.269 -1.7311 -0.2929  0.6825
 4172TIP3   OH233930   4.202   0.114   4.857 -0.2328 -1.0349 -0.3333
 4172TIP3    H133931   4.279   0.119   4.801  0.0225  0.0213  0.0920
 4172TIP3    H233932   4.222   0.172   4.931 -0.7009 -2.1212  0.6833
 4173TIP3   OH233933   5.749   1.527  13.990 -0.0129  0.5431  0.2491
 4173TIP3    H133934   5.664   1.501  13.955 -0.4304  1.8379  0.2522
 4173TIP3    H233935   5.811   1.470  13.945 -0.7649  0.5024 -0.7756
 4174TIP3   OH233936   6.239   6.732   0.557  0.1343  0.8887  0.2726
 4174TIP3    H133937   6.327   6.704   0.584 -0.8816 -1.1041  1.8215
 4174TIP3    H233938   6.220   6.680   0.479 -0.6363 -0.8124  1.5054
 4175TIP3   OH233939   5.698   3.355  12.144  0.4165  0.1291  0.2434
 4175TIP3    H133940   5.692   3.325  12.053 -0.9081 -1.8124  0.9017
 4175TIP3    H233941   5.645   3.434  12.147 -1.1999 -0.8863 -0.2922
 4176TIP3   OH233942   2.123   6.723   0.738  0.0852  0.0491 -0.2053
 4176TIP3    H133943   2.077   6.779   0.801  0.8698 -0.1743  0.5954
 4176TIP3    H233944   2.202   6.772   0.716  0.6114 -0.5765  0.2395
 4177TIP3   OH233945   6.319   6.144  16.732 -0.2866  0.2940 -0.1962
 4177TIP3    H133946   6.370   6.202  16.789  1.0435 -1.4009  0.4091
 4177TIP3    H233947   6.383   6.108  16.670 -1.2129  0.0048 -1.0075
 4178TIP3   OH233948   3.735   4.144  15.651  0.4079 -0.8600  0.2545
 4178TIP3    H133949   3.723   4.122  15.558  0.7257 -0.4343  0.1062
 4178TIP3    H233950   3.688   4.227  15.662  0.3265 -0.9385  0.4864
 4179TIP3   OH233951   6.626   0.114   3.132  0.2427  0.4548  0.1134
 4179TIP3    H133952   6.667   0.089   3.214  1.7155  0.3677 -0.6157
 4179TIP3    H233953   6.552   0.053   3.123  1.9430 -1.7258 -0.1466
 4180TIP3   OH233954   4.940   0.973   1.997  0.0880 -0.3683 -0.1125
 4180TIP3    H133955   4.943   1.051   2.052 -0.4735 -0.0708 -0.4981
 4180TIP3    H233956   4.958   0.901   2.057  0.3346  0.0323  0.2997
 4181TIP3   OH233957   5.047   2.189   3.794  0.5518 -0.2453 -0.0164
 4181TIP3    H133958   4.969   2.226   3.753  1.4481 -0.2056 -1.7688
 4181TIP3    H233959   5.117   2.204   3.730  1.7664 -1.2748  1.0284
 4182TIP3   OH233960   4.077   2.394  11.991  0.3002 -0.5215  0.0587
 4182TIP3    H133961   4.014   2.331  12.026 -0.1441 -0.6116 -0.8667
 4182TIP3    H233962   4.129   2.343  11.929 -0.2806  0.0735 -0.9516
 4183TIP3   OH233963   3.002   2.845  12.507 -0.3060  0.2238  0.2958
 4183TIP3    H133964   3.063   2.773  12.523 -0.9021 -0.0153  1.6110
 4183TIP3    H233965   3.003   2.896  12.589  0.9949  2.4276 -0.9780
 4184TIP3   OH233966   1.583   5.621  11.246 -0.5396  0.5561  0.3644
 4184TIP3    H133967   1.523   5.677  11.195  1.3631  0.9568 -1.5823
 4184TIP3    H233968   1.665   5.624  11.197  1.4082  0.8036  3.4337
 4185TIP3   OH233969   1.904   1.109   0.804 -0.3985 -0.2418 -0.1629
 4185TIP3    H133970   1.962   1.106   0.728 -0.3750 -2.1990 -0.1060
 4185TIP3    H233971   1.818   1.134   0.768  0.1166  1.2278 -0.4487
 4186TIP3   OH233972   2.129   6.540  11.992  0.2050 -0.4619  0.5706
 4186TIP3    H133973   2.223   6.524  11.990  0.2130 -0.7153  1.8713
 4186TIP3    H233974   2.091   6.458  12.022 -0.5461 -0.7023 -0.9476
 4187TIP3   OH233975   1.132   5.512  14.507  0.2082  0.1942  0.5744
 4187TIP3    H133976   1.086   5.581  14.554 -1.3384  0.0934 -0.7060
 4187TIP3    H233977   1.184   5.558  14.442  0.9786  0.2385  1.2006
 4188TIP3   OH233978   5.954   1.372   0.944 -0.3180  0.0168 -0.0404
 4188TIP3    H133979   6.005   1.352   1.022 -0.6785 -1.8046 -0.2187
 4188TIP3    H233980   5.863   1.364   0.971 -0.5291  2.0695 -0.0165
 4189TIP3   OH233981   1.428   5.137  10.963 -0.6197 -1.0671  0.1186
 4189TIP3    H133982   1.516   5.104  10.946 -0.8601 -1.2547 -0.8020
 4189TIP3    H233983   1.436   5.232  10.951 -0.7602 -1.1811 -1.0409
 4190TIP3   OH233984   1.812   5.536   2.474  0.4981 -0.5481 -0.9412
 4190TIP3    H133985   1.825   5.456   2.526 -2.0497 -1.2428 -1.2327
 4190TIP3    H233986   1.896   5.550   2.430  0.9546 -3.2354 -1.0848
 4191TIP3   OH233987   0.068   6.427  11.538  0.3604  0.6725  0.0635
 4191TIP3    H133988   0.124   6.401  11.465 -0.1137  1.9408 -0.7900
 4191TIP3    H233989   0.103   6.380  11.613  1.0821 -0.3933 -0.9089
 4192TIP3   OH233990   4.824   3.088  15.730  1.0710 -0.1727 -0.2088
 4192TIP3    H133991   4.847   3.116  15.641  0.3207 -0.9370 -0.6552
 4192TIP3    H233992   4.762   3.016  15.717 -0.0302  0.5322  0.9295
 4193TIP3   OH233993   2.819   2.272   3.120 -0.2130 -0.4299 -0.0530
 4193TIP3    H133994   2.792   2.186   3.087 -0.8055 -0.3880  0.3191
 4193TIP3    H233995   2.747   2.301   3.175 -0.2393  0.5337 -0.5750
 4194TIP3   OH233996   0.397   6.182   1.993 -0.4106  0.1842 -0.3578
 4194TIP3    H133997   0.460   6.136   1.937 -0.5854 -1.9301  1.0581
 4194TIP3    H233998   0.435   6.177   2.081 -1.1064  1.6277  0.0616
 4195TIP3   OH233999   6.152   3.732   5.900 -0.5425 -0.7805 -0.0493
 4195TIP3    H134000   6.192   3.713   5.985  1.1538 -3.4708 -1.2867
 4195TIP3    H234001   6.223   3.716   5.837 -1.7957  0.9499 -2.0095
 4196TIP3   OH234002   0.527   2.970   0.570  0.2952  0.1042 -1.1793
 4196TIP3    H134003   0.605   3.025   0.567 -1.0770  2.2124 -0.5828
 4196TIP3    H234004   0.461   3.021   0.522 -1.2597 -0.6600  0.0761
 4197TIP3   OH234005   4.463   2.277   0.086  0.6577 -0.0982 -0.1701
 4197TIP3    H134006   4.509   2.356   0.058  0.4015 -0.0328 -0.4036
 4197TIP3    H234007   4.517   2.242   0.157  0.9331  0.1191 -0.2706
 4198TIP3   OH234008   3.135   4.516   2.078 -0.1906 -0.3712 -0.1138
 4198TIP3    H134009   3.168   4.504   1.989  2.8707  0.3353  0.8018
 4198TIP3    H234010   3.155   4.607   2.100 -0.8782 -0.5240  1.3027
 4199TIP3   OH234011   5.565   3.279   1.492  0.6975  0.5453 -0.3513
 4199TIP3    H134012   5.621   3.240   1.425  0.3805 -0.7032  0.0875
 4199TIP3    H234013   5.508   3.208   1.520 -0.3443  1.4974  0.0226
 4200TIP3   OH234014   0.259   2.795  16.798  0.3412 -0.1719  0.1191
 4200TIP3    H134015   0.189   2.846  16.758  2.2445  1.1714 -1.7311
 4200TIP3    H234016   0.305   2.756  16.724  2.4629  0.2816  1.1278
 4201TIP3   OH234017   2.099   4.207  12.219  0.7177 -0.1997 -0.6686
 4201TIP3    H134018   2.131   4.175  12.134 -0.9462 -0.0126 -1.4156
 4201TIP3    H234019   2.037   4.140  12.248  0.8472  0.0198  0.1322
 4202TIP3   OH234020   6.624   3.286  14.884 -0.2309  0.5797 -0.0307
 4202TIP3    H134021   6.658   3.253  14.967  0.4340 -2.2880 -1.3342
 4202TIP3    H234022   6.681   3.359  14.861  0.6198  0.3245  1.2152
 4203TIP3   OH234023   5.351   6.691  10.861  0.3365 -0.5432  0.0681
 4203TIP3    H134024   5.303   6.626  10.913  0.7421 -0.8841  0.0239
 4203TIP3    H234025   5.394   6.639  10.793 -0.0682 -0.1155 -0.5144
 4204TIP3   OH234026   5.277   1.528  15.694  0.8330 -1.0736 -0.4809
 4204TIP3    H134027   5.338   1.472  15.645  1.4885 -0.9149  0.1415
 4204TIP3    H234028   5.302   1.516  15.786  0.6562 -0.1493 -0.3023
 4205TIP3   OH234029   1.811   2.693   0.491 -0.4087  0.1830 -0.2190
 4205TIP3    H134030   1.738   2.708   0.550 -1.0629  0.6844 -1.1344
 4205TIP3    H234031   1.874   2.762   0.513 -0.7193  0.4668 -0.2105
 4206TIP3   OH234032   2.962   6.374   3.885  0.0567  0.2680 -0.3776
 4206TIP3    H134033   2.942   6.449   3.941  0.6513  1.5818 -1.8233
 4206TIP3    H234034   2.952   6.409   3.796 -0.1272 -1.5276 -1.0938
 4207TIP3   OH234035   4.337   4.901   0.744 -0.1661  0.4488  0.5819
 4207TIP3    H134036   4.400   4.830   0.755 -0.7074  0.0289  0.9590
 4207TIP3    H234037   4.322   4.905   0.650 -0.1412  0.0624  0.5597
 4208TIP3   OH234038   4.018   6.646  12.183  0.2140  0.9256  0.1558
 4208TIP3    H134039   3.991   6.639  12.274  1.9933 -0.7710  0.5969
 4208TIP3    H234040   4.083   6.578  12.171  1.2407  2.1680 -1.9576
 4209TIP3   OH234041   1.046   4.551   4.266 -0.0515 -0.0104  0.4415
 4209TIP3    H134042   1.047   4.463   4.230 -1.6867 -0.9935  2.6268
 4209TIP3    H234043   1.020   4.540   4.357 -0.8963  2.7829  0.6293
 4210TIP3   OH234044   4.738   2.064   1.426  0.1675  0.0641 -0.7113
 4210TIP3    H134045   4.758   2.062   1.519  0.4348  1.3755 -0.7217
 4210TIP3    H234046   4.645   2.083   1.422  0.2537  0.4991 -0.7074
 4211TIP3   OH234047   2.254   5.951  16.867 -0.7261 -0.2968 -0.2267
 4211TIP3    H134048   2.315   5.915  16.932  0.2002 -0.4515 -1.1444
 4211TIP3    H234049   2.237   5.878  16.808 -0.7427  0.1187 -0.7340
 4212TIP3   OH234050   0.809   1.646   2.658 -0.5247  0.2214  0.3062
 4212TIP3    H134051   0.811   1.579   2.589  1.8174 -0.6576  1.1373
 4212TIP3    H234052   0.723   1.686   2.649 -1.5465 -2.0576 -1.0299
 4213TIP3   OH234053   5.148   4.864   0.323  0.1822 -0.4720 -0.3675
 4213TIP3    H134054   5.077   4.927   0.310 -0.1115 -0.3283  1.6217
 4213TIP3    H234055   5.160   4.860   0.418  1.6412 -1.8339 -0.5597
 4214TIP3   OH234056   4.843   1.364   1.725 -0.2701  0.4012  0.0028
 4214TIP3    H134057   4.783   1.293   1.703  0.1848  0.1467 -0.4472
 4214TIP3    H234058   4.787   1.441   1.734 -0.7852 -0.0327  0.6184
 4215TIP3   OH234059   3.392   3.088  17.210  0.2221 -0.0956  0.3125
 4215TIP3    H134060   3.396   3.183  17.226  0.1984  0.0738 -0.6388
 4215TIP3    H234061   3.461   3.052  17.265  0.0305  0.4410  0.9184
 4216TIP3   OH234062   0.296   2.080   5.729 -0.1514  0.3065 -0.3513
 4216TIP3    H134063   0.206   2.078   5.761  0.1668  1.0824  0.6519
 4216TIP3    H234064   0.290   2.118   5.641 -0.9192 -0.7725 -0.7852
 4217TIP3   OH234065   4.746   3.778  12.525  0.7249  0.1930 -0.0237
 4217TIP3    H134066   4.816   3.741  12.472  0.4042  0.6325 -0.7713
 4217TIP3    H234067   4.740   3.869  12.497  0.3483  0.3525  0.5607
 4218TIP3   OH234068   5.840   0.865   3.972  0.2820  0.1706  0.8608
 4218TIP3    H134069   5.786   0.925   4.024  0.1000 -0.2128  1.1213
 4218TIP3    H234070   5.915   0.845   4.028  0.8839  0.9743  0.3639
 4219TIP3   OH234071   1.296   3.544  10.932 -0.1234 -0.1172  0.4542
 4219TIP3    H134072   1.206   3.514  10.942 -1.5810  3.4522 -0.2286
 4219TIP3    H234073   1.292   3.610  10.862  3.0201  0.2753  0.4817
 4220TIP3   OH234074   5.285   1.381  11.185  0.6279 -0.0287  0.4732
 4220TIP3    H134075   5.205   1.343  11.221 -0.8566  1.0616 -1.4829
 4220TIP3    H234076   5.310   1.449  11.248 -1.0982  0.8961  0.2125
 4221TIP3   OH234077   1.587   1.633   4.500 -0.2026 -0.6141 -0.3427
 4221TIP3    H134078   1.559   1.682   4.577  0.5378 -0.3922 -0.2101
 4221TIP3    H234079   1.521   1.652   4.433 -2.9207 -3.5565  1.2024
 4222TIP3   OH234080   5.952   0.949   1.347 -0.6545  0.2609  0.3185
 4222TIP3    H134081   5.936   1.001   1.426  0.2159 -2.5351  2.4823
 4222TIP3    H234082   6.017   1.001   1.299  0.6433  0.9934  2.6504
 4223TIP3   OH234083   3.160   2.040  14.406 -0.7029 -0.1035 -0.2780
 4223TIP3    H134084   3.126   2.128  14.423  2.0697  0.5591  2.8818
 4223TIP3    H234085   3.253   2.054  14.388  0.2238 -2.4252  2.1104
 4224TIP3   OH234086   3.347   6.518   2.905  0.4030 -0.0427 -0.2205
 4224TIP3    H134087   3.319   6.449   2.966  2.5486 -0.5337  0.3005
 4224TIP3    H234088   3.366   6.593   2.961  1.2604 -0.1216 -0.3851
 4225TIP3   OH234089   2.837   2.273  14.603  0.3109  0.8747 -0.0202
 4225TIP3    H134090   2.877   2.294  14.518 -1.7249  0.3882 -1.1802
 4225TIP3    H234091   2.878   2.190  14.628  0.5124  0.7149 -0.8399
 4226TIP3   OH234092   4.619   6.404   2.342  0.2268 -0.2371 -0.0750
 4226TIP3    H134093   4.712   6.388   2.326  0.3607  1.9212 -2.0175
 4226TIP3    H234094   4.583   6.423   2.255 -0.8499  4.1759  1.0900
 4227TIP3   OH234095   1.831   3.521   4.707  0.3359 -0.1588  0.8200
 4227TIP3    H134096   1.737   3.526   4.721 -0.6423  1.3012 -4.3552
 4227TIP3    H234097   1.864   3.607   4.735 -0.4875  0.4981 -0.1270
 4228TIP3   OH234098   3.476   4.363   0.672 -0.6300 -0.4369 -0.2246
 4228TIP3    H134099   3.404   4.311   0.710 -0.3404 -1.5856 -1.1622
 4228TIP3    H234100   3.510   4.307   0.603  0.9648  0.2377 -0.0134
 4229TIP3   OH234101   1.698   2.192  16.875  0.0165 -0.2625 -0.1469
 4229TIP3    H134102   1.717   2.158  16.787  0.9356  1.1424 -0.5165
 4229TIP3    H234103   1.703   2.287  16.866 -0.7554 -0.0644  1.2448
 4230TIP3   OH234104   5.356   3.214  13.926 -0.2641  0.2542  0.0080
 4230TIP3    H134105   5.289   3.262  13.877 -2.4611 -0.7497  1.8469
 4230TIP3    H234106   5.335   3.121  13.910  1.3328 -0.1232 -0.1298
 4231TIP3   OH234107   6.022   3.947  15.933  0.5068  0.0575 -0.0066
 4231TIP3    H134108   6.096   3.980  15.883  1.6285  1.2340  2.2422
 4231TIP3    H234109   5.971   4.026  15.954  0.6722 -0.2184  1.5475
 4232TIP3   OH234110   6.002   4.064   2.049 -0.5223 -0.5505 -0.3636
 4232TIP3    H134111   6.018   3.975   2.080 -2.0895 -1.4211 -1.8496
 4232TIP3    H234112   5.986   4.054   1.955  4.1868  1.9635 -1.7451
 4233TIP3   OH234113   0.227   0.181  10.706  0.4969  0.4579 -0.7609
 4233TIP3    H134114   0.292   0.251  10.712  0.2536  0.6057  0.4434
 4233TIP3    H234115   0.276   0.101  10.724  0.5078  0.4804 -0.6895
 4234TIP3   OH234116   2.573   0.203  12.933 -0.3254 -0.1138  0.2187
 4234TIP3    H134117   2.611   0.180  13.017 -0.7974  1.7849  0.9997
 4234TIP3    H234118   2.598   0.131  12.875  0.9114 -0.9382  1.7008
 4235TIP3   OH234119   6.648   0.255   5.359 -0.6306 -0.3617  0.5553
 4235TIP3    H134120   6.630   0.311   5.283  1.4722 -1.3660 -0.7912
 4235TIP3    H234121   6.694   0.312   5.420  0.0971 -0.1942 -0.1295
 4236TIP3   OH234122   1.553   2.535  12.471 -0.1985  0.7991 -0.2129
 4236TIP3    H134123   1.471   2.491  12.494 -0.1762  0.1118 -1.3875
 4236TIP3    H234124   1.622   2.477  12.504 -0.0679  2.5520  3.0736
 4237TIP3   OH234125   1.420   3.083   3.562 -0.1995  0.3979  0.6767
 4237TIP3    H134126   1.440   3.065   3.654 -1.3544  1.0371  1.0764
 4237TIP3    H234127   1.455   3.171   3.548  2.0936 -0.5879 -0.2024
 4238TIP3   OH234128   4.695   0.615  16.533 -0.1514 -0.1884 -0.0661
 4238TIP3    H134129   4.642   0.600  16.611  0.4413  4.0783  1.4640
 4238TIP3    H234130   4.785   0.601  16.562 -0.0723 -2.1774 -1.1293
 4239TIP3   OH234131   0.220   0.471  12.608  0.3214 -0.0481  0.1637
 4239TIP3    H134132   0.132   0.432  12.613  0.0631  0.4248 -0.6395
 4239TIP3    H234133   0.212   0.541  12.544  0.9870  0.8247  1.0154
 4240TIP3   OH234134   2.572   1.055   5.676 -0.2975  0.0651  0.3448
 4240TIP3    H134135   2.641   1.121   5.686  0.0641 -0.3052  0.2895
 4240TIP3    H234136   2.531   1.076   5.591  0.5958 -0.5008 -0.2422
 4241TIP3   OH234137   6.687   3.303   4.688 -0.0159  0.0362 -0.0435
 4241TIP3    H134138   6.700   3.229   4.747 -1.7180  1.0452  1.7268
 4241TIP3    H234139   6.635   3.365   4.739  2.7778  3.2848 -0.7234
 4242TIP3   OH234140   3.464   1.333  11.361  0.4945 -0.0729 -0.9870
 4242TIP3    H134141   3.476   1.380  11.444  1.9384 -0.0592 -1.1733
 4242TIP3    H234142   3.376   1.355  11.334  0.0754  0.1204  0.4278
 4243TIP3   OH234143   3.402   0.145  13.660  0.2778 -0.2975 -0.0075
 4243TIP3    H134144   3.314   0.127  13.629 -1.0436  2.9296  1.3512
 4243TIP3    H234145   3.404   0.240  13.673  3.1979 -0.5025  2.2237
 4244TIP3   OH234146   4.373   1.645  12.337 -0.0845 -0.2466 -0.8438
 4244TIP3    H134147   4.320   1.630  12.415  0.3700  1.5157 -0.1337
 4244TIP3    H234148   4.358   1.568  12.282  0.1240 -1.8952  1.2630
 4245TIP3   OH234149   3.418   0.905   0.987  0.3355 -0.6862 -0.0837
 4245TIP3    H134150   3.461   0.918   0.903 -1.4003  2.4059 -0.6242
 4245TIP3    H234151   3.325   0.896   0.965  0.0087 -1.4225  1.4355
 4246TIP3   OH234152   4.110   3.180  15.236 -0.0710  0.5211 -0.3469
 4246TIP3    H134153   4.203   3.198  15.231  0.3195 -1.3281 -0.4723
 4246TIP3    H234154   4.085   3.154  15.147 -0.8341  1.5139 -0.4401
 4247TIP3   OH234155   0.547   1.868   2.620  0.0720 -0.2638 -0.5754
 4247TIP3    H134156   0.487   1.899   2.552 -1.0543  0.8027  0.8493
 4247TIP3    H234157   0.543   1.934   2.688  3.0733 -0.0417 -0.4733
 4248TIP3   OH234158   3.521   5.603  13.082 -0.4670  0.0841 -0.6546
 4248TIP3    H134159   3.545   5.675  13.141  0.5910 -2.7368  2.7135
 4248TIP3    H234160   3.456   5.552  13.131 -2.4235 -0.4631 -3.5939
 4249TIP3   OH234161   0.210   1.947  16.391 -0.4031  0.5270 -0.1568
 4249TIP3    H134162   0.121   1.980  16.382 -0.5087  0.2379 -0.1888
 4249TIP3    H234163   0.258   2.018  16.434 -0.4276  1.0455 -0.9729
 4250TIP3   OH234164   4.554   5.901  11.482 -0.9570  0.3698  0.0389
 4250TIP3    H134165   4.570   5.992  11.458  1.1592 -0.0992 -0.5663
 4250TIP3    H234166   4.527   5.859  11.400  0.3328  0.0185 -0.2344
 4251TIP3   OH234167   4.365   0.357   0.571 -0.0302  0.2161 -0.7712
 4251TIP3    H134168   4.358   0.332   0.663 -0.9243  2.1754 -0.2439
 4251TIP3    H234169   4.295   0.310   0.527 -1.0049  0.9032 -0.0133
 4252TIP3   OH234170   5.141   5.483   1.022 -0.0348 -0.2676 -0.1326
 4252TIP3    H134171   5.099   5.482   1.108  0.1927 -0.2649 -0.0214
 4252TIP3    H234172   5.090   5.548   0.972 -0.3202 -0.4471 -0.0803
 4253TIP3   OH234173   3.895   1.053  15.473 -0.3157  0.2298  0.4706
 4253TIP3    H134174   3.866   1.022  15.559  0.9295  1.7521  1.5165
 4253TIP3    H234175   3.932   1.140  15.491 -2.3943  1.7542 -2.0415
 4254TIP3   OH234176   3.032   3.452   3.983 -0.2464 -0.7539 -0.1680
 4254TIP3    H134177   3.008   3.415   3.899 -1.2707 -1.7965  0.5565
 4254TIP3    H234178   3.117   3.414   4.004 -0.1301 -0.7222 -0.5838
 4255TIP3   OH234179   5.971   3.198   4.910  0.7444 -0.3986 -0.0630
 4255TIP3    H134180   5.965   3.135   4.837 -0.0674 -0.3496 -0.0448
 4255TIP3    H234181   6.026   3.154   4.975  0.8830 -0.7411 -0.4086
 4256TIP3   OH234182   2.628   1.973  15.717  0.0838  0.1870  0.2904
 4256TIP3    H134183   2.642   1.898  15.659 -1.6159  0.4600 -0.5393
 4256TIP3    H234184   2.541   1.958  15.754  0.6337  0.6501  1.8498
 4257TIP3   OH234185   4.974   0.652  14.386  0.4524 -0.1113  0.0910
 4257TIP3    H134186   5.008   0.672  14.299 -0.2194 -1.2091 -0.4425
 4257TIP3    H234187   4.901   0.712  14.398  2.0044  1.7246  0.9266
 4258TIP3   OH234188   5.410   2.152  17.064 -0.1843  0.1081 -0.7655
 4258TIP3    H134189   5.372   2.226  17.016 -0.2303  1.8095  1.6918
 4258TIP3    H234190   5.504   2.165  17.057 -0.1961  0.7570  0.1186
 4259TIP3   OH234191   5.845   3.846   2.547 -0.2153  0.0964 -0.1724
 4259TIP3    H134192   5.901   3.852   2.624 -0.3051  1.6306 -0.2075
 4259TIP3    H234193   5.889   3.900   2.481 -0.9935  0.1436 -0.6650
 4260TIP3   OH234194   5.918   5.111   1.878 -0.3437 -0.0471 -0.0619
 4260TIP3    H134195   5.853   5.099   1.948 -0.8276  0.3518 -0.4322
 4260TIP3    H234196   5.891   5.191   1.834  0.3038  0.0248 -0.3411
 4261TIP3   OH234197   1.441   5.749  15.777 -0.2817 -0.2232 -0.7355
 4261TIP3    H134198   1.511   5.800  15.737  0.1054 -0.2441 -0.1064
 4261TIP3    H234199   1.487   5.690  15.837 -0.8999  0.4674  0.4552
 4262TIP3   OH234200   2.251   5.710  13.368  0.0474  0.3769  0.5009
 4262TIP3    H134201   2.306   5.655  13.312  0.5201  0.2283  1.0973
 4262TIP3    H234202   2.190   5.649  13.409 -1.0568  0.6404 -0.7176
 4263TIP3   OH234203   4.961   1.660   2.906 -0.2810 -0.1975 -0.0563
 4263TIP3    H134204   4.867   1.658   2.926 -0.1276 -2.9306  0.6673
 4263TIP3    H234205   5.000   1.596   2.965  1.7317 -0.7204 -1.8273
 4264TIP3   OH234206   3.664   2.831   2.041 -0.3175 -0.0991  0.1428
 4264TIP3    H134207   3.705   2.910   2.076 -1.2188 -0.1896  1.4734
 4264TIP3    H234208   3.713   2.759   2.080 -1.5216 -0.2049  1.5441
 4265TIP3   OH234209   1.846   3.175   2.331  0.4318 -0.5323 -0.0834
 4265TIP3    H134210   1.772   3.197   2.388 -0.6882 -2.7644 -0.5516
 4265TIP3    H234211   1.921   3.219   2.371 -0.8690  0.5289  1.3170
 4266TIP3   OH234212   6.023   5.251  15.384  0.0972  0.1114  0.4137
 4266TIP3    H134213   5.998   5.231  15.475 -0.3331 -0.0874  0.2574
 4266TIP3    H234214   5.940   5.269  15.341  0.5210  4.7615  1.0720
 4267TIP3   OH234215   4.494   4.675  14.616 -0.2432  0.0751 -0.0942
 4267TIP3    H134216   4.586   4.651  14.613 -0.4475 -0.6895 -0.4992
 4267TIP3    H234217   4.449   4.595  14.644 -0.7853  0.4434  0.1117
 4268TIP3   OH234218   2.677   0.790   5.719 -0.4194  0.5172  0.6793
 4268TIP3    H134219   2.672   0.877   5.681 -0.3017 -0.0014 -0.5881
 4268TIP3    H234220   2.646   0.732   5.649  1.3417 -0.6213  0.7880
 4269TIP3   OH234221   6.492   3.438  10.719  0.0775 -0.0324 -0.0575
 4269TIP3    H134222   6.492   3.360  10.664 -0.5513 -1.5278  1.9310
 4269TIP3    H234223   6.553   3.418  10.790 -0.2863  1.1818  0.6284
 4270TIP3   OH234224   5.924   1.508  12.977  0.3119 -0.0244 -0.2845
 4270TIP3    H134225   5.946   1.423  13.017 -1.5024 -1.0138 -1.2364
 4270TIP3    H234226   5.829   1.514  12.988  0.4925  2.2456  0.3783
 4271TIP3   OH234227   4.971   4.894  14.817  0.1377  0.2165 -0.6596
 4271TIP3    H134228   5.009   4.825  14.763  0.4029  0.4381 -0.7596
 4271TIP3    H234229   5.012   4.882  14.903 -0.1144  0.0050 -0.5673
 4272TIP3   OH234230   2.204   1.787  11.538  0.0439 -0.0330  0.4091
 4272TIP3    H134231   2.283   1.784  11.592 -0.4574 -1.0629  1.1304
 4272TIP3    H234232   2.148   1.717  11.574 -1.2854  0.8218  0.0733
 4273TIP3   OH234233   0.167   5.126   4.580 -0.1050  0.1262 -0.0971
 4273TIP3    H134234   0.143   5.140   4.671  0.2918  0.1838 -0.0033
 4273TIP3    H234235   0.251   5.081   4.583  0.2855  0.8242 -0.4462
 4274TIP3   OH234236   5.139   6.481   5.980  0.3834 -0.3673  0.7782
 4274TIP3    H134237   5.141   6.569   6.017 -0.4242 -0.0356  0.0664
 4274TIP3    H234238   5.182   6.489   5.895 -0.4629 -0.4495  0.3232
 4275TIP3   OH234239   5.084   1.839   0.376 -0.0030 -0.5395  0.4242
 4275TIP3    H134240   5.077   1.889   0.295 -0.4481  0.2139  0.9196
 4275TIP3    H234241   5.152   1.774   0.358  1.5080  1.0336  0.1539
 4276TIP3   OH234242   1.316   4.811  16.200 -0.3283 -0.1516  0.0366
 4276TIP3    H134243   1.393   4.859  16.231  0.1232 -1.1644  0.5247
 4276TIP3    H234244   1.248   4.830  16.264 -0.4828  0.7216 -0.3778
 4277TIP3   OH234245   3.016   6.109  16.899 -0.1202  0.1782 -0.5707
 4277TIP3    H134246   3.070   6.187  16.903  0.4486 -0.2684  0.7706
 4277TIP3    H234247   2.935   6.133  16.944  0.2073 -0.1255  0.1783
 4278TIP3   OH234248   1.625   6.644  11.749 -0.3007  0.2294  0.3529
 4278TIP3    H134249   1.629   6.594  11.668  0.1435 -0.4172  0.7697
 4278TIP3    H234250   1.682   6.719  11.734 -0.7042  0.4476 -0.1464
 4279TIP3   OH234251   0.179   0.120   5.367  0.2437  0.3480 -0.6723
 4279TIP3    H134252   0.137   0.139   5.283  1.5145  0.3068 -1.3465
 4279TIP3    H234253   0.112   0.142   5.432 -1.1369 -0.6024 -1.7046
 4280TIP3   OH234254   3.697   5.027   2.290 -0.6432 -0.2307  0.4628
 4280TIP3    H134255   3.720   4.971   2.364  1.6245  0.3079  0.2302
 4280TIP3    H234256   3.734   5.113   2.312 -1.9863  0.5659 -0.2558
 4281TIP3   OH234257   1.372   6.053   4.357  0.1944 -0.1472 -0.4040
 4281TIP3    H134258   1.331   6.076   4.441  0.4253  1.0960 -0.6130
 4281TIP3    H234259   1.300   6.056   4.294  0.4604  1.5622 -0.6867
 4282TIP3   OH234260   5.494   2.956   0.330 -0.0735  0.4509  0.1646
 4282TIP3    H134261   5.410   2.926   0.294  0.8467  0.1419 -1.8626
 4282TIP3    H234262   5.495   3.050   0.311 -0.3029  0.6150  0.9418
 4283TIP3   OH234263   3.175   5.836  15.754 -0.6209  0.1082  0.5665
 4283TIP3    H134264   3.221   5.874  15.828  0.5513 -1.2674  0.5669
 4283TIP3    H234265   3.225   5.865  15.677 -1.3635  0.8554  0.3423
 4284TIP3   OH234266   3.473   1.568  17.085  0.3656  0.8349  0.3073
 4284TIP3    H134267   3.433   1.556  17.171  0.5571  2.0337  0.5819
 4284TIP3    H234268   3.534   1.641  17.097 -0.5448  1.8855 -1.1327
 4285TIP3   OH234269   5.317   5.702   3.721 -0.6393  0.1728  0.3036
 4285TIP3    H134270   5.299   5.765   3.651  2.0039 -0.3645 -0.9898
 4285TIP3    H234271   5.364   5.752   3.787  0.0238 -0.0667  0.0218
 4286TIP3   OH234272   0.053   3.565  15.769  0.1566  0.2649 -0.4577
 4286TIP3    H134273   0.042   3.473  15.744 -0.8891 -0.2072  1.4968
 4286TIP3    H234274   0.004   3.615  15.704 -1.9087 -0.8236  0.1806
 4287TIP3   OH234275   4.433   0.182  13.863 -0.3336 -0.0570 -0.0447
 4287TIP3    H134276   4.496   0.177  13.934 -1.3525 -0.0117  0.9023
 4287TIP3    H234277   4.484   0.169  13.784  0.7376 -0.7584  0.7398
 4288TIP3   OH234278   2.806   1.775   4.850  0.6799 -0.2488  0.3294
 4288TIP3    H134279   2.785   1.868   4.855 -0.1949 -0.4251 -0.0633
 4288TIP3    H234280   2.724   1.732   4.825  1.8390 -0.7738 -3.0567
 4289TIP3   OH234281   4.742   3.546   2.268  0.5859 -0.0992  0.6092
 4289TIP3    H134282   4.803   3.489   2.221  0.3125  0.6848 -0.7491
 4289TIP3    H234283   4.772   3.635   2.246  0.8754  0.3087  2.4983
 4290TIP3   OH234284   3.949   2.455  13.064  0.6878 -0.3315 -0.4815
 4290TIP3    H134285   3.943   2.505  12.982 -0.2112  0.6423  0.1316
 4290TIP3    H234286   4.002   2.510  13.121  1.7141 -1.2335 -0.5540
 4291TIP3   OH234287   1.335   6.415  14.486  0.0983 -0.1284 -0.5320
 4291TIP3    H134288   1.313   6.488  14.544  0.7775 -0.1299 -0.2683
 4291TIP3    H234289   1.299   6.441  14.401 -1.5806 -0.4682  0.0310
 4292TIP3   OH234290   3.082   0.035  12.327  0.2139 -0.6594 -0.2040
 4292TIP3    H134291   2.989   0.023  12.307  0.3718  0.5161 -1.8795
 4292TIP3    H234292   3.086   0.120  12.372  0.4547 -0.8321  0.1054
 4293TIP3   OH234293   0.371   3.510   4.913 -0.0949  0.9168 -0.4105
 4293TIP3    H134294   0.325   3.503   4.997  0.6358  0.2216 -0.0541
 4293TIP3    H234295   0.418   3.427   4.904  1.4239  1.7508 -0.5443
 4294TIP3   OH234296   2.832   3.477  11.212  0.1316 -0.3446  0.0993
 4294TIP3    H134297   2.827   3.489  11.307  2.3890  1.0179  0.1271
 4294TIP3    H234298   2.876   3.392  11.201 -0.9639 -0.9495  0.2127
 4295TIP3   OH234299   6.667   6.586   2.039 -0.2752  0.1477  0.1754
 4295TIP3    H134300   6.743   6.580   1.981  0.6012  2.2892  0.9867
 4295TIP3    H234301   6.614   6.656   2.002 -0.5733  0.3698  1.0048
 4296TIP3   OH234302   0.849   0.185   1.820 -0.0760  0.2378 -0.2403
 4296TIP3    H134303   0.807   0.130   1.885  0.9217 -0.8232 -0.4568
 4296TIP3    H234304   0.942   0.167   1.830  0.4314  2.8366  0.5249
 4297TIP3   OH234305   5.845   4.845  16.848 -0.3642 -0.0624 -0.0924
 4297TIP3    H134306   5.760   4.805  16.867  0.3778 -1.6675  0.0260
 4297TIP3    H234307   5.864   4.820  16.758 -0.7285  1.6990 -0.7102
 4298TIP3   OH234308   3.701   4.537  17.189 -0.3623  0.8289 -0.7249
 4298TIP3    H134309   3.672   4.454  17.228 -0.1799  0.6576 -0.9485
 4298TIP3    H234310   3.709   4.596  17.263  1.6928  0.0141 -0.2230
 4299TIP3   OH234311   0.881   4.284  14.114 -0.3851  0.0862  0.0145
 4299TIP3    H134312   0.850   4.202  14.154  0.3424  0.5149  1.5222
 4299TIP3    H234313   0.801   4.330  14.089 -0.9756  0.5126  2.4656
 4300TIP3   OH234314   0.811   2.719  16.446 -0.1869  0.2855 -0.3537
 4300TIP3    H134315   0.732   2.772  16.459  0.0173  0.3992  0.4636
 4300TIP3    H234316   0.798   2.642  16.501  0.7920  0.8848  0.7756
 4301TIP3   OH234317   4.473   4.544  13.009 -0.4531  0.1531 -0.3794
 4301TIP3    H134318   4.452   4.556  13.101 -0.9468 -0.0143 -0.4645
 4301TIP3    H234319   4.392   4.510  12.970  0.0994 -0.9262 -0.6395
 4302TIP3   OH234320   0.777   2.328   0.080 -0.4423  0.3259 -0.3510
 4302TIP3    H134321   0.857   2.278   0.069  0.5077  1.5820  0.5841
 4302TIP3    H234322   0.718   2.270   0.129 -0.0446 -0.5267 -0.8725
 4303TIP3   OH234323   4.996   4.714   0.771  0.5426 -0.0448  0.4936
 4303TIP3    H134324   5.066   4.762   0.726  1.4679 -1.3900  0.4187
 4303TIP3    H234325   5.031   4.625   0.781 -1.9217 -1.3655 -1.4071
 4304TIP3   OH234326   2.009   6.446   4.646  0.0595  0.0750  0.2881
 4304TIP3    H134327   2.020   6.540   4.658  3.3468 -0.2134  0.4715
 4304TIP3    H234328   2.041   6.429   4.557  0.1650 -0.9274  0.5070
 4305TIP3   OH234329   4.431   6.423   0.182  0.3711 -0.0483 -0.6469
 4305TIP3    H134330   4.364   6.479   0.220  1.2930  0.6197  0.0319
 4305TIP3    H234331   4.506   6.431   0.241  1.7418  0.7960 -2.4250
 4306TIP3   OH234332   3.262   5.437  14.071 -0.4094 -0.0408  0.2660
 4306TIP3    H134333   3.324   5.465  14.003 -0.4857 -2.2529 -0.7858
 4306TIP3    H234334   3.307   5.456  14.154  1.7140 -1.5533 -0.4648
 4307TIP3   OH234335   0.169   5.549  16.283  0.3955 -0.2748  1.2920
 4307TIP3    H134336   0.124   5.515  16.361  0.0195  0.0778  1.2291
 4307TIP3    H234337   0.102   5.546  16.214  0.7788 -0.7623  0.9289
 4308TIP3   OH234338   0.310   4.640   4.258 -0.7298  0.0097  0.3020
 4308TIP3    H134339   0.321   4.616   4.167 -2.5525 -1.6768  0.4731
 4308TIP3    H234340   0.249   4.714   4.256  1.0621  1.5750  0.0850
 4309TIP3   OH234341   3.809   6.248  15.498 -0.0695 -0.0137  0.7092
 4309TIP3    H134342   3.838   6.171  15.449  2.3291  1.8598 -1.0602
 4309TIP3    H234343   3.729   6.275  15.453  1.1653  0.6679 -1.2437
 4310TIP3   OH234344   0.294   6.571   4.020  0.0822  0.2666 -0.8080
 4310TIP3    H134345   0.285   6.516   3.942  0.3292  1.8233 -1.9728
 4310TIP3    H234346   0.325   6.511   4.088 -2.6803 -1.7153 -1.1104
 4311TIP3   OH234347   0.897   0.780   1.125 -0.1152 -0.2839 -0.5027
 4311TIP3    H134348   0.932   0.835   1.196  0.6563 -2.1944  0.6792
 4311TIP3    H234349   0.974   0.756   1.073 -0.1795 -1.5233 -0.0528
 4312TIP3   OH234350   4.265   3.688  14.393 -0.1680  0.5004  0.2529
 4312TIP3    H134351   4.307   3.705  14.308  0.1631  2.2784  0.7402
 4312TIP3    H234352   4.172   3.699  14.375 -0.3405 -1.5616 -0.3951
 4313TIP3   OH234353   3.455   6.610   5.437  0.2318 -0.4483  0.1756
 4313TIP3    H134354   3.517   6.588   5.368  0.5463 -0.3190  0.4123
 4313TIP3    H234355   3.508   6.612   5.517  0.4485  2.0686  0.0655
 4314TIP3   OH234356   5.647   4.142  16.559 -0.3831 -0.5090 -0.5341
 4314TIP3    H134357   5.645   4.237  16.554  0.5705 -0.4211  0.3013
 4314TIP3    H234358   5.569   4.113  16.513 -1.6197  0.7347  0.6875
 4315TIP3   OH234359   2.572   5.404  17.188  0.5322  0.3085 -0.3472
 4315TIP3    H134360   2.534   5.359  17.113  1.0397  0.7846 -0.8990
 4315TIP3    H234361   2.505   5.467  17.214 -0.1813 -0.7426  0.4312
 4316TIP3   OH234362   2.520   4.318  12.256  0.0847 -0.5354  0.3083
 4316TIP3    H134363   2.502   4.229  12.285  1.4704 -0.5408  1.2300
 4316TIP3    H234364   2.575   4.307  12.179  2.3873 -0.5175  1.8697
 4317TIP3   OH234365   4.829   6.074  17.158 -0.2769  0.7355  0.2572
 4317TIP3    H134366   4.742   6.047  17.187 -0.5410  0.3390 -0.8812
 4317TIP3    H234367   4.837   6.164  17.189 -0.4472  0.2698  1.7562
 4318TIP3   OH234368   2.866   2.553  15.220 -0.6160  0.5098 -0.4123
 4318TIP3    H134369   2.890   2.483  15.160  0.3596  0.4072  0.0762
 4318TIP3    H234370   2.942   2.563  15.278 -1.2613  1.0704  0.3709
 4319TIP3   OH234371   3.370   2.949   2.717 -0.7766 -0.2661  0.0564
 4319TIP3    H134372   3.287   2.992   2.738 -0.5336  0.5674 -0.6168
 4319TIP3    H234373   3.427   2.968   2.792 -0.3636  1.4764 -0.6380
 4320TIP3   OH234374   3.830   5.166  10.599  0.3362 -0.6262 -0.0557
 4320TIP3    H134375   3.878   5.218  10.535 -1.2644  0.6401 -0.2959
 4320TIP3    H234376   3.739   5.166  10.568 -0.4887 -0.0321  2.1330
 4321TIP3   OH234377   1.106   6.362  11.920 -0.6342  0.4368 -0.5270
 4321TIP3    H134378   1.096   6.289  11.982 -0.6590  0.6137 -0.3246
 4321TIP3    H234379   1.028   6.416  11.934 -2.6540 -1.4695 -3.2958
 4322TIP3   OH234380   5.802   5.661  16.637 -0.1250 -0.5701  0.0897
 4322TIP3    H134381   5.891   5.696  16.641 -0.0311 -0.7065 -0.7200
 4322TIP3    H234382   5.757   5.701  16.712  0.2368  0.5454 -0.2764
 4323TIP3   OH234383   1.831   5.761  12.866 -0.5536 -0.7292 -0.1403
 4323TIP3    H134384   1.737   5.742  12.863 -0.3722 -1.5952 -1.9298
 4323TIP3    H234385   1.838   5.836  12.924 -2.4072 -0.3504 -0.3169
 4324TIP3   OH234386   4.675   3.926  13.089  0.4155  0.2333 -0.0954
 4324TIP3    H134387   4.588   3.947  13.055 -0.9356  0.1683  2.9790
 4324TIP3    H234388   4.706   3.855  13.032 -1.5274  0.2565 -1.2854
 4325TIP3   OH234389   2.192   0.590  12.421 -0.0557 -0.2920  0.1517
 4325TIP3    H134390   2.164   0.620  12.334  1.3140 -1.3338 -0.7017
 4325TIP3    H234391   2.208   0.670  12.470 -0.8490  0.3195 -0.5575
 4326TIP3   OH234392   2.187   0.211  11.516  0.5796  0.1990  1.1081
 4326TIP3    H134393   2.208   0.182  11.605  1.8829  3.1335  1.8726
 4326TIP3    H234394   2.117   0.275  11.528  0.4229  0.2651 -0.0419
 4327TIP3   OH234395   3.219   3.901   3.702 -0.2884  0.0369  0.0613
 4327TIP3    H134396   3.199   3.986   3.662  0.7229 -0.2204 -1.0255
 4327TIP3    H234397   3.309   3.910   3.734  0.4420 -1.1274 -1.5398
 4328TIP3   OH234398   4.149   4.235  11.103  0.4091 -0.3089  0.2880
 4328TIP3    H134399   4.126   4.274  11.188 -0.0994  1.7844 -0.7562
 4328TIP3    H234400   4.119   4.299  11.038 -1.8002 -3.0596 -1.6614
 4329TIP3   OH234401   5.357   6.366  13.879  0.0133  0.6055  0.2994
 4329TIP3    H134402   5.387   6.443  13.927  0.9935  1.3009 -1.3386
 4329TIP3    H234403   5.395   6.376  13.791  1.0249 -2.2417  0.3162
 4330TIP3   OH234404   1.134   4.980  15.562 -0.2455  0.7849 -0.4907
 4330TIP3    H134405   1.095   5.043  15.623 -0.5805  1.2013 -1.1245
 4330TIP3    H234406   1.167   4.910  15.618 -0.2003  1.3440  0.1997
 4331TIP3   OH234407   3.537   1.095  13.054 -0.1234 -0.0329 -0.4952
 4331TIP3    H134408   3.629   1.107  13.029  0.0261  1.6193  0.6997
 4331TIP3    H234409   3.498   1.181  13.044 -0.6026  0.1972  2.5971
 4332TIP3   OH234410   3.751   2.049   5.679  0.3821 -0.4664  0.0211
 4332TIP3    H134411   3.812   1.986   5.640  0.7618 -0.1435  0.0986
 4332TIP3    H234412   3.723   2.104   5.606 -0.8490 -1.4355 -0.2870
 4333TIP3   OH234413   6.093   1.344  15.021 -0.4202  0.2397 -0.4590
 4333TIP3    H134414   6.101   1.438  15.037 -1.3952  0.2663 -0.0751
 4333TIP3    H234415   6.019   1.336  14.961 -0.9892 -0.3449  0.2952
 4334TIP3   OH234416   5.718   0.362   5.786 -0.1261  0.4314 -0.6127
 4334TIP3    H134417   5.774   0.317   5.723 -1.5716 -2.1889 -0.1718
 4334TIP3    H234418   5.634   0.317   5.780 -0.1292 -0.5719  3.6651
 4335TIP3   OH234419   6.038   0.029  11.997 -0.4678  0.4829 -0.2330
 4335TIP3    H134420   5.995  -0.020  12.067  0.9680 -0.0568  0.3037
 4335TIP3    H234421   6.120  -0.019  11.981  0.8440  2.5013  0.0828
 4336TIP3   OH234422   2.018   0.634   4.878  0.5512  0.7696  0.2720
 4336TIP3    H134423   1.954   0.643   4.950 -0.0493 -1.7958  0.1637
 4336TIP3    H234424   1.964   0.616   4.801  1.3472 -0.6420  0.0224
 4337TIP3   OH234425   4.262   2.897  15.250  0.3020  0.0738 -0.5106
 4337TIP3    H134426   4.189   2.915  15.309  0.3117 -1.0078 -0.1459
 4337TIP3    H234427   4.280   2.981  15.208 -0.4424  0.6031  0.1899
 4338TIP3   OH234428   6.470   4.086  10.932  0.1021 -0.3096 -0.3745
 4338TIP3    H134429   6.512   4.014  10.885 -2.5506 -2.9253  0.8899
 4338TIP3    H234430   6.467   4.056  11.023  1.6197  2.8663  0.8634
 4339TIP3   OH234431   2.481   1.086   0.360 -0.0077  0.2941  0.1209
 4339TIP3    H134432   2.533   1.023   0.411 -0.8761 -0.0342  0.6357
 4339TIP3    H234433   2.496   1.170   0.403  2.0407  0.6802 -1.2410
 4340TIP3   OH234434   1.539   2.874   2.276  0.2516  0.5501  0.9173
 4340TIP3    H134435   1.632   2.850   2.270  0.4533  1.6928 -1.3509
 4340TIP3    H234436   1.516   2.853   2.366  2.6701  0.0733  1.5144
 4341TIP3   OH234437   0.433   2.219  15.780  0.1686  0.0623  0.1982
 4341TIP3    H134438   0.525   2.242  15.769  0.1338 -0.0076 -0.2408
 4341TIP3    H234439   0.431   2.165  15.859  0.4412  0.4212  0.4529
 4342TIP3   OH234440   1.139   4.481  15.591  0.0098  0.1327  0.0160
 4342TIP3    H134441   1.142   4.438  15.677 -0.0995  0.0757 -0.0079
 4342TIP3    H234442   1.080   4.426  15.539  0.3612 -0.0319 -0.2091
 4343TIP3   OH234443   4.797   4.599   5.249  0.5901 -0.0139 -0.2953
 4343TIP3    H134444   4.783   4.590   5.343 -0.0003 -0.0817 -0.3863
 4343TIP3    H234445   4.888   4.574   5.236  0.7446  0.2152  0.2882
 4344TIP3   OH234446   5.246   2.532  13.456  0.5961 -0.0523  0.0456
 4344TIP3    H134447   5.314   2.498  13.515  0.3855 -0.5644 -0.0066
 4344TIP3    H234448   5.227   2.620  13.490 -0.4394 -0.8109  1.5292
 4345TIP3   OH234449   6.519   0.534  13.968 -0.3095 -0.0402 -0.5161
 4345TIP3    H134450   6.584   0.603  13.959 -0.5260  0.2193 -0.1006
 4345TIP3    H234451   6.439   0.570  13.929 -0.0593 -0.5722 -1.5463
 4346TIP3   OH234452   2.746   5.499  16.975  0.2450  0.2307 -0.0453
 4346TIP3    H134453   2.696   5.578  16.958  1.0871  0.3978 -2.0467
 4346TIP3    H234454   2.715   5.468  17.060 -0.6628  2.2509  0.3976
 4347TIP3   OH234455   4.136   4.891   0.427 -0.9451 -0.0717 -0.4718
 4347TIP3    H134456   4.193   4.965   0.406  0.1841 -0.9868 -0.7919
 4347TIP3    H234457   4.091   4.917   0.508  0.9971  0.1526  0.6113
 4348TIP3   OH234458   6.700   0.431   3.668 -0.4870 -0.3099 -0.1825
 4348TIP3    H134459   6.635   0.366   3.693  0.7416 -1.5185  0.0476
 4348TIP3    H234460   6.768   0.380   3.624  0.6234  0.7897  0.2029
 4349TIP3   OH234461   5.077   0.241  12.977  0.0415  0.2482  0.1903
 4349TIP3    H134462   5.066   0.276  12.889 -1.9222  1.3735  0.8207
 4349TIP3    H234463   5.158   0.282  13.009  0.1469  0.7248 -0.6704
 4350TIP3   OH234464   5.860   4.292   0.686 -0.0105 -0.4385  0.1124
 4350TIP3    H134465   5.917   4.216   0.674  1.9484  0.9848 -0.0586
 4350TIP3    H234466   5.919   4.367   0.680 -2.1382  1.2316 -1.6915
 4351TIP3   OH234467   1.445   0.856   4.992  0.5164 -0.8632 -0.0899
 4351TIP3    H134468   1.441   0.951   4.988  0.1423 -0.7464  1.7523
 4351TIP3    H234469   1.538   0.835   4.982  0.4072 -0.4652 -2.2448
 4352TIP3   OH234470   3.746   1.933  11.514  0.0072  0.3231 -0.7727
 4352TIP3    H134471   3.791   1.890  11.442  0.1359  2.0339 -1.7780
 4352TIP3    H234472   3.663   1.963  11.476  0.2239  1.5474 -0.3406
 4353TIP3   OH234473   3.807   1.830   4.709  0.0293 -0.5260  0.3671
 4353TIP3    H134474   3.759   1.842   4.627  0.6246  0.7467  0.1754
 4353TIP3    H234475   3.848   1.915   4.725  1.7922 -1.4176  0.7998
 4354TIP3   OH234476   5.727   0.253  12.344  0.3739 -0.4053  0.0943
 4354TIP3    H134477   5.663   0.264  12.274  1.6079  0.5166 -0.9390
 4354TIP3    H234478   5.797   0.316  12.323  2.3125 -2.3511  0.3891
 4355TIP3   OH234479   0.182   5.209   1.973  0.4252 -0.0442  0.0498
 4355TIP3    H134480   0.102   5.194   2.025 -1.0864 -2.8125 -2.6986
 4355TIP3    H234481   0.167   5.291   1.928 -0.3569  0.0398  0.4480
 4356TIP3   OH234482   3.771   3.442  15.526  0.4455 -0.5919  0.2749
 4356TIP3    H134483   3.856   3.482  15.542  0.7069 -0.5593 -1.1149
 4356TIP3    H234484   3.752   3.460  15.434 -1.3983  0.0297  0.7363
 4357TIP3   OH234485   4.173   4.724  14.155 -0.5219 -0.3656 -0.4219
 4357TIP3    H134486   4.115   4.799  14.158  0.7182  0.6143  0.9368
 4357TIP3    H234487   4.233   4.742  14.083  1.4636  1.3870  1.5034
 4358TIP3   OH234488   5.230   0.200  12.116 -0.3590  0.0094 -0.5987
 4358TIP3    H134489   5.284   0.135  12.070  0.2332 -0.0324  0.1253
 4358TIP3    H234490   5.279   0.282  12.107 -0.1216 -0.0412  0.1181
 4359TIP3   OH234491   3.965   0.982   3.381 -0.1740  0.3636  0.3998
 4359TIP3    H134492   3.937   0.893   3.400 -0.7761  0.4528 -0.0283
 4359TIP3    H234493   3.970   1.026   3.466  1.6685 -0.5029  0.7801
 4360TIP3   OH234494   3.922   1.028  16.891 -0.7408 -0.0681 -0.3195
 4360TIP3    H134495   3.875   1.039  16.974 -0.3939  2.0660 -0.3468
 4360TIP3    H234496   3.868   1.073  16.827  0.8739  1.7375 -0.4915
 4361TIP3   OH234497   1.326   2.312  14.959 -0.4803  0.1094  0.3468
 4361TIP3    H134498   1.254   2.368  14.930 -0.1131  0.4365  0.0593
 4361TIP3    H234499   1.405   2.356  14.928 -0.2080 -0.8179 -0.3025
 4362TIP3   OH234500   1.996   3.059   1.503 -0.0014 -0.6768 -0.2540
 4362TIP3    H134501   2.071   3.045   1.560  0.2287  1.5726  0.0851
 4362TIP3    H234502   1.934   3.108   1.557 -0.9608 -0.9425 -1.0811
 4363TIP3   OH234503   0.458   0.724  11.445 -0.2682  0.2561 -0.3671
 4363TIP3    H134504   0.550   0.730  11.470 -0.3821 -0.5943  0.3124
 4363TIP3    H234505   0.455   0.654  11.379 -0.2421  1.2170 -1.4137
 4364TIP3   OH234506   6.570   2.135   4.852  0.1653  0.4152 -0.1302
 4364TIP3    H134507   6.571   2.092   4.937  1.7179 -0.5439 -0.5906
 4364TIP3    H234508   6.529   2.072   4.793  1.4890 -0.0722 -0.5891
 4365TIP3   OH234509   2.310   5.388  13.966  0.2485  0.1971 -0.6240
 4365TIP3    H134510   2.253   5.435  13.905  1.7785  1.2823 -1.2637
 4365TIP3    H234511   2.279   5.413  14.053 -1.4551 -0.7448 -0.9160
 4366TIP3   OH234512   3.030   6.260  10.577  0.1235  0.0749  0.7111
 4366TIP3    H134513   3.102   6.198  10.584 -1.0640 -1.3142  1.0621
 4366TIP3    H234514   2.995   6.247  10.489  0.2243  0.6707  0.5778
 4367TIP3   OH234515   1.152   2.622  15.721 -0.1181 -0.8385 -0.2479
 4367TIP3    H134516   1.127   2.619  15.629 -0.3432 -2.9597 -0.1463
 4367TIP3    H234517   1.127   2.537  15.756 -0.1813 -0.0183  1.8271
 4368TIP3   OH234518   3.856   6.139  13.475  0.1615 -0.0322 -0.0337
 4368TIP3    H134519   3.865   6.214  13.417 -1.2371  0.1573 -0.0330
 4368TIP3    H234520   3.926   6.150  13.540  1.1739  0.2226 -1.1252
 4369TIP3   OH234521   1.932   3.460   2.122 -0.1588 -0.3877  0.3410
 4369TIP3    H134522   1.983   3.431   2.198  1.4573 -0.2301 -0.6345
 4369TIP3    H234523   1.844   3.478   2.157  0.1718 -1.6042  1.9019
 4370TIP3   OH234524   4.422   6.204   2.133 -0.0967  0.4224 -0.0278
 4370TIP3    H134525   4.378   6.226   2.215 -0.8741  2.0703 -0.8403
 4370TIP3    H234526   4.473   6.283   2.111  0.0203  0.0464 -1.1722
 4371TIP3   OH234527   4.778   0.822   0.203 -0.0566  0.1844  0.5971
 4371TIP3    H134528   4.859   0.870   0.218  0.4798  0.7493 -3.0971
 4371TIP3    H234529   4.807   0.734   0.177 -0.8086 -0.4728  1.8831
 4372TIP3   OH234530   6.366   5.443   5.345 -0.3037 -0.2760  0.4271
 4372TIP3    H134531   6.324   5.496   5.413 -1.1140  2.7496 -2.1651
 4372TIP3    H234532   6.293   5.402   5.298  0.0268  0.1180 -0.4454
 4373TIP3   OH234533   6.078   1.732   1.891 -0.5329 -0.2569  0.5994
 4373TIP3    H134534   6.043   1.748   1.979 -1.3342  1.0852  0.0675
 4373TIP3    H234535   6.033   1.654   1.861  0.0194 -0.9547  1.4970
 4374TIP3   OH234536   3.713   3.242  11.253 -0.1397 -0.2112 -0.0242
 4374TIP3    H134537   3.705   3.149  11.230 -3.4610 -0.2622  0.8340
 4374TIP3    H234538   3.713   3.288  11.169  2.0485 -0.8958 -0.4883
 4375TIP3   OH234539   5.244   6.077   3.266 -0.1627 -0.0621 -0.7664
 4375TIP3    H134540   5.240   6.144   3.334 -0.0992 -1.7974  1.0652
 4375TIP3    H234541   5.262   5.996   3.314  0.7767 -1.2450 -2.9707
 4376TIP3   OH234542   6.197   0.922  12.063 -0.1261 -0.0852  0.1821
 4376TIP3    H134543   6.247   1.004  12.057 -1.5265  0.7530 -0.9715
 4376TIP3    H234544   6.114   0.949  12.102 -0.8116 -0.8361 -0.7123
 4377TIP3   OH234545   3.285   4.342   6.498 -0.1433  0.2378 -0.0753
 4377TIP3    H134546   3.222   4.407   6.467 -0.3212  0.0462 -0.1170
 4377TIP3    H234547   3.234   4.262   6.509  0.1187  0.0452 -0.2457
 4378TIP3   OH234548   4.804   0.602   2.439  0.0834  0.0107  0.4080
 4378TIP3    H134549   4.796   0.545   2.363 -1.7052  1.1039 -0.2932
 4378TIP3    H234550   4.897   0.596   2.464  0.6470 -0.6387 -1.6412
 4379TIP3   OH234551   5.325   0.576  16.044 -0.1956  0.8878 -0.2468
 4379TIP3    H134552   5.253   0.513  16.039 -1.8591  2.7427 -1.4919
 4379TIP3    H234553   5.289   0.649  16.095  1.6200  0.9459  1.0325
 4380TIP3   OH234554   2.245   5.391   4.376  0.2269 -0.1302  0.6629
 4380TIP3    H134555   2.175   5.333   4.406 -0.8400  1.0251  0.4590
 4380TIP3    H234556   2.254   5.371   4.283 -0.5765  0.4608  0.4519
 4381TIP3   OH234557   2.158   6.025   1.708 -0.7216  0.4438  0.0136
 4381TIP3    H134558   2.204   5.958   1.657 -0.2555 -0.1287  1.1530
 4381TIP3    H234559   2.210   6.104   1.695  2.1000 -0.6570  3.0730
 4382TIP3   OH234560   0.157   2.975   3.609 -0.0778 -0.1537 -0.2485
 4382TIP3    H134561   0.251   2.980   3.587  0.0670  0.1731  0.4307
 4382TIP3    H234562   0.154   2.984   3.704 -0.8277  0.1432 -0.2984
 4383TIP3   OH234563   0.787   1.940   1.518 -0.0647 -0.5569  0.1940
 4383TIP3    H134564   0.802   2.034   1.509 -0.5784 -0.5190 -0.2890
 4383TIP3    H234565   0.841   1.901   1.450 -2.3933 -0.3919 -1.8776
 4384TIP3   OH234566   5.044   4.003   0.995 -0.3471 -0.0120  0.2285
 4384TIP3    H134567   5.089   4.084   1.017 -1.6066  1.0705 -1.0040
 4384TIP3    H234568   4.976   3.995   1.062 -1.3791  0.9402 -0.6802
 4385TIP3   OH234569   5.709   1.422   1.560  0.1892 -0.1709 -0.4028
 4385TIP3    H134570   5.650   1.373   1.504  0.2291 -1.7081  0.8318
 4385TIP3    H234571   5.791   1.427   1.510  0.4902 -2.2269 -0.2028
 4386TIP3   OH234572   5.754   0.641   2.770 -0.2553 -0.7865 -0.2551
 4386TIP3    H134573   5.697   0.718   2.774 -1.7291 -1.8407 -0.3929
 4386TIP3    H234574   5.836   0.671   2.809 -0.8625  0.7885 -0.0906
 4387TIP3   OH234575   0.261   3.610  14.288  0.2120  0.0894 -0.2321
 4387TIP3    H134576   0.255   3.565  14.204  1.0982  0.5229 -0.5376
 4387TIP3    H234577   0.232   3.544  14.352  1.4364 -0.9294 -0.6768
 4388TIP3   OH234578   4.332   0.092   2.343 -0.0437 -0.9837  0.1339
 4388TIP3    H134579   4.351   0.185   2.329  1.4071 -1.2188  0.3657
 4388TIP3    H234580   4.397   0.063   2.407 -0.9687 -1.9868  0.6533
 4389TIP3   OH234581   3.057   1.401  16.303  0.5773  0.1643 -0.4359
 4389TIP3    H134582   3.066   1.432  16.393 -1.6093 -2.8950  1.0274
 4389TIP3    H234583   3.136   1.351  16.287  0.9869  0.7405 -0.2475
 4390TIP3   OH234584   4.562   2.645   5.754  0.2349  0.2216  0.2905
 4390TIP3    H134585   4.588   2.615   5.842 -0.1760 -1.2201 -0.0488
 4390TIP3    H234586   4.488   2.589   5.730  0.4620  0.4579 -1.0554
 4391TIP3   OH234587   1.225   6.571   4.258 -0.0918 -0.2545  0.2662
 4391TIP3    H134588   1.308   6.570   4.307 -0.2144 -3.5331  0.6729
 4391TIP3    H234589   1.249   6.543   4.170 -0.3966  2.0238 -0.6043
 4392TIP3   OH234590   4.781   6.221   4.370  0.1922  0.1460  0.2902
 4392TIP3    H134591   4.698   6.213   4.324  0.1483  0.0110  0.3904
 4392TIP3    H234592   4.842   6.167   4.320  0.8181  2.0462 -1.1323
 4393TIP3   OH234593   0.640   2.628  15.762  0.1124 -0.2303 -0.1213
 4393TIP3    H134594   0.643   2.607  15.855  0.4398 -0.6865 -0.2358
 4393TIP3    H234595   0.546   2.638  15.743 -0.0809 -1.9125 -0.1414
 4394TIP3   OH234596   2.344   5.886  13.196  0.1382  0.0114 -0.2215
 4394TIP3    H134597   2.260   5.869  13.152  1.3146 -0.8928 -2.2627
 4394TIP3    H234598   2.345   5.825  13.270 -1.3933  0.7218  0.4259
 4395TIP3   OH234599   2.088   1.232   0.243 -0.1203  0.0581 -0.1018
 4395TIP3    H134600   2.018   1.167   0.241  1.1243 -1.4876  2.0544
 4395TIP3    H234601   2.168   1.181   0.232  0.8854  1.2551  1.3700
 4396TIP3   OH234602   1.556   1.584  14.038  0.4968 -0.4149  0.4298
 4396TIP3    H134603   1.510   1.572  13.955  1.1213  0.8417 -0.1149
 4396TIP3    H234604   1.502   1.646  14.087  1.1709  0.4603  0.1006
 4397TIP3   OH234605   1.740   6.338  15.153 -0.5857  0.0518  0.0248
 4397TIP3    H134606   1.736   6.267  15.089  1.7260 -1.0996  1.0309
 4397TIP3    H234607   1.784   6.409  15.107  0.7807 -0.6605  0.1698
 4398TIP3   OH234608   1.685   0.297   4.179 -0.6769 -0.5189 -0.2398
 4398TIP3    H134609   1.641   0.215   4.200 -0.7198  0.0025  1.8943
 4398TIP3    H234610   1.616   0.363   4.181 -0.3331 -0.1591  0.0052
 4399TIP3   OH234611   0.708   6.182   1.264  0.3551 -0.8781  0.0281
 4399TIP3    H134612   0.666   6.194   1.179 -0.9010  0.1968  0.7597
 4399TIP3    H234613   0.685   6.261   1.313 -0.4165 -2.2292  1.9485
 4400TIP3   OH234614   0.346   2.225   4.450  0.5363 -0.3547  0.1775
 4400TIP3    H134615   0.350   2.211   4.356 -0.3781 -0.9769  0.2227
 4400TIP3    H234616   0.336   2.138   4.488  0.6796 -0.0941  0.8357
 4401TIP3   OH234617   0.130   5.169   5.348 -0.2425  0.1498  0.5007
 4401TIP3    H134618   0.112   5.084   5.389 -0.3701 -0.8105 -1.4339
 4401TIP3    H234619   0.044   5.210   5.339 -0.3057  0.0198  0.5060
 4402TIP3   OH234620   4.776   4.099  11.135  0.5719  0.1272 -0.2717
 4402TIP3    H134621   4.709   4.038  11.102  2.1101 -0.7092 -2.0525
 4402TIP3    H234622   4.836   4.044  11.185  1.5686  0.2852 -1.2666
 4403TIP3   OH234623   3.726   1.959  17.091 -0.1963 -0.2651  0.2050
 4403TIP3    H134624   3.802   1.975  17.148 -0.6528  1.7302  0.3301
 4403TIP3    H234625   3.655   2.008  17.132 -0.9323 -0.0838 -1.2468
 4404TIP3   OH234626   2.962   0.270  17.011  0.5091  0.1295  0.1094
 4404TIP3    H134627   2.886   0.234  16.966 -0.1273  1.2686  0.2397
 4404TIP3    H234628   3.018   0.302  16.941 -1.1972  3.3573  0.0266
 4405TIP3   OH234629   2.751   3.909  16.042 -0.2011  0.5034  0.1334
 4405TIP3    H134630   2.708   3.994  16.028 -0.0780  0.4781 -0.4065
 4405TIP3    H234631   2.844   3.930  16.046 -0.1739  0.3954  0.0534
 4406TIP3   OH234632   5.460   4.354   5.230 -0.3541  0.2484 -0.2141
 4406TIP3    H134633   5.527   4.412   5.266 -1.1962  0.2097  1.4997
 4406TIP3    H234634   5.489   4.266   5.255  1.1967 -0.2381 -3.2477
 4407TIP3   OH234635   6.752   4.922   4.489 -0.2376  0.0669 -0.6634
 4407TIP3    H134636   6.800   5.005   4.494 -0.3616  0.0781  1.8540
 4407TIP3    H234637   6.660   4.946   4.493 -0.3971 -0.1237 -2.3374
 4408TIP3   OH234638   0.534   0.212  15.236  0.0192 -0.3095  0.0071
 4408TIP3    H134639   0.623   0.225  15.203 -0.1484  0.5243 -0.1463
 4408TIP3    H234640   0.547   0.188  15.328  0.4021 -0.0667  0.0208
 4409TIP3   OH234641   2.587   0.816   3.605  0.4927 -0.3753 -0.6275
 4409TIP3    H134642   2.560   0.724   3.599  2.2645 -1.1745  2.0892
 4409TIP3    H234643   2.679   0.813   3.631  0.2790  2.1543  0.7522
 4410TIP3   OH234644   0.618   3.599   2.556 -0.7856  0.7327  0.6716
 4410TIP3    H134645   0.605   3.628   2.465 -0.3399 -0.2335  0.2795
 4410TIP3    H234646   0.666   3.516   2.547 -1.2691  0.3256  1.7744
 4411TIP3   OH234647   3.114   6.004   1.365  0.1186  0.2938  0.0840
 4411TIP3    H134648   3.083   5.955   1.288  0.1480 -1.3002  1.0360
 4411TIP3    H234649   3.208   6.014   1.350  0.3542 -1.1098  0.4433
 4412TIP3   OH234650   6.713   2.220  14.259  0.2004 -0.0454  0.1808
 4412TIP3    H134651   6.792   2.177  14.291 -0.0398 -0.7763 -0.1772
 4412TIP3    H234652   6.742   2.306  14.230  0.7607 -0.0970  0.5818
 4413TIP3   OH234653   0.434   0.663  13.970 -0.0611  0.3285 -0.3327
 4413TIP3    H134654   0.459   0.582  14.013 -1.7451  0.9725  2.0978
 4413TIP3    H234655   0.509   0.721  13.980 -0.4818  0.5647  2.2393
 4414TIP3   OH234656   2.126   3.083  12.558 -0.3575 -0.1544  0.2219
 4414TIP3    H134657   2.208   3.041  12.582 -0.8976 -0.2622  2.1024
 4414TIP3    H234658   2.136   3.107  12.466  1.6476 -0.4237  0.3343
 4415TIP3   OH234659   4.478   1.582  16.923  0.2507 -0.1356 -0.4450
 4415TIP3    H134660   4.389   1.556  16.948  0.1765  0.1700 -0.3813
 4415TIP3    H234661   4.489   1.668  16.964  0.4761 -0.0525 -0.6834
 4416TIP3   OH234662   5.530   3.254   3.416  0.5217  0.5398  0.4149
 4416TIP3    H134663   5.492   3.200   3.485  1.6407 -0.1467  0.5261
 4416TIP3    H234664   5.456   3.279   3.361 -0.2789  0.4698  1.4345
 4417TIP3   OH234665   3.357   3.680   4.816 -0.0940 -0.5623  0.5239
 4417TIP3    H134666   3.374   3.680   4.910 -0.4330 -0.1979  0.5902
 4417TIP3    H234667   3.430   3.730   4.778 -0.0068 -0.6295  0.6058
 4418TIP3   OH234668   4.673   0.856  16.380 -0.0243 -0.4004  0.1720
 4418TIP3    H134669   4.707   0.786  16.436 -1.4170 -0.2258  1.2819
 4418TIP3    H234670   4.740   0.924  16.385 -0.0676 -0.4354  1.5497
 4419TIP3   OH234671   4.487   3.049   1.949  0.4758 -0.5014  0.1534
 4419TIP3    H134672   4.433   3.126   1.928  0.6107 -0.1520  1.0603
 4419TIP3    H234673   4.577   3.080   1.942  0.5269 -0.4592  0.9173
 4420TIP3   OH234674   0.416   3.042   1.527  0.2775  0.1688 -0.3640
 4420TIP3    H134675   0.495   3.029   1.580 -0.1526 -0.3565  0.1679
 4420TIP3    H234676   0.361   3.101   1.580 -0.6506 -1.2651  0.3498
 4421TIP3   OH234677   6.701   3.625  14.450  0.5698  0.0724  0.0518
 4421TIP3    H134678   6.765   3.638  14.520 -0.0183 -0.2488  0.6553
 4421TIP3    H234679   6.741   3.666  14.373  0.9932  0.8818  0.6975
 4422TIP3   OH234680   1.766   5.650   3.628 -0.1828  0.1886  0.2288
 4422TIP3    H134681   1.748   5.723   3.687  0.4797 -0.1937  0.9110
 4422TIP3    H234682   1.861   5.642   3.626 -0.2436 -0.6692  0.1730
 4423TIP3   OH234683   6.379   1.211  15.690 -0.2054  0.3697 -0.8538
 4423TIP3    H134684   6.421   1.296  15.679  1.7048 -0.2859  0.7409
 4423TIP3    H234685   6.390   1.167  15.606  1.9954  0.4061 -0.6416
 4424TIP3   OH234686   0.814   3.018  11.369  0.1741 -0.4202 -0.0086
 4424TIP3    H134687   0.759   3.090  11.337  0.7061 -0.1379 -0.3038
 4424TIP3    H234688   0.840   3.045  11.457 -0.5948 -0.8041  0.3432
 4425TIP3   OH234689   3.423   5.038  13.489 -0.1592 -0.1445 -0.1494
 4425TIP3    H134690   3.396   4.951  13.517  0.1302 -0.2076 -0.0627
 4425TIP3    H234691   3.511   5.048  13.525 -1.4799  1.6026  3.0838
 4426TIP3   OH234692   4.931   5.750   3.124 -0.3401 -0.1938  0.0677
 4426TIP3    H134693   5.015   5.704   3.115 -0.7053 -1.3398  1.9956
 4426TIP3    H234694   4.903   5.731   3.214 -3.1161 -0.6208 -0.8045
 4427TIP3   OH234695   2.791   1.514  14.567 -0.0203  0.0179  0.1114
 4427TIP3    H134696   2.861   1.576  14.589  0.0621 -0.4345  1.1533
 4427TIP3    H234697   2.833   1.452  14.507  0.8629 -0.9884  1.6968
 4428TIP3   OH234698   1.739   5.328   5.401 -0.0963  0.2724  0.3234
 4428TIP3    H134699   1.691   5.264   5.348 -0.6453  0.5076  0.5309
 4428TIP3    H234700   1.708   5.313   5.490  0.5380  0.1388  0.5201
 4429TIP3   OH234701   0.942   3.216  10.517 -0.0756 -0.2620  0.5196
 4429TIP3    H134702   0.866   3.177  10.473  0.9603 -0.3470 -1.3128
 4429TIP3    H234703   0.956   3.161  10.594 -1.4130 -0.6885  0.4899
 4430TIP3   OH234704   4.124   1.638   1.424  0.1139  0.5746 -0.7432
 4430TIP3    H134705   4.148   1.669   1.511  0.6526 -0.4091 -0.5266
 4430TIP3    H234706   4.053   1.575   1.439  0.8146 -0.2739 -0.9192
 4431TIP3   OH234707   6.141   0.739   3.633  0.1833 -0.5266 -0.1823
 4431TIP3    H134708   6.218   0.703   3.589  2.4794  1.5658  1.8227
 4431TIP3    H234709   6.140   0.697   3.719  0.8963  1.5619  0.9021
 4432TIP3   OH234710   2.584   4.725  16.312  0.1995 -0.1986 -0.3231
 4432TIP3    H134711   2.605   4.809  16.352 -0.1413  0.0957 -0.7602
 4432TIP3    H234712   2.563   4.745  16.221 -2.7591 -0.3172  0.2203
 4433TIP3   OH234713   3.678   4.306  12.189  0.0526  0.0280 -0.0400
 4433TIP3    H134714   3.756   4.338  12.142  0.1738  1.3239  0.9858
 4433TIP3    H234715   3.675   4.212  12.169  1.4169  0.1046 -0.7499
 4434TIP3   OH234716   3.613   2.357   2.845 -0.0086 -1.0147  0.1439
 4434TIP3    H134717   3.550   2.349   2.774 -0.0942  0.0179  0.0960
 4434TIP3    H234718   3.668   2.279   2.837  0.5280 -0.4850 -1.5776
 4435TIP3   OH234719   0.962   6.516  15.597  0.4911  0.0983  0.2503
 4435TIP3    H134720   1.009   6.596  15.571 -1.1616  0.7995 -0.7747
 4435TIP3    H234721   0.924   6.484  15.515  2.3298 -2.6353  0.3579
 4436TIP3   OH234722   4.774   1.798  12.131 -0.7466  0.2416  0.1034
 4436TIP3    H134723   4.869   1.801  12.138 -0.7191  0.6983 -0.4329
 4436TIP3    H234724   4.742   1.836  12.213 -0.4823 -0.7552  0.6890
 4437TIP3   OH234725   0.156   3.297  16.234 -0.0802  0.2031 -0.8292
 4437TIP3    H134726   0.163   3.320  16.327  0.9007 -0.0509 -0.8303
 4437TIP3    H234727   0.240   3.324  16.196  0.1276 -1.0526 -1.3285
 4438TIP3   OH234728   6.461   1.405   5.647 -0.6463 -1.1141  0.0524
 4438TIP3    H134729   6.486   1.409   5.555 -0.2047 -0.8043  0.1853
 4438TIP3    H234730   6.535   1.443   5.695 -1.4503  0.0565  0.4353
 4439TIP3   OH234731   3.905   3.179  17.026  0.2476  0.6543  0.2015
 4439TIP3    H134732   3.871   3.216  16.944 -0.4464 -0.6639 -0.1499
 4439TIP3    H234733   3.984   3.230  17.045 -0.6446  2.2713 -0.2309
 4440TIP3   OH234734   0.725   3.303   5.082 -0.6414  0.4180  0.4140
 4440TIP3    H134735   0.785   3.272   5.149 -0.2967  0.3870  0.0908
 4440TIP3    H234736   0.740   3.398   5.078  1.2014  0.1099 -1.4175
 4441TIP3   OH234737   6.754   1.883   3.244  0.4687  0.2459  0.2580
 4441TIP3    H134738   6.743   1.843   3.330  2.4232 -1.5204 -0.2367
 4441TIP3    H234739   6.727   1.974   3.257 -0.8460 -0.3615  2.2988
 4442TIP3   OH234740   3.474   3.485  14.484 -0.5715  0.2304  0.1759
 4442TIP3    H134741   3.520   3.458  14.564  1.8899  0.0160 -1.2340
 4442TIP3    H234742   3.384   3.457  14.499  0.0086 -0.7230  2.4547
 4443TIP3   OH234743   1.069   3.356  14.149 -0.4434  0.4275 -0.1473
 4443TIP3    H134744   1.008   3.330  14.081  0.6367  0.1447 -1.0253
 4443TIP3    H234745   1.093   3.446  14.127 -1.1538  0.8212  0.6526
 4444TIP3   OH234746   5.574   1.646   5.747 -0.9789 -0.1210  0.3962
 4444TIP3    H134747   5.600   1.557   5.720  1.3822  0.5065  0.4345
 4444TIP3    H234748   5.603   1.702   5.675  1.1416  1.0443  2.0668
 4445TIP3   OH234749   3.866   4.353   0.970  0.1233 -1.0632  0.3450
 4445TIP3    H134750   3.859   4.351   1.066 -0.5381  1.0551  0.3974
 4445TIP3    H234751   3.793   4.410   0.943  2.5979  1.6750 -1.0878
 4446TIP3   OH234752   2.399   5.836  12.841 -0.0737  0.2355  0.0542
 4446TIP3    H134753   2.338   5.861  12.910  2.3058 -1.0679  2.8587
 4446TIP3    H234754   2.419   5.918  12.795 -2.1267  1.0513  0.5022
 4447TIP3   OH234755   6.351   4.676   2.152 -0.3119  1.0044  0.0000
 4447TIP3    H134756   6.382   4.618   2.222 -0.9469 -0.1887 -0.6741
 4447TIP3    H234757   6.271   4.635   2.120  0.0417  1.4210 -1.5393
 4448TIP3   OH234758   4.189   5.927   4.085  0.0533 -0.2100  0.4935
 4448TIP3    H134759   4.277   5.892   4.097 -0.0504 -1.0433 -0.8689
 4448TIP3    H234760   4.154   5.935   4.173  1.3572 -0.2080  1.0390
 4449TIP3   OH234761   6.452   4.245   3.697 -0.2656 -0.1608  0.1182
 4449TIP3    H134762   6.429   4.336   3.715 -0.3038 -0.0310 -0.5450
 4449TIP3    H234763   6.547   4.245   3.692 -0.3024  0.0017 -0.6637
 4450TIP3   OH234764   5.379   0.556  13.446 -0.7077 -0.1412 -0.3852
 4450TIP3    H134765   5.461   0.511  13.424 -2.2165 -2.3795 -1.8432
 4450TIP3    H234766   5.384   0.640  13.399 -0.5089 -1.5618 -3.1258
 4451TIP3   OH234767   5.003   1.229   5.632 -0.3889  0.5193 -1.0356
 4451TIP3    H134768   4.999   1.134   5.633  0.2155  0.4979 -0.5472
 4451TIP3    H234769   5.096   1.250   5.631 -0.4147  1.1191  1.4774
 4452TIP3   OH234770   2.983   6.162  11.583  0.0323 -0.9878  0.2064
 4452TIP3    H134771   2.983   6.217  11.505  1.1390 -1.5442 -0.2052
 4452TIP3    H234772   2.907   6.191  11.633 -0.7860 -0.7246 -1.1445
 4453TIP3   OH234773   6.705   3.009  11.356 -0.3347  0.1295  0.2497
 4453TIP3    H134774   6.741   2.952  11.424  1.3236  0.5976 -0.1833
 4453TIP3    H234775   6.780   3.031  11.301 -1.9625 -1.9739 -3.0718
 4454TIP3   OH234776   5.291   4.058   4.023 -0.0930  0.1656  0.0561
 4454TIP3    H134777   5.251   4.018   3.946 -1.2542 -0.4091  0.9316
 4454TIP3    H234778   5.226   4.122   4.053  0.1848  0.1270  0.7606
 4455TIP3   OH234779   1.443   4.713  17.258 -0.3051  0.5710  0.0195
 4455TIP3    H134780   1.490   4.640  17.299  0.5791  1.0451 -0.1360
 4455TIP3    H234781   1.352   4.683  17.253 -0.1429 -0.1057  0.9132
 4456TIP3   OH234782   4.922   1.591   4.423  0.2810 -0.5377  0.4103
 4456TIP3    H134783   4.904   1.684   4.431  2.3647  0.1848 -1.8366
 4456TIP3    H234784   4.974   1.569   4.500  0.9490  0.5274  0.2760
 4457TIP3   OH234785   3.775   6.321   0.540  0.2571 -0.2687 -0.0024
 4457TIP3    H134786   3.758   6.414   0.554 -1.6016 -0.3407 -1.4961
 4457TIP3    H234787   3.868   6.317   0.515  0.5730  1.0488  0.8535
 4458TIP3   OH234788   1.505   5.117   1.439  0.1344 -0.0779 -0.2971
 4458TIP3    H134789   1.437   5.050   1.432  0.9103 -0.8038 -1.0045
 4458TIP3    H234790   1.534   5.112   1.530 -0.7780  0.2723  0.0258
 4459TIP3   OH234791   0.011   1.795  13.315  0.2736  0.2677 -0.1152
 4459TIP3    H134792   0.103   1.786  13.339  0.0616  0.2595  0.7546
 4459TIP3    H234793  -0.013   1.883  13.346 -0.6873 -0.7146  2.1740
 4460TIP3   OH234794   5.908   5.318   1.625  0.1170  0.1590 -0.3161
 4460TIP3    H134795   5.949   5.238   1.593  0.8643 -0.1453  1.2760
 4460TIP3    H234796   5.974   5.386   1.614 -0.9175  0.8732 -2.7418
 4461TIP3   OH234797   0.312   0.080   3.755 -0.8759 -0.3872  0.1158
 4461TIP3    H134798   0.331  -0.013   3.744  0.6519 -0.0551 -0.3344
 4461TIP3    H234799   0.376   0.109   3.821  1.6289  1.1724 -2.7309
 4462TIP3   OH234800   6.508   1.550   2.179  0.1861  0.9724  0.4886
 4462TIP3    H134801   6.467   1.472   2.143  0.3558  2.5360 -3.6794
 4462TIP3    H234802   6.437   1.599   2.219 -0.0732 -0.7939  2.3246
 4463TIP3   OH234803   1.908   5.513   1.562  0.0928 -0.5493 -0.0710
 4463TIP3    H134804   1.922   5.488   1.653  0.8962 -0.1877 -0.0829
 4463TIP3    H234805   1.840   5.454   1.530  0.5017 -1.3344  0.4873
 4464TIP3   OH234806   3.907   4.773   4.182  0.0943  0.6343  0.0172
 4464TIP3    H134807   3.896   4.863   4.214  0.0176 -0.1899  2.5381
 4464TIP3    H234808   3.826   4.729   4.206 -0.8043  0.3209 -3.1621
 4465TIP3   OH234809   0.689   2.911  10.540 -0.2944  0.4561  0.3882
 4465TIP3    H134810   0.624   2.960  10.590  0.5656  0.6417  1.3578
 4465TIP3    H234811   0.666   2.819  10.555 -1.0033  0.5284 -0.2039
 4466TIP3   OH234812   1.746   6.684   2.547 -0.0039  0.9876  0.1816
 4466TIP3    H134813   1.694   6.672   2.626 -1.0276  0.8605 -0.4870
 4466TIP3    H234814   1.814   6.747   2.571 -0.2338  0.8621  1.1815
 4467TIP3   OH234815   2.025   5.923  15.582  0.0284  0.0878  0.1415
 4467TIP3    H134816   2.087   5.855  15.555 -1.1711 -1.2861  0.6831
 4467TIP3    H234817   2.002   5.899  15.672 -1.3637  0.4790 -0.0905
 4468TIP3   OH234818   0.518   1.752  14.925 -0.2641  0.1536  0.1762
 4468TIP3    H134819   0.507   1.757  14.830 -0.5913  1.6923  0.2736
 4468TIP3    H234820   0.460   1.680  14.951 -0.5968  0.0773 -0.7203
 4469TIP3   OH234821   2.698   6.237   0.892  0.1314 -0.0050  0.0986
 4469TIP3    H134822   2.640   6.162   0.903 -0.0028 -0.0673 -0.9344
 4469TIP3    H234823   2.750   6.216   0.815  0.2367  0.8748 -0.0782
 4470TIP3   OH234824   4.642   1.978  15.180  0.2554  0.4514 -0.6409
 4470TIP3    H134825   4.690   1.896  15.185  1.1382  0.9878  0.1480
 4470TIP3    H234826   4.670   2.017  15.097 -0.7561 -0.3867 -1.3850
 4471TIP3   OH234827   4.459   4.209  12.133  0.1964 -0.4107  0.2388
 4471TIP3    H134828   4.414   4.210  12.049  0.8261 -0.6952 -0.1018
 4471TIP3    H234829   4.526   4.277  12.126  0.7389 -0.9332  0.2373
 4472TIP3   OH234830   6.451   1.137  11.776  0.4083  0.4302  0.4560
 4472TIP3    H134831   6.402   1.219  11.780  2.2028  1.7235 -1.6588
 4472TIP3    H234832   6.489   1.135  11.688  2.7286 -1.2646  1.3649
 4473TIP3   OH234833   2.280   1.424   3.312 -0.0247  0.0323 -0.2426
 4473TIP3    H134834   2.313   1.513   3.324  1.6206 -0.5130 -0.4258
 4473TIP3    H234835   2.192   1.435   3.277  0.0409  1.5844  0.0324
 4474TIP3   OH234836   4.143   1.747  15.648  0.2645 -0.4818 -0.5991
 4474TIP3    H134837   4.215   1.717  15.703 -0.1305 -1.2250 -0.4744
 4474TIP3    H234838   4.114   1.668  15.602  1.2728  0.2897 -2.6937
 4475TIP3   OH234839   2.747   4.999   1.307 -0.1647  0.4521  0.5439
 4475TIP3    H134840   2.673   4.939   1.312  0.2297 -0.2142 -0.8826
 4475TIP3    H234841   2.824   4.942   1.303  0.1340  0.8706 -2.6137
 4476TIP3   OH234842   2.894   2.997  10.685  0.9678 -0.0013 -0.1309
 4476TIP3    H134843   2.803   3.024  10.680  0.5083 -1.2346  0.9917
 4476TIP3    H234844   2.944   3.079  10.679 -0.2419  0.7809  0.1490
 4477TIP3   OH234845   5.654   5.164  12.748  0.6148 -0.4205 -0.5920
 4477TIP3    H134846   5.600   5.123  12.816 -0.0956 -2.9744 -2.5174
 4477TIP3    H234847   5.744   5.149  12.776  0.3557  0.3111  0.7055
 4478TIP3   OH234848   5.812   5.540  13.857 -0.5377  0.4952 -0.9232
 4478TIP3    H134849   5.799   5.446  13.867  0.4801  0.5552  2.3108
 4478TIP3    H234850   5.907   5.552  13.867 -0.8966  1.9995  1.8984
 4479TIP3   OH234851   5.429   5.813   4.118 -0.3894 -0.0531 -0.2933
 4479TIP3    H134852   5.379   5.766   4.185  0.6952  0.8181  1.1840
 4479TIP3    H234853   5.502   5.756   4.097  0.3882  0.5169  0.7849
 4480TIP3   OH234854   1.140   4.644   0.758  0.2056  0.1731 -0.1936
 4480TIP3    H134855   1.075   4.713   0.743 -0.1701  0.0688  0.8370
 4480TIP3    H234856   1.094   4.563   0.736  0.2667  0.1666 -0.2945
 4481TIP3   OH234857   1.849   1.407  13.835  0.1373 -0.7351 -0.6219
 4481TIP3    H134858   1.758   1.378  13.831 -0.6525  1.0108  2.0234
 4481TIP3    H234859   1.854   1.479  13.773 -1.0786  0.8246  0.9700
 4482TIP3   OH234860   3.593   1.501   4.503 -0.1123  0.0745  0.0262
 4482TIP3    H134861   3.524   1.536   4.559  0.1994 -1.3440  1.3603
 4482TIP3    H234862   3.638   1.436   4.557  1.8819  0.4973 -1.0006
 4483TIP3   OH234863   1.736   6.295  11.324  0.3349 -0.1918 -0.1060
 4483TIP3    H134864   1.709   6.204  11.328  0.7116 -0.2618  1.2550
 4483TIP3    H234865   1.769   6.306  11.235 -0.4216 -1.1718 -0.5222
 4484TIP3   OH234866   2.018   2.906   6.607  0.1018  0.6296 -0.3863
 4484TIP3    H134867   2.037   2.926   6.699 -0.5366 -0.1321 -0.0740
 4484TIP3    H234868   2.069   2.827   6.589 -0.9843 -0.1388 -0.1996
 4485TIP3   OH234869   1.101   2.488   0.711  0.3656  0.4775  0.5876
 4485TIP3    H134870   1.042   2.426   0.668 -1.1857  2.6021 -0.5328
 4485TIP3    H234871   1.163   2.433   0.758 -0.9954 -1.9037 -0.2222
 4486TIP3   OH234872   1.361   4.661  13.377 -0.0095 -0.2340  0.6100
 4486TIP3    H134873   1.420   4.708  13.435  0.8775  0.8019 -1.0532
 4486TIP3    H234874   1.282   4.714  13.374  0.2546  0.1491  0.2596
 4487TIP3   OH234875   3.124   3.535  14.819  0.2619  0.0615  0.0417
 4487TIP3    H134876   3.170   3.573  14.894 -1.2898  0.0863  1.0276
 4487TIP3    H234877   3.100   3.447  14.849 -2.7144  0.9879  0.6673
 4488TIP3   OH234878   5.317   5.851   2.542 -0.2944 -0.7203 -0.1553
 4488TIP3    H134879   5.401   5.868   2.586 -0.4401 -0.8577  0.1810
 4488TIP3    H234880   5.339   5.789   2.473 -0.1765 -1.0476  0.1688
 4489TIP3   OH234881   3.507   6.498   1.190 -0.1785 -0.0942  0.3113
 4489TIP3    H134882   3.524   6.537   1.104  0.0022 -0.2433  0.2788
 4489TIP3    H234883   3.594   6.474   1.223 -0.2553 -0.1166  0.4979
 4490TIP3   OH234884   6.675   2.089  15.674  0.6282 -0.5619  0.1068
 4490TIP3    H134885   6.581   2.078  15.654  1.0081 -0.4400 -1.9897
 4490TIP3    H234886   6.677   2.123  15.764 -1.4038  0.7675 -0.2865
 4491TIP3   OH234887   0.755   6.085   3.447  0.4121 -0.0712 -0.4203
 4491TIP3    H134888   0.735   6.170   3.486  1.3770 -0.4100  0.8845
 4491TIP3    H234889   0.850   6.083   3.440  0.5752 -1.7118  1.2596
 4492TIP3   OH234890   2.015   1.801   5.078  0.0270 -0.1476 -0.1700
 4492TIP3    H134891   2.062   1.879   5.110  0.7209 -0.7631  0.3508
 4492TIP3    H234892   2.001   1.748   5.156  0.0179 -0.7783 -0.5955
 4493TIP3   OH234893   0.639   1.550  12.060  0.6373 -0.0946 -0.2649
 4493TIP3    H134894   0.676   1.625  12.014 -0.9487  0.4211 -0.7559
 4493TIP3    H234895   0.602   1.587  12.141 -0.7365 -0.2048 -0.8189
 4494TIP3   OH234896   3.263   0.686  16.810 -0.1840 -0.0881 -0.2971
 4494TIP3    H134897   3.221   0.625  16.871  1.5661 -0.1063  0.9861
 4494TIP3    H234898   3.209   0.684  16.732  0.1049 -3.7583 -0.5572
 4495TIP3   OH234899   4.196   6.135   1.629 -0.0484 -0.2916 -0.1102
 4495TIP3    H134900   4.253   6.119   1.554  0.7220 -0.5153  0.5054
 4495TIP3    H234901   4.252   6.118   1.705 -0.1883  1.9879  0.5566
 4496TIP3   OH234902   4.142   0.477  14.832  0.3168  0.2895  0.1163
 4496TIP3    H134903   4.200   0.494  14.758 -0.2156  0.6414 -0.2235
 4496TIP3    H234904   4.151   0.383  14.848  1.3914  0.4272  0.4173
 4497TIP3   OH234905   1.428   3.745   1.669  0.3640  0.2394  0.0716
 4497TIP3    H134906   1.359   3.704   1.722  0.5427 -0.0432  0.0922
 4497TIP3    H234907   1.500   3.681   1.671  1.4229  1.4223  1.7742
 4498TIP3   OH234908   0.100   0.657   2.372 -0.4957  0.3849 -0.2179
 4498TIP3    H134909   0.150   0.633   2.294  1.4183 -1.2153  1.3920
 4498TIP3    H234910   0.108   0.580   2.429 -2.8801  1.0122  1.0785
 4499TIP3   OH234911   0.939   0.789  13.855  0.1694 -0.2179 -0.0794
 4499TIP3    H134912   1.001   0.814  13.786  2.1397 -0.7699  1.4075
 4499TIP3    H234913   0.873   0.737  13.810 -0.4978  2.1765 -2.1188
 4500TIP3   OH234914   1.032   0.496   6.666  0.1066  0.1967 -0.5760
 4500TIP3    H134915   1.054   0.448   6.746  1.4371 -1.0411 -1.6371
 4500TIP3    H234916   0.972   0.439   6.619 -1.0062  1.1070 -0.2993
 4501TIP3   OH234917   6.008   1.241   1.776 -0.1822  0.1928 -0.4433
 4501TIP3    H134918   5.925   1.197   1.758  0.3754 -1.5513  0.9687
 4501TIP3    H234919   6.072   1.170   1.783  0.8356  1.2209  1.6174
 4502TIP3   OH234920   1.008   1.022   5.454  0.0068  0.9276 -0.3891
 4502TIP3    H134921   1.062   1.096   5.481  2.3421 -0.6192 -0.5660
 4502TIP3    H234922   1.021   0.956   5.522  2.6881 -1.4432 -2.9087
 4503TIP3   OH234923   2.173   1.821  12.726  0.2353  0.1346  0.2622
 4503TIP3    H134924   2.167   1.743  12.671  0.4797 -0.9093  1.6680
 4503TIP3    H234925   2.085   1.859  12.724 -0.0803 -0.5924  0.1658
 4504TIP3   OH234926   2.950   1.979   1.751 -0.1177  0.2426  0.1059
 4504TIP3    H134927   3.030   2.031   1.752  0.1988 -0.2023 -0.8757
 4504TIP3    H234928   2.901   2.012   1.676 -0.9882  0.6879  0.8486
 4505TIP3   OH234929   5.030   5.596   1.858 -0.0280 -0.6401 -0.2261
 4505TIP3    H134930   5.019   5.603   1.953  1.6806 -1.5924  0.0985
 4505TIP3    H234931   5.078   5.514   1.846 -0.6688 -0.7962 -1.9719
 4506TIP3   OH234932   3.392   0.467   6.544  0.0471  0.6434  0.0606
 4506TIP3    H134933   3.338   0.539   6.514 -0.2039 -0.1317 -1.4388
 4506TIP3    H234934   3.457   0.454   6.475  0.7626  0.1139  0.7960
 4507TIP3   OH234935   2.399   5.020   4.451  0.3513 -0.4873 -0.0179
 4507TIP3    H134936   2.480   5.058   4.415  0.2038  1.4589  1.5662
 4507TIP3    H234937   2.425   4.985   4.535 -0.3799 -0.1262  0.3670
 4508TIP3   OH234938   5.708   5.598   4.850 -0.8977  0.3129  0.2384
 4508TIP3    H134939   5.690   5.615   4.943 -1.1346  1.1088  0.0566
 4508TIP3    H234940   5.622   5.604   4.808 -0.6006  1.4628 -0.2452
 4509TIP3   OH234941   6.267   2.031   5.013 -0.2059 -0.1669 -0.8261
 4509TIP3    H134942   6.348   2.057   5.057  0.4729  0.6448 -2.4734
 4509TIP3    H234943   6.283   1.940   4.986  0.5984  0.3135 -2.0501
 4510TIP3   OH234944   1.069   5.109   5.381  0.5611  0.1352  0.4084
 4510TIP3    H134945   1.071   5.202   5.359  1.1683  0.5127  1.9203
 4510TIP3    H234946   0.997   5.074   5.330 -0.2428  1.6207  0.4630
 4511TIP3   OH234947   1.814   0.532   4.707 -0.1772 -0.3481 -0.1937
 4511TIP3    H134948   1.769   0.447   4.710 -0.0286 -0.3933  0.9866
 4511TIP3    H234949   1.758   0.587   4.652  1.4067 -2.1516 -3.9811
 4512TIP3   OH234950   0.766   1.230   5.489  0.4022  0.3970  0.2826
 4512TIP3    H134951   0.848   1.189   5.461  0.7213  1.4597 -0.4282
 4512TIP3    H234952   0.697   1.176   5.452  0.7308 -1.1955  1.8722
 4513TIP3   OH234953   0.324   4.327  14.383  0.5381 -0.0798  0.3275
 4513TIP3    H134954   0.356   4.275  14.456 -1.9581  0.0687  1.6661
 4513TIP3    H234955   0.399   4.336  14.324  1.7472 -2.9866  1.2599
 4514TIP3   OH234956   0.974   2.679   5.326 -0.3336  0.1816  0.0289
 4514TIP3    H134957   0.990   2.585   5.316 -0.6440  0.1353 -0.0194
 4514TIP3    H234958   0.977   2.693   5.421  0.0198  0.1798  0.0225
 4515TIP3   OH234959   1.212   0.425   2.066  0.2698 -0.4374 -0.0965
 4515TIP3    H134960   1.156   0.469   2.131 -0.2478 -1.7422  0.3832
 4515TIP3    H234961   1.298   0.419   2.108 -0.3515 -2.3429  1.0298
 4516TIP3   OH234962   1.219   1.886   4.048 -0.0508  0.3711 -0.2130
 4516TIP3    H134963   1.146   1.845   4.002 -0.4830  1.1440 -0.2371
 4516TIP3    H234964   1.182   1.912   4.133 -0.2178  2.0591 -0.7714
 4517TIP3   OH234965   3.742   5.579   3.848  0.0244 -0.1443 -0.1847
 4517TIP3    H134966   3.686   5.592   3.925  1.1796  1.7722  0.3905
 4517TIP3    H234967   3.784   5.664   3.834  1.7595 -1.1412 -1.4285
 4518TIP3   OH234968   3.328   4.171  16.351  0.5615 -0.4013  0.1700
 4518TIP3    H134969   3.414   4.199  16.384 -0.9243  1.7586  2.6026
 4518TIP3    H234970   3.284   4.253  16.328 -1.1042 -1.4202 -0.4105
 4519TIP3   OH234971   5.902   3.883  16.792  0.4959 -0.0800  0.3274
 4519TIP3    H134972   5.936   3.967  16.825 -1.4737  0.7348  0.3986
 4519TIP3    H234973   5.914   3.889  16.697  1.2557 -0.1505  0.4124
 4520TIP3   OH234974   3.888   0.149  16.621  0.0862 -0.1136 -0.0420
 4520TIP3    H134975   3.855   0.078  16.566  0.9251 -0.7252  0.2148
 4520TIP3    H234976   3.901   0.109  16.707  0.0170  0.5010  0.2571
 4521TIP3   OH234977   4.875   6.015   5.147 -0.0372  0.3456 -0.1003
 4521TIP3    H134978   4.838   5.928   5.160  0.4359  0.1636  0.0406
 4521TIP3    H234979   4.819   6.055   5.081 -0.7735  0.2495  0.4575
 4522TIP3   OH234980   0.273   3.371   5.814 -0.0533  0.2167 -0.4499
 4522TIP3    H134981   0.198   3.421   5.782 -1.2271 -0.3907  1.1937
 4522TIP3    H234982   0.237   3.285   5.837  1.2523 -0.2559 -0.0524
 4523TIP3   OH234983   1.208   5.816  13.233 -0.0228 -0.4124  0.2515
 4523TIP3    H134984   1.137   5.753  13.218  0.3568 -1.2189  1.6517
 4523TIP3    H234985   1.166   5.902  13.224 -1.2110 -0.8647  1.0802
 4524TIP3   OH234986   5.630   4.597  12.336  0.0772 -0.2213  0.0457
 4524TIP3    H134987   5.575   4.550  12.274 -2.6047  0.4265  1.7701
 4524TIP3    H234988   5.710   4.618  12.287 -0.5830 -2.4244 -2.1526
 4525TIP3   OH234989   5.688   6.089  16.523  0.1928 -0.2213  0.1127
 4525TIP3    H134990   5.632   6.156  16.561  0.6775 -0.0942  0.6100
 4525TIP3    H234991   5.742   6.136  16.459 -0.1197 -0.3080 -0.2187
 4526TIP3   OH234992   3.910   6.073   2.113  0.2448 -0.1288  0.2901
 4526TIP3    H134993   3.856   6.137   2.067 -1.6085 -1.0340  1.1006
 4526TIP3    H234994   3.965   6.035   2.045 -0.2334  0.7257 -0.6001
 4527TIP3   OH234995   3.538   5.709  15.267 -0.0973  0.2705  0.4106
 4527TIP3    H134996   3.560   5.739  15.355  1.2755 -1.1343  0.6014
 4527TIP3    H234997   3.552   5.615  15.269 -0.8010  0.0898 -1.1096
 4528TIP3   OH234998   3.145   3.349  12.340  0.3468  0.3743  0.1321
 4528TIP3    H134999   3.232   3.338  12.304  1.0314  1.3663  1.4013
 4528TIP3    H235000   3.090   3.290  12.288  1.1771  1.9180 -2.6772
 4529TIP3   OH235001   0.143   6.028  10.721 -0.0779  0.0773 -0.8560
 4529TIP3    H135002   0.142   6.101  10.783  1.0026  0.2353 -1.0106
 4529TIP3    H235003   0.053   6.024  10.688 -0.5776  0.2388  0.4233
 4530TIP3   OH235004   3.277   2.988  12.350 -0.0977 -0.1547  0.0456
 4530TIP3    H135005   3.187   2.963  12.327  0.7905 -1.9583 -1.7306
 4530TIP3    H235006   3.319   2.906  12.377  0.6785  0.8960  2.2288
 4531TIP3   OH235007   1.785   3.775   0.415 -0.2176  0.2174 -0.2810
 4531TIP3    H135008   1.870   3.737   0.438 -1.1926 -1.0550  1.5003
 4531TIP3    H235009   1.723   3.705   0.433 -1.8053  1.6586  0.0812
 4532TIP3   OH235010   3.764   4.782  14.537  0.1302 -0.7024 -0.5824
 4532TIP3    H135011   3.828   4.711  14.534  0.4540 -0.4000 -0.9868
 4532TIP3    H235012   3.706   4.760  14.610 -0.5944 -2.0655 -1.5299
 4533TIP3   OH235013   2.964   1.373   5.318 -0.2305  0.4421  0.4300
 4533TIP3    H135014   3.031   1.324   5.271 -0.7700  0.7275 -0.6634
 4533TIP3    H235015   2.903   1.306   5.349  0.7841  0.1317  1.8612
 4534TIP3   OH235016   5.340   5.048   5.920 -0.7369 -0.3901 -0.6300
 4534TIP3    H135017   5.313   5.128   5.965 -0.6087 -0.8538  0.2973
 4534TIP3    H235018   5.381   4.995   5.988  1.8621 -0.0411 -1.8112
 4535TIP3   OH235019   6.602   3.382  17.025  0.7931  0.4250 -0.0470
 4535TIP3    H135020   6.578   3.295  17.057  2.1821 -1.1010 -2.8256
 4535TIP3    H235021   6.519   3.421  16.997  0.1123  0.1674  1.5315
 4536TIP3   OH235022   0.736   5.503  11.336  0.1583 -0.3812 -0.0882
 4536TIP3    H135023   0.718   5.442  11.264  2.3057 -1.6753  0.3927
 4536TIP3    H235024   0.674   5.478  11.404 -0.2433 -0.7743 -0.5885
 4537TIP3   OH235025   0.418   0.196   2.961  0.0370 -0.4010 -0.2286
 4537TIP3    H135026   0.480   0.222   3.030  0.5078 -0.4342 -0.6328
 4537TIP3    H235027   0.439   0.253   2.887 -0.5384 -0.2903 -0.3114
 4538TIP3   OH235028   4.995   4.319  13.351 -0.0046 -0.0238  0.2771
 4538TIP3    H135029   4.974   4.345  13.440 -0.0384  0.5306  0.1077
 4538TIP3    H235030   4.912   4.284  13.317 -0.1469  0.3175  0.2671
 4539TIP3   OH235031   4.335   1.899  16.263 -0.5506  0.0141 -0.1122
 4539TIP3    H135032   4.407   1.941  16.311 -2.7019  2.5324  1.1234
 4539TIP3    H235033   4.319   1.818  16.312 -0.1784  0.6616  1.1356
 4540TIP3   OH235034   0.916   4.785   0.796  0.3814  0.1528  0.0985
 4540TIP3    H135035   0.869   4.824   0.723  1.7592  1.9052  0.0773
 4540TIP3    H235036   0.848   4.743   0.849 -0.9197  0.8191 -0.9910
 4541TIP3   OH235037   4.128   3.878  13.732 -0.3452 -0.3143  0.7051
 4541TIP3    H135038   4.219   3.849  13.730 -0.1477  0.0493 -3.0011
 4541TIP3    H235039   4.078   3.806  13.695 -1.3889 -0.0015  1.4536
 4542TIP3   OH235040   6.099   5.357   5.981  0.8494  0.1013  0.0987
 4542TIP3    H135041   6.052   5.437   5.959 -0.3439 -0.9142 -1.2328
 4542TIP3    H235042   6.189   5.374   5.952  0.2482  0.4041 -1.7719
 4543TIP3   OH235043   5.337   6.183   2.057 -0.7932 -0.2186  0.5734
 4543TIP3    H135044   5.355   6.100   2.102  1.4599 -0.1390 -0.0631
 4543TIP3    H235045   5.318   6.157   1.967 -1.2778 -0.1155  0.6449
 4544TIP3   OH235046   6.559   6.682  14.025  0.1581  0.1612  0.8306
 4544TIP3    H135047   6.587   6.631  14.102  1.5754  1.8436  1.5025
 4544TIP3    H235048   6.617   6.758  14.025  0.4509  0.0412 -2.1546
 4545TIP3   OH235049   1.621   2.979  11.360  0.0835  0.6865 -0.4100
 4545TIP3    H135050   1.538   2.941  11.391  0.5905 -0.9738 -1.0336
 4545TIP3    H235051   1.594   3.057  11.311 -1.2374 -0.5737 -1.7802
 4546TIP3   OH235052   0.980   4.263   2.306 -0.5355 -0.1354 -0.1223
 4546TIP3    H135053   1.032   4.230   2.233  0.6346 -0.2678  0.7435
 4546TIP3    H235054   0.976   4.191   2.368  0.3459  0.6529  0.9003
 4547TIP3   OH235055   0.475   3.519   2.778 -0.2965  0.2224 -0.1369
 4547TIP3    H135056   0.428   3.598   2.803 -2.3989 -0.7118 -0.8927
 4547TIP3    H235057   0.516   3.541   2.695 -0.5414  0.6296 -0.1537
 4548TIP3   OH235058   4.455   3.619  12.007  0.7263 -0.6685  0.0329
 4548TIP3    H135059   4.481   3.544  11.954  1.9979  0.5308 -1.1642
 4548TIP3    H235060   4.512   3.690  11.977  0.5028  0.4472  2.0532
 4549TIP3   OH235061   3.133   2.525  17.243  0.0622  0.4010  0.7015
 4549TIP3    H135062   3.113   2.455  17.304  3.5250 -2.4912 -1.1233
 4549TIP3    H235063   3.059   2.525  17.182  0.1493 -2.0747  0.4881
 4550TIP3   OH235064   4.025   6.167   3.496  0.1135  0.4626 -0.0871
 4550TIP3    H135065   4.029   6.078   3.533  0.2468  0.4552 -0.1187
 4550TIP3    H235066   4.028   6.154   3.402  0.9163  0.5354 -0.0833
 4551TIP3   OH235067   3.796   5.638   2.461 -0.4652 -0.6230 -0.0642
 4551TIP3    H135068   3.835   5.552   2.448  0.7303 -0.3213  1.2390
 4551TIP3    H235069   3.866   5.691   2.499 -1.5015  0.5972  0.2327
 4552TIP3   OH235070   5.330   1.353  13.199 -0.1380  0.3296  0.7280
 4552TIP3    H135071   5.355   1.288  13.134  0.8497  0.3322  1.0838
 4552TIP3    H235072   5.404   1.413  13.202 -0.5302  0.7936  1.2596
 4553TIP3   OH235073   2.934   3.955   5.513 -0.1654 -0.4344 -0.5511
 4553TIP3    H135074   3.022   3.932   5.545 -0.9889 -2.3295  0.4857
 4553TIP3    H235075   2.881   3.963   5.592 -0.7313  1.8326 -1.0893
 4554TIP3   OH235076   2.946   6.194   1.250  0.2123  0.1524  0.4434
 4554TIP3    H135077   3.012   6.132   1.281 -0.6773 -0.3614  1.4090
 4554TIP3    H235078   2.951   6.189   1.155 -0.8135 -2.5666  0.4346
 4555TIP3   OH235079   5.821   5.753  10.541  0.2811 -0.4955  0.0632
 4555TIP3    H135080   5.803   5.731  10.632 -3.0178  0.1135 -0.2872
 4555TIP3    H235081   5.748   5.715  10.492  1.4270  0.0339 -2.2143
 4556TIP3   OH235082   3.809   6.024  15.717 -0.3980 -0.1385  1.1875
 4556TIP3    H135083   3.899   6.056  15.704 -0.5684 -0.4004 -1.1502
 4556TIP3    H235084   3.819   5.948  15.773  0.7988  0.0708  1.2987
 4557TIP3   OH235085   4.431   0.836  11.173  0.1994 -0.4801  0.5905
 4557TIP3    H135086   4.396   0.897  11.237 -0.9933 -1.4429  0.8848
 4557TIP3    H235087   4.513   0.805  11.212  0.1589 -0.0566  1.0247
 4558TIP3   OH235088   3.471   6.131   4.867  0.3650 -0.1749  0.3734
 4558TIP3    H135089   3.540   6.131   4.933 -0.9129  0.8384  1.7653
 4558TIP3    H235090   3.394   6.096   4.912 -1.3624  3.3530  0.4259
 4559TIP3   OH235091   2.667   0.722  11.948 -0.0173 -0.4031  0.1683
 4559TIP3    H135092   2.620   0.770  11.880  1.9278 -0.3016 -1.1810
 4559TIP3    H235093   2.621   0.638  11.953 -0.7396 -0.0757 -0.6318
 4560TIP3   OH235094   6.549   3.190  16.532 -0.1642  0.1604  0.5399
 4560TIP3    H135095   6.557   3.261  16.469 -0.8412 -0.7613 -0.6370
 4560TIP3    H235096   6.631   3.192  16.582  0.4256  0.8649 -0.4329
 4561TIP3   OH235097   3.548   1.831   5.590 -0.6429  0.0400 -0.0530
 4561TIP3    H135098   3.585   1.916   5.611 -1.0510  0.2827 -0.3103
 4561TIP3    H235099   3.481   1.849   5.524 -0.3675 -0.5423 -0.5047
 4562TIP3   OH235100   1.209   5.174  16.691 -0.7131  0.6342 -0.3279
 4562TIP3    H135101   1.261   5.095  16.676 -0.3258  0.8233  0.0256
 4562TIP3    H235102   1.119   5.141  16.697 -0.6073  0.2714 -0.6167
 4563TIP3   OH235103   4.084   1.360  14.668 -0.4716 -0.5800 -0.3802
 4563TIP3    H135104   4.101   1.453  14.687  0.3338 -0.4940 -1.3775
 4563TIP3    H235105   4.094   1.316  14.752 -2.6821  0.4488  0.4782
 4564TIP3   OH235106   1.861   0.220  12.966  0.0941 -0.9008  0.1403
 4564TIP3    H135107   1.920   0.146  12.981  0.6638 -0.4608  0.1004
 4564TIP3    H235108   1.775   0.188  12.994  0.5461 -1.1816  1.2963
 4565TIP3   OH235109   1.190   3.380   2.470  0.7426 -0.0346 -0.1443
 4565TIP3    H135110   1.116   3.346   2.522 -0.1003 -0.7318 -1.7223
 4565TIP3    H235111   1.221   3.455   2.520  0.7509 -1.3342  1.9735
 4566TIP3   OH235112   3.942   6.500   4.676  0.0792 -0.1001 -0.2389
 4566TIP3    H135113   3.897   6.439   4.734  1.1710 -0.0771  0.6674
 4566TIP3    H235114   4.035   6.489   4.696  0.3567  1.2683 -0.6408
 4567TIP3   OH235115   2.426   6.716  14.430 -0.0361 -0.5265 -0.0998
 4567TIP3    H135116   2.438   6.622  14.414 -0.1551 -0.3316 -1.5035
 4567TIP3    H235117   2.506   6.757  14.398 -0.5011 -0.0491 -0.6820
 4568TIP3   OH235118   0.655   5.949   2.200  0.0593 -0.0599 -0.0867
 4568TIP3    H135119   0.652   5.903   2.116 -1.4767 -1.1572  0.5245
 4568TIP3    H235120   0.743   5.930   2.234 -0.0776 -1.4994 -0.4510
 4569TIP3   OH235121   5.399   4.069  12.080  0.0409 -0.0909  0.5130
 4569TIP3    H135122   5.401   3.973  12.084 -0.9724 -0.3007 -2.1640
 4569TIP3    H235123   5.338   4.089  12.009 -0.3767  2.5920  1.5083
 4570TIP3   OH235124   5.750   5.261  15.243 -0.3737  0.4983 -0.0785
 4570TIP3    H135125   5.783   5.221  15.162  1.5656  1.5568  0.1145
 4570TIP3    H235126   5.692   5.331  15.214  0.5927  1.1048 -0.5835
 4571TIP3   OH235127   0.321   6.155  14.175 -0.0433  0.0688  0.2251
 4571TIP3    H135128   0.394   6.119  14.225 -0.2468 -0.7721 -0.0685
 4571TIP3    H235129   0.327   6.250  14.188 -0.0757 -0.1217  1.8120
 4572TIP3   OH235130   5.783   6.087   0.667 -0.0892  0.4217  0.1610
 4572TIP3    H135131   5.819   6.023   0.729  1.9632  0.0753 -1.2769
 4572TIP3    H235132   5.763   6.036   0.588  0.2195  1.2996 -0.5046
 4573TIP3   OH235133   6.190   3.549   0.370 -0.1678  0.9043  1.1561
 4573TIP3    H135134   6.095   3.561   0.370 -0.2935  0.0844 -0.3694
 4573TIP3    H235135   6.207   3.494   0.446 -1.0984 -0.1051  0.6623
 4574TIP3   OH235136   4.420   1.428  14.244 -0.2778 -0.3157  0.3161
 4574TIP3    H135137   4.350   1.366  14.225  0.0035 -0.2957 -0.8574
 4574TIP3    H235138   4.393   1.471  14.326 -2.4073  0.8096 -0.8953
 4575TIP3   OH235139   1.750   6.097  11.607  0.0892 -0.1506  0.1564
 4575TIP3    H135140   1.656   6.088  11.589  0.1405  0.2155 -0.3394
 4575TIP3    H235141   1.786   6.010  11.593  0.0749  0.0428 -1.3088
 4576TIP3   OH235142   1.316   2.566   5.599 -0.5628 -0.5658 -0.4241
 4576TIP3    H135143   1.374   2.536   5.669  2.4177  0.3431 -2.3502
 4576TIP3    H235144   1.264   2.636   5.639 -1.2526 -2.1456  1.6568
 4577TIP3   OH235145   3.189   1.094  11.844 -0.3030 -0.4065  0.3511
 4577TIP3    H135146   3.186   0.998  11.843 -0.5525 -0.4240  1.5688
 4577TIP3    H235147   3.242   1.116  11.920  1.3129  0.4225 -0.9565
 4578TIP3   OH235148   5.052   2.859   3.056  0.0264 -0.4679  0.1449
 4578TIP3    H135149   5.081   2.774   3.022 -0.3715 -0.8171  0.6563
 4578TIP3    H235150   5.090   2.863   3.144 -0.9409 -0.6515  0.5818
 4579TIP3   OH235151   2.344   4.816  12.282  0.2532 -0.0894 -0.5186
 4579TIP3    H135152   2.299   4.790  12.362  0.0156  1.7238 -0.0170
 4579TIP3    H235153   2.278   4.806  12.213  0.2320 -0.9250 -0.3951
 4580TIP3   OH235154   2.988   5.141  12.170 -0.9305  0.5386  0.5080
 4580TIP3    H135155   2.956   5.088  12.243 -2.0587 -0.1630 -0.4533
 4580TIP3    H235156   2.953   5.228  12.186  0.2171  0.8159  1.6500
 4581TIP3   OH235157   0.902   3.181   5.254  0.5525 -0.4550  0.1679
 4581TIP3    H135158   0.876   3.200   5.344 -0.9980  1.1410 -0.5434
 4581TIP3    H235159   0.996   3.199   5.251  0.7206 -0.9774  1.5471
 4582TIP3   OH235160   4.887   1.692   5.419 -0.9174  0.3809  0.1715
 4582TIP3    H135161   4.854   1.619   5.365 -1.6685  0.6331  0.2801
 4582TIP3    H235162   4.830   1.691   5.497  0.3473 -0.1731  1.1207
 4583TIP3   OH235163   1.422   3.430  14.024  0.4275 -0.2697  0.1362
 4583TIP3    H135164   1.401   3.387  13.941  1.9001  1.2115 -1.0859
 4583TIP3    H235165   1.468   3.510  13.998  2.0087 -0.3550  2.4140
 4584TIP3   OH235166   4.764   4.717   3.029  0.5772  0.0852  0.6291
 4584TIP3    H135167   4.856   4.692   3.013  0.1776 -1.0866  0.0309
 4584TIP3    H235168   4.744   4.780   2.960  1.4137  1.6639  1.7721
 4585TIP3   OH235169   5.360   3.848   1.677 -0.2009 -0.4029 -0.2319
 4585TIP3    H135170   5.309   3.868   1.599  0.0716 -2.0219 -0.8755
 4585TIP3    H235171   5.344   3.754   1.693  0.4119 -0.3045  1.1611
 4586TIP3   OH235172   5.896   3.420  14.210 -0.3411 -0.6970  0.8912
 4586TIP3    H135173   5.834   3.402  14.281 -1.5312 -3.1719 -0.6092
 4586TIP3    H235174   5.852   3.387  14.131  1.9852 -0.4891 -0.5999
 4587TIP3   OH235175   3.234   0.527  15.510 -0.0992 -0.4361  0.7671
 4587TIP3    H135176   3.257   0.450  15.561 -0.6785 -0.1599  1.4767
 4587TIP3    H235177   3.316   0.575  15.499  0.3112 -1.2659  0.1051
 4588TIP3   OH235178   3.172   3.791  14.171  0.0295 -0.3772 -0.0419
 4588TIP3    H135179   3.149   3.710  14.125  1.2545 -0.3127 -0.8118
 4588TIP3    H235180   3.138   3.778  14.259  0.1269 -1.7101 -0.1718
 4589TIP3   OH235181   1.787   0.310   0.712 -0.0106  0.1098 -0.5065
 4589TIP3    H135182   1.786   0.263   0.629 -2.2306 -0.9928  0.0529
 4589TIP3    H235183   1.697   0.301   0.746  0.7257  0.7818  1.8600
 4590TIP3   OH235184   3.340   6.236   0.552  0.0126  0.1874  0.3874
 4590TIP3    H135185   3.246   6.255   0.544  0.0341 -0.4469 -2.1306
 4590TIP3    H235186   3.381   6.321   0.560 -0.7286  0.5196  0.7424
 4591TIP3   OH235187   4.877   4.927  13.977 -0.9350 -0.0501  0.6502
 4591TIP3    H135188   4.850   4.835  13.980 -0.1278 -0.3077  0.3525
 4591TIP3    H235189   4.950   4.928  13.915 -2.5978  1.2252 -1.4229
 4592TIP3   OH235190   0.746   1.482   1.565 -0.8221 -0.2951 -0.5839
 4592TIP3    H135191   0.748   1.532   1.647 -0.2298  0.3390 -0.9751
 4592TIP3    H235192   0.704   1.542   1.503  0.5514  0.0094 -1.2387
 4593TIP3   OH235193   4.065   5.685  11.993 -0.1493 -0.5061  0.1012
 4593TIP3    H135194   4.122   5.761  11.989 -1.5681  0.5360 -1.5917
 4593TIP3    H235195   4.125   5.611  12.003  1.4113  0.6535 -0.2713
 4594TIP3   OH235196   3.442   2.388  12.972 -0.0417  0.4322  0.0094
 4594TIP3    H135197   3.453   2.384  12.877 -0.9044  1.3689 -0.1348
 4594TIP3    H235198   3.532   2.384  13.006  0.3283  0.9107 -0.8764
 4595TIP3   OH235199   0.177   4.200   4.542  0.4205 -0.0562  0.2711
 4595TIP3    H135200   0.199   4.181   4.451 -1.5006 -0.9118 -0.0729
 4595TIP3    H235201   0.122   4.126   4.570  0.4045  0.5239  1.9101
 4596TIP3   OH235202   1.609   1.459   2.745  1.2411 -0.4366 -0.0965
 4596TIP3    H135203   1.632   1.425   2.659 -1.0692 -0.8677 -0.6296
 4596TIP3    H235204   1.664   1.536   2.757  1.5128 -0.2983 -2.0117
 4597TIP3   OH235205   4.148   0.482  15.982 -0.0620  0.2764  0.6770
 4597TIP3    H135206   4.066   0.433  15.983 -0.7092  1.1639 -2.0880
 4597TIP3    H235207   4.215   0.417  15.961 -0.3701 -0.0523  0.7103
 4598TIP3   OH235208   5.236   6.645   4.254  0.2931  0.3952 -0.0767
 4598TIP3    H135209   5.272   6.664   4.167  0.0310 -0.1514 -0.3136
 4598TIP3    H235210   5.305   6.598   4.299 -0.3116 -1.2169 -0.7547
 4599TIP3   OH235211   3.703   3.496   4.218  0.1424 -0.2231  0.1221
 4599TIP3    H135212   3.736   3.450   4.140 -1.6065 -1.7819  0.2367
 4599TIP3    H235213   3.624   3.541   4.188  0.0903  0.1152  0.7466
 4600TIP3   OH235214   3.270   1.986   5.566  0.4874 -0.1854 -0.5646
 4600TIP3    H135215   3.204   1.931   5.608 -0.7732  2.3366  1.0395
 4600TIP3    H235216   3.235   2.005   5.479 -1.4428  1.7315  0.5194
 4601TIP3   OH235217   0.886   2.466  12.097  0.5064  0.2426 -0.1557
 4601TIP3    H135218   0.808   2.500  12.142  0.4592  0.6248 -0.5238
 4601TIP3    H235219   0.887   2.373  12.120  1.3051  0.6900  1.8370
 4602TIP3   OH235220   1.336   4.978  13.568  0.0244  0.3007  0.3286
 4602TIP3    H135221   1.273   4.929  13.620 -0.0431  0.6131  0.5480
 4602TIP3    H235222   1.316   5.070  13.587  1.2007  0.3990  1.2126
 4603TIP3   OH235223   1.648   0.826  11.898 -0.2404 -0.4085 -0.2894
 4603TIP3    H135224   1.635   0.900  11.957 -2.8153 -1.8543  1.1370
 4603TIP3    H235225   1.594   0.848  11.821  1.8190  0.7244 -1.4968
 4604TIP3   OH235226   1.396   0.592   4.144  0.2477 -0.7461 -0.9199
 4604TIP3    H135227   1.367   0.658   4.208 -2.6490 -2.0308 -0.7365
 4604TIP3    H235228   1.428   0.644   4.070  0.9350  0.8072  0.3965
 4605TIP3   OH235229   6.458   2.695   4.163  0.0695 -0.0923  0.0660
 4605TIP3    H135230   6.485   2.641   4.089  0.2682 -0.4861  0.4290
 4605TIP3    H235231   6.531   2.690   4.225 -0.5744 -0.6751  0.7867
 4606TIP3   OH235232   0.209   3.104  11.865  0.4513 -0.3943  0.0340
 4606TIP3    H135233   0.246   3.133  11.949 -1.1059 -0.2500  0.7099
 4606TIP3    H235234   0.251   3.020  11.848  0.4071 -0.6818  1.2354
 4607TIP3   OH235235   2.173   5.064   3.591  0.2374 -0.4485 -0.0367
 4607TIP3    H135236   2.138   4.976   3.599  0.7925 -0.6954 -0.2931
 4607TIP3    H235237   2.119   5.105   3.523 -0.9947 -0.0823  1.1088
 4608TIP3   OH235238   5.263   1.596   2.006 -0.0611  0.4311  0.2861
 4608TIP3    H135239   5.324   1.636   2.068 -0.3823  1.3124  0.0498
 4608TIP3    H235240   5.302   1.613   1.920 -0.7518  1.2299  0.1174
 4609TIP3   OH235241   2.705   4.491   5.058 -0.1637  0.2630 -0.1085
 4609TIP3    H135242   2.781   4.499   5.115 -0.8954  1.2134  0.7833
 4609TIP3    H235243   2.647   4.563   5.085 -1.3851 -0.4402 -0.7501
 4610TIP3   OH235244   4.806   5.645   1.000  0.6853 -0.0488  0.2101
 4610TIP3    H135245   4.845   5.723   0.959  0.7638 -0.3154 -0.2327
 4610TIP3    H235246   4.772   5.676   1.083  0.5812  0.4953 -0.0316
 4611TIP3   OH235247   2.244   1.805   0.938 -0.2229 -0.0460 -0.1492
 4611TIP3    H135248   2.322   1.861   0.934 -0.2948 -0.0479 -2.0288
 4611TIP3    H235249   2.215   1.813   1.029  1.6944  0.3167  0.4813
 4612TIP3   OH235250   6.547   4.180  11.592 -0.0801 -0.2906 -0.4672
 4612TIP3    H135251   6.547   4.085  11.601 -0.0628 -0.3509 -1.0399
 4612TIP3    H235252   6.455   4.204  11.583 -0.0686 -0.2815 -0.5671
 4613TIP3   OH235253   4.532   0.267  17.218  0.3441 -0.0104 -0.1400
 4613TIP3    H135254   4.564   0.349  17.181  0.3868 -0.2266 -0.5933
 4613TIP3    H235255   4.553   0.273  17.311  1.5453 -0.0716 -0.3911
 4614TIP3   OH235256   2.388   4.386  12.992  0.2461  0.3154  0.5441
 4614TIP3    H135257   2.444   4.315  12.960 -1.0546 -0.8148  0.6768
 4614TIP3    H235258   2.368   4.438  12.915  1.9828  1.1358  0.6034
 4615TIP3   OH235259   0.256   6.380  17.001  0.4767 -0.1403 -0.1036
 4615TIP3    H135260   0.231   6.332  17.079  2.4358  0.9482  1.2790
 4615TIP3    H235261   0.298   6.315  16.944 -0.0799 -0.7477  0.1800
 4616TIP3   OH235262   0.064   2.650   0.453 -0.2471 -0.2547 -0.0411
 4616TIP3    H135263   0.094   2.639   0.543 -0.0988 -0.2592 -0.0900
 4616TIP3    H235264   0.143   2.636   0.400 -0.3233 -0.2046 -0.1681
 4617TIP3   OH235265   5.648   2.836   4.273 -0.5464 -0.2219  0.7499
 4617TIP3    H135266   5.560   2.832   4.311 -1.2971  1.2547 -0.7329
 4617TIP3    H235267   5.707   2.827   4.349 -1.9403  4.2093  2.6528
 4618TIP3   OH235268   3.185   5.093  16.967  0.3183 -0.9706 -0.3604
 4618TIP3    H135269   3.200   5.142  16.887  0.9995 -1.5160 -0.5826
 4618TIP3    H235270   3.214   5.151  17.038  0.5314 -0.8171 -0.5755
 4619TIP3   OH235271   6.030   3.519  13.850  0.6206 -0.2889  0.2790
 4619TIP3    H135272   5.951   3.562  13.817  0.9088  0.3119  0.3626
 4619TIP3    H235273   6.042   3.555  13.938  0.7307 -0.7242  0.4431
 4620TIP3   OH235274   5.428   0.544   0.599 -0.1866 -0.5745  0.1104
 4620TIP3    H135275   5.493   0.602   0.560 -0.3338 -1.2896 -1.2594
 4620TIP3    H235276   5.427   0.467   0.542 -1.8747 -0.7942  0.3802
 4621TIP3   OH235277   5.224   5.556  10.813 -0.0382 -0.4861  0.6523
 4621TIP3    H135278   5.272   5.600  10.743  0.4439 -1.5827  0.2609
 4621TIP3    H235279   5.248   5.464  10.803 -0.1626 -0.6900  2.1173
 4622TIP3   OH235280   2.218   4.920  16.822  0.6547  0.3822 -0.2308
 4622TIP3    H135281   2.252   4.918  16.732 -1.3493  0.7319 -1.0547
 4622TIP3    H235282   2.163   4.998  16.825 -0.3276 -0.3307  0.9127
 4623TIP3   OH235283   0.379   3.787   6.333 -0.5496  0.1299  0.5449
 4623TIP3    H135284   0.418   3.788   6.420  1.7155  0.7572 -0.3988
 4623TIP3    H235285   0.437   3.731   6.281 -1.3160  0.5013 -0.7807
 4624TIP3   OH235286   0.533   0.953  12.814 -0.1097 -0.0255 -0.0025
 4624TIP3    H135287   0.510   0.901  12.890 -3.5367 -1.4211 -1.7739
 4624TIP3    H235288   0.508   1.043  12.838 -0.3650 -0.2965  0.7824
 4625TIP3   OH235289   4.205   4.627   3.979 -0.1542  0.1179 -0.2042
 4625TIP3    H135290   4.168   4.640   3.892  1.4092  0.8197 -0.8084
 4625TIP3    H235291   4.178   4.538   4.004 -1.4120  0.2617 -0.9839
 4626TIP3   OH235292   4.392   4.288  15.494  0.7898  0.2936  0.4042
 4626TIP3    H135293   4.399   4.306  15.400 -0.3600 -1.2144 -0.0144
 4626TIP3    H235294   4.349   4.366  15.530  1.5418  1.0269 -0.2597
 4627TIP3   OH235295   1.686   4.375  12.281  0.0556 -0.6048 -0.5576
 4627TIP3    H135296   1.727   4.309  12.226  0.5390  0.0298 -0.9578
 4627TIP3    H235297   1.653   4.441  12.220 -0.2258 -0.3615 -0.1467
 4628TIP3   OH235298   4.728   3.912   2.976  0.3793 -0.6011 -0.2308
 4628TIP3    H135299   4.714   4.004   2.956  0.0265 -0.2747  1.3210
 4628TIP3    H235300   4.641   3.873   2.973  0.4822 -0.8055 -0.5482
 4629TIP3   OH235301   0.773   6.633  14.976 -0.9570 -0.5504  0.2831
 4629TIP3    H135302   0.807   6.546  14.999 -0.1460 -1.0484 -2.4220
 4629TIP3    H235303   0.852   6.684  14.959 -1.4686  0.3677  0.6412
 4630TIP3   OH235304   0.789   5.648   1.356 -0.3196 -0.3025  0.2678
 4630TIP3    H135305   0.759   5.603   1.435 -3.3081  0.1687 -0.4545
 4630TIP3    H235306   0.729   5.722   1.347 -0.9186 -1.0486 -3.0795
 4631TIP3   OH235307   0.244   3.838   1.389  0.7647  0.0584  0.2396
 4631TIP3    H135308   0.209   3.795   1.311  0.2680  0.1486  0.4085
 4631TIP3    H235309   0.222   3.779   1.461  0.4458  0.3981  0.4216
 4632TIP3   OH235310   5.374   6.557   6.274 -0.2229 -0.3036 -0.1077
 4632TIP3    H135311   5.354   6.490   6.209  0.4362 -1.0241  0.4184
 4632TIP3    H235312   5.421   6.625   6.225  0.8290 -1.1276 -0.2765
 4633TIP3   OH235313   0.540   6.595  12.695 -0.3344 -0.2569  0.1671
 4633TIP3    H135314   0.473   6.610  12.628  0.4746 -1.6729 -1.0030
 4633TIP3    H235315   0.532   6.502  12.716  0.4372 -0.1602  0.9387
 4634TIP3   OH235316   5.550   5.980  13.428  0.2102 -0.4795  0.7639
 4634TIP3    H135317   5.466   6.018  13.404  0.4793 -0.7795 -0.7528
 4634TIP3    H235318   5.564   6.008  13.519 -1.7021 -0.7701  1.1888
 4635TIP3   OH235319   0.604   2.648  12.110 -0.0129  0.1185  0.5534
 4635TIP3    H135320   0.625   2.568  12.159  1.8018  0.8737  1.1188
 4635TIP3    H235321   0.609   2.718  12.175 -1.5769  0.7166  0.0676
 4636TIP3   OH235322   4.396   0.502   1.168  0.5146 -0.1720  0.1698
 4636TIP3    H135323   4.305   0.495   1.198  0.6448 -0.4048  0.5169
 4636TIP3    H235324   4.438   0.422   1.200  0.6711 -0.3994 -0.5927
 4637TIP3   OH235325   2.445   2.266  15.481  0.1241  0.2912 -0.2824
 4637TIP3    H135326   2.472   2.358  15.472  2.5888 -0.2335  0.9920
 4637TIP3    H235327   2.368   2.269  15.538  1.7155  1.4314  1.9272
 4638TIP3   OH235328   3.297   2.861   6.007 -0.4699 -0.1550  0.3621
 4638TIP3    H135329   3.295   2.847   6.102 -1.2985 -0.2712  0.3361
 4638TIP3    H235330   3.328   2.778   5.971 -3.5445 -1.4510  0.3309
 4639TIP3   OH235331   6.433   5.407  14.255 -0.0732 -0.4099  0.6334
 4639TIP3    H135332   6.413   5.318  14.227  0.9786 -1.3072  2.4877
 4639TIP3    H235333   6.350   5.442  14.285 -0.6131 -0.5368 -0.6658
 4640TIP3   OH235334   2.832   6.512  13.407  0.0242  0.3150  0.2587
 4640TIP3    H135335   2.786   6.431  13.428  1.1128 -0.2919  0.3672
 4640TIP3    H235336   2.845   6.509  13.312 -0.9611  0.9317  0.0933
 4641TIP3   OH235337   0.436   5.660   5.497  0.6210 -0.4195  0.2407
 4641TIP3    H135338   0.485   5.694   5.572  1.4890  1.2664 -1.0297
 4641TIP3    H235339   0.500   5.615   5.443  1.2113  2.7934 -2.0213
 4642TIP3   OH235340   6.762   6.171  14.657  0.0044 -0.0726 -0.0414
 4642TIP3    H135341   6.782   6.260  14.628  1.5928 -0.0841  0.8992
 4642TIP3    H235342   6.847   6.133  14.677 -0.8449 -0.7378  2.6573
 4643TIP3   OH235343   2.396   5.120  15.436 -0.9741  0.4393  0.2994
 4643TIP3    H135344   2.455   5.044  15.447  0.2771  1.3713  0.2322
 4643TIP3    H235345   2.412   5.150  15.347 -0.9268  1.2127  0.5621
 4644TIP3   OH235346   6.061   5.219   4.759  0.0644  0.4006  0.3438
 4644TIP3    H135347   6.048   5.129   4.732 -0.7793  0.3005  1.0425
 4644TIP3    H235348   5.975   5.260   4.750 -0.2270  0.4010  2.6434
 4645TIP3   OH235349   0.739   2.241  14.564  0.0321  0.1746  0.3808
 4645TIP3    H135350   0.783   2.317  14.601 -1.5990  0.3060  2.2346
 4645TIP3    H235351   0.797   2.168  14.584 -0.4707  0.3285  2.8208
 4646TIP3   OH235352   3.619   4.006  14.318  0.0335  0.3791 -0.0092
 4646TIP3    H135353   3.566   4.062  14.262  2.3590  1.4740 -1.2363
 4646TIP3    H235354   3.565   3.927  14.331 -1.1968  0.7087 -2.5407
 4647TIP3   OH235355   3.143   3.473   3.489 -0.0941  0.2411  0.4976
 4647TIP3    H135356   3.102   3.548   3.532  0.6063 -0.2059  1.9991
 4647TIP3    H235357   3.072   3.430   3.442 -0.6739  1.3431  0.3180
 4648TIP3   OH235358   6.227   4.827   4.741 -0.5422 -0.2890  0.3301
 4648TIP3    H135359   6.245   4.734   4.752 -1.9028 -0.5041  0.8088
 4648TIP3    H235360   6.152   4.845   4.798 -2.6299  0.3163 -2.4113
 4649TIP3   OH235361   0.277   2.540   1.444  0.3629 -0.2909 -0.5650
 4649TIP3    H135362   0.332   2.590   1.504  0.9576 -1.3799 -0.1573
 4649TIP3    H235363   0.325   2.458   1.431 -1.0252 -1.1591 -0.4380
 4650TIP3   OH235364   5.748   5.435  13.129  0.7273 -0.1541 -0.0981
 4650TIP3    H135365   5.818   5.465  13.070  1.0720 -0.1248  0.3200
 4650TIP3    H235366   5.738   5.342  13.107 -0.7396  0.3476 -1.7913
 4651TIP3   OH235367   4.196   1.034  11.704  0.5532  0.0926  0.0881
 4651TIP3    H135368   4.102   1.051  11.710  0.1467 -1.2886 -1.6271
 4651TIP3    H235369   4.235   1.093  11.768 -1.4317  1.0672  0.4732
 4652TIP3   OH235370   5.872   2.141  14.632  0.4279  0.4891  0.2553
 4652TIP3    H135371   5.841   2.229  14.654 -0.2660 -0.0972  1.7263
 4652TIP3    H235372   5.861   2.091  14.713 -0.5265 -1.3330 -0.9519
 4653TIP3   OH235373   2.866   2.114  10.840  0.0722  0.1125 -0.4565
 4653TIP3    H135374   2.795   2.056  10.814 -0.4958  0.4084  0.3771
 4653TIP3    H235375   2.853   2.193  10.788 -0.7934  0.5323  0.3727
 4654TIP3   OH235376   4.016   1.233   4.854  0.4178  0.4798 -0.1174
 4654TIP3    H135377   4.091   1.175   4.837 -0.6985 -0.8228 -0.8536
 4654TIP3    H235378   3.969   1.191   4.926  1.2005  2.1312  1.4178
 4655TIP3   OH235379   0.561   4.856   3.714 -0.0199 -0.3054 -0.0898
 4655TIP3    H135380   0.648   4.869   3.675 -0.3084 -0.7264 -0.8982
 4655TIP3    H235381   0.500   4.871   3.642 -0.5207 -2.5276 -0.2076
 4656TIP3   OH235382   3.857   2.552   5.220  0.2234 -0.5400 -0.3338
 4656TIP3    H135383   3.780   2.608   5.231  0.4463 -0.5541  1.7696
 4656TIP3    H235384   3.833   2.470   5.262  0.8845 -1.0601 -0.9448
 4657TIP3   OH235385   0.273   1.800  13.393 -0.3334  0.3010  0.4021
 4657TIP3    H135386   0.306   1.865  13.330  0.3368 -0.9625 -0.6083
 4657TIP3    H235387   0.335   1.802  13.465  0.6686 -0.3882 -0.4098
 4658TIP3   OH235388   4.858   6.524  12.053  0.1039  0.0097  0.2097
 4658TIP3    H135389   4.907   6.586  12.000 -0.3203  1.2541  1.2271
 4658TIP3    H235390   4.869   6.440  12.008 -1.4550  1.2301 -2.6870
 4659TIP3   OH235391   0.840   1.921   3.439 -0.1064  0.1529  0.1155
 4659TIP3    H135392   0.763   1.864   3.440 -0.4803  0.6329 -0.3368
 4659TIP3    H235393   0.868   1.921   3.347  1.1775 -0.9780  0.4736
 4660TIP3   OH235394   0.830   5.243   2.487 -0.3490 -0.5604 -0.0392
 4660TIP3    H135395   0.921   5.263   2.505  0.0114  2.3003 -3.8010
 4660TIP3    H235396   0.781   5.306   2.540  0.0029 -0.2409 -0.0908
 4661TIP3   OH235397   1.751   2.589  16.033 -0.1344 -0.2294  0.4018
 4661TIP3    H135398   1.663   2.618  16.011 -0.1335 -1.0211 -0.7302
 4661TIP3    H235399   1.750   2.579  16.128 -0.6697  1.6109  0.6187
 4662TIP3   OH235400   3.798   4.131  15.358  0.1337 -0.1821  0.6315
 4662TIP3    H135401   3.711   4.145  15.320  0.1262 -2.6157 -0.4590
 4662TIP3    H235402   3.859   4.168  15.294 -0.0429  0.7994  1.0122
 4663TIP3   OH235403   2.190   6.071   3.437 -0.0096 -0.3232  0.1296
 4663TIP3    H135404   2.204   5.980   3.463 -3.0446 -0.9392  0.0006
 4663TIP3    H235405   2.262   6.119   3.478  3.1211 -2.9850 -1.7838
 4664TIP3   OH235406   6.357   2.467   3.771 -0.1049 -0.0482  0.5218
 4664TIP3    H135407   6.426   2.424   3.822  0.7689 -0.5783 -1.0302
 4664TIP3    H235408   6.357   2.557   3.801  0.9036 -0.1747  0.9338
 4665TIP3   OH235409   0.852   1.034   0.161  0.0464  0.0351  0.0952
 4665TIP3    H135410   0.927   1.017   0.104  0.1828  1.0443 -0.0377
 4665TIP3    H235411   0.807   0.950   0.167  0.9213 -0.4652 -0.2109
 4666TIP3   OH235412   3.727   1.663  14.466 -0.0451 -0.5376 -0.3813
 4666TIP3    H135413   3.709   1.571  14.443  2.7478 -1.3221  0.1799
 4666TIP3    H235414   3.794   1.690  14.404  0.9017  0.3151  0.9647
 4667TIP3   OH235415   1.279   4.685   5.905  0.4369  0.2805  0.6599
 4667TIP3    H135416   1.227   4.675   5.825 -0.9003  1.9951  1.2601
 4667TIP3    H235417   1.219   4.662   5.975  0.2336  2.7429  1.4001
 4668TIP3   OH235418   4.323   0.088  15.661 -0.4074 -0.1707 -0.4986
 4668TIP3    H135419   4.299   0.039  15.739 -1.8746  1.4145  0.1342
 4668TIP3    H235420   4.242   0.092  15.609  0.5477 -1.2482 -2.1704
 4669TIP3   OH235421   5.472   6.242   5.118 -0.8611  0.0387  0.4243
 4669TIP3    H135422   5.389   6.276   5.085  0.1271  1.7870 -0.4069
 4669TIP3    H235423   5.528   6.234   5.041 -0.5104 -2.0214  0.8365
 4670TIP3   OH235424   5.435   3.554  16.814 -0.2245 -0.0003  0.2307
 4670TIP3    H135425   5.500   3.618  16.842  1.6760 -0.9911 -1.6206
 4670TIP3    H235426   5.380   3.601  16.752  0.4079  0.1771 -0.2060
 4671TIP3   OH235427   5.027   2.509  15.082 -0.4224  0.2775  1.0699
 4671TIP3    H135428   5.035   2.604  15.085  0.9068  0.2002  0.6280
 4671TIP3    H235429   5.107   2.477  15.124 -0.7592 -0.6565  1.0313
 4672TIP3   OH235430   5.261   2.190   1.994  0.3268  0.0577  0.1704
 4672TIP3    H135431   5.177   2.226   1.965 -0.3289 -2.7912 -1.9134
 4672TIP3    H235432   5.325   2.256   1.968 -1.0639  1.3129 -0.2256
 4673TIP3   OH235433   6.534   1.478  14.744 -0.5561  0.2699 -0.0224
 4673TIP3    H135434   6.560   1.389  14.767 -1.4513  0.0379  0.1250
 4673TIP3    H235435   6.564   1.532  14.817  2.7644  0.6171 -1.4428
 4674TIP3   OH235436   4.843   2.457   3.856  1.0096 -0.6903 -0.1463
 4674TIP3    H135437   4.935   2.463   3.830  0.8089  1.4959 -0.5810
 4674TIP3    H235438   4.832   2.526   3.921 -0.0379 -1.8167  0.9183
 4675TIP3   OH235439   1.124   3.425  17.110 -0.5963  0.1621 -0.0093
 4675TIP3    H135440   1.148   3.508  17.151 -0.6288  0.0803  0.1770
 4675TIP3    H235441   1.074   3.379  17.177  0.6478 -0.6214  0.4229
 4676TIP3   OH235442   2.114   0.258   5.563  0.1117  0.6260  0.9807
 4676TIP3    H135443   2.099   0.279   5.655 -1.0719 -0.6187  1.1029
 4676TIP3    H235444   2.123   0.163   5.561 -2.0317  0.3652 -0.4112
 4677TIP3   OH235445   4.950   0.478   6.150  0.0832 -0.0458 -0.4699
 4677TIP3    H135446   4.902   0.445   6.227  1.2837 -2.3931 -0.6263
 4677TIP3    H235447   4.887   0.533   6.104 -2.3655 -2.5137 -0.3685
 4678TIP3   OH235448   3.968   2.802   2.767 -0.3916  0.4600 -0.3621
 4678TIP3    H135449   3.921   2.762   2.694 -1.0852  0.2851  0.1700
 4678TIP3    H235450   3.935   2.757   2.845 -0.7781  1.6769  0.1986
 4679TIP3   OH235451   5.765   2.330   0.965  0.2731 -0.2029 -0.1472
 4679TIP3    H135452   5.714   2.363   0.891  0.2851 -1.5146 -0.7852
 4679TIP3    H235453   5.840   2.285   0.925  0.4169 -0.7134  0.6606
 4680TIP3   OH235454   0.873   2.761   3.296  0.1906 -0.0183 -0.0949
 4680TIP3    H135455   0.868   2.779   3.202 -0.6943  1.3867  0.1878
 4680TIP3    H235456   0.812   2.689   3.310 -0.2465  0.2712 -0.4892
 4681TIP3   OH235457   0.223   5.322   0.439  0.2641 -0.3909 -0.2613
 4681TIP3    H135458   0.244   5.385   0.507 -0.4323 -0.8329  0.3827
 4681TIP3    H235459   0.280   5.346   0.365  0.3295  0.6972  0.1221
 4682TIP3   OH235460   0.003   1.513   3.902  0.3821 -0.1535 -0.0060
 4682TIP3    H135461   0.050   1.596   3.898 -1.1442  0.8238  1.2633
 4682TIP3    H235462   0.063   1.453   3.947  0.9363  0.6613  0.3537
 4683TIP3   OH235463   5.877   4.986  14.686 -0.1183  0.5557  0.0242
 4683TIP3    H135464   5.953   5.043  14.671  0.8507 -0.6010  0.3907
 4683TIP3    H235465   5.907   4.899  14.659 -1.7386  0.2813 -1.0263
 4684TIP3   OH235466   1.290   0.661  14.472  0.1318 -0.0982  0.0296
 4684TIP3    H135467   1.208   0.623  14.443 -0.0222 -0.8334  1.3501
 4684TIP3    H235468   1.266   0.720  14.544  0.5886  0.9581 -0.6582
 4685TIP3   OH235469   6.104   3.596   2.059 -0.3368 -0.0465  0.4358
 4685TIP3    H135470   6.050   3.542   2.118 -2.0545  0.8020 -0.3043
 4685TIP3    H235471   6.102   3.549   1.976  0.0116  0.0296  0.3839
 4686TIP3   OH235472   0.356   6.295  12.664 -0.2444  0.4827 -0.1146
 4686TIP3    H135473   0.294   6.336  12.605 -1.6902 -3.3974 -1.5857
 4686TIP3    H235474   0.441   6.302  12.619 -0.9300 -0.4414 -1.5933
 4687TIP3   OH235475   5.794   1.983   3.346  0.5262 -0.3942  0.3893
 4687TIP3    H135476   5.853   2.055   3.321  0.2666 -0.3688 -0.1626
 4687TIP3    H235477   5.708   2.011   3.315  0.1946 -0.3833  1.2983
 4688TIP3   OH235478   5.623   3.440   0.170  0.0305 -0.2579  0.3268
 4688TIP3    H135479   5.599   3.394   0.090  1.7194  0.3580 -0.5809
 4688TIP3    H235480   5.591   3.529   0.157 -1.0845 -0.5379  1.0378
 4689TIP3   OH235481   4.555   2.798   6.115  0.0777 -0.1551 -0.4035
 4689TIP3    H135482   4.601   2.759   6.041  0.5770  0.8291 -0.6295
 4689TIP3    H235483   4.625   2.821   6.176 -0.2712 -0.2398  0.0326
 4690TIP3   OH235484   5.617   0.271  15.268  0.2720 -0.0761  0.2033
 4690TIP3    H135485   5.696   0.266  15.214 -0.3614  1.1143 -0.8915
 4690TIP3    H235486   5.545   0.269  15.205 -0.5194  0.3531  1.0746
 4691TIP3   OH235487   4.046   6.705   1.235  0.0537 -1.2506 -0.0805
 4691TIP3    H135488   3.958   6.713   1.198  0.8241  1.3777 -1.5153
 4691TIP3    H235489   4.074   6.617   1.208 -0.9591 -0.9682 -2.3350
 4692TIP3   OH235490   5.649   2.105  15.087  0.3312 -0.7735  0.4347
 4692TIP3    H135491   5.596   2.173  15.128 -1.0795 -0.5387 -1.6053
 4692TIP3    H235492   5.654   2.035  15.153  1.0555  0.9002  2.2307
 4693TIP3   OH235493   3.651   3.638   2.226  0.2989  0.6071  0.1092
 4693TIP3    H135494   3.625   3.592   2.306 -0.7095  0.8504 -0.0696
 4693TIP3    H235495   3.612   3.725   2.235 -0.1496  0.5068 -0.8346
 4694TIP3   OH235496   0.384   2.274   5.332  0.3650  0.2891 -0.6125
 4694TIP3    H135497   0.417   2.194   5.372 -0.6035 -0.2799 -0.9387
 4694TIP3    H235498   0.385   2.257   5.238 -0.0760  0.5612 -0.6701
 4695TIP3   OH235499   0.948   2.536   1.397 -0.0061  0.4479  0.4496
 4695TIP3    H135500   0.912   2.505   1.480  1.4218 -1.4767  0.4035
 4695TIP3    H235501   1.009   2.605   1.422 -0.1911  0.4478  0.9216
 4696TIP3   OH235502   3.924   5.192   1.186 -0.0278  0.3390  0.6211
 4696TIP3    H135503   3.872   5.144   1.251 -0.5643 -1.2192 -0.8950
 4696TIP3    H235504   3.877   5.275   1.174 -1.1511 -0.2931  0.5880
 4697TIP3   OH235505   4.184   1.141  12.536  0.1751 -0.3668  0.6036
 4697TIP3    H135506   4.126   1.091  12.594 -0.1270 -0.6949  0.0214
 4697TIP3    H235507   4.213   1.215  12.590  0.6560 -1.1684  1.4874
 4698TIP3   OH235508   5.408   2.326  13.274 -0.0187 -0.3141 -0.0184
 4698TIP3    H135509   5.486   2.381  13.265  1.0556 -1.8495 -0.4230
 4698TIP3    H235510   5.347   2.379  13.326  1.1104  1.0906 -0.0821
 4699TIP3   OH235511   4.097   5.826   5.388 -0.2038  0.3707 -0.3637
 4699TIP3    H135512   4.087   5.921   5.381 -2.2194  0.1143 -2.1218
 4699TIP3    H235513   4.168   5.805   5.327  0.6127  0.7583  0.4253
 4700TIP3   OH235514   5.584   2.207   3.344 -0.0773  0.4114  1.0328
 4700TIP3    H135515   5.590   2.187   3.437  3.5106 -2.1114  0.4577
 4700TIP3    H235516   5.624   2.293   3.334 -0.1977  0.5541  1.7751
 4701TIP3   OH235517   5.134   4.691  12.314  0.5017  1.1011  0.2135
 4701TIP3    H135518   5.144   4.642  12.232 -1.7443  1.2232 -0.1934
 4701TIP3    H235519   5.132   4.624  12.382 -1.5447  0.6237 -0.2498
 4702TIP3   OH235520   1.255   0.884  14.667 -0.4293 -0.3076  0.1020
 4702TIP3    H135521   1.174   0.935  14.671 -0.1541  0.1716 -0.3320
 4702TIP3    H235522   1.301   0.906  14.748  0.7978  2.0462 -1.1238
 4703TIP3   OH235523   5.224   1.143  13.358 -0.1276  0.2723 -0.0296
 4703TIP3    H135524   5.177   1.197  13.293  1.9904  1.1445 -0.9374
 4703TIP3    H235525   5.269   1.207  13.413 -2.0076 -0.4454  2.5319
 4704TIP3   OH235526   5.729   3.317   2.260 -0.5074 -0.3492 -0.3208
 4704TIP3    H135527   5.775   3.386   2.308 -0.9196  1.0003 -1.7940
 4704TIP3    H235528   5.654   3.295   2.316 -1.4706  1.8096 -0.6729
 4705TIP3   OH235529   4.476   4.337   5.772  0.5755 -0.0036 -0.6711
 4705TIP3    H135530   4.546   4.275   5.750 -1.0945 -2.3354  0.1835
 4705TIP3    H235531   4.490   4.357   5.864  0.6978  0.3276 -0.7618
 4706TIP3   OH235532   3.020   1.345   4.346 -0.1934  0.3461  0.2336
 4706TIP3    H135533   3.061   1.277   4.292  0.3400  0.2767  0.7138
 4706TIP3    H235534   2.981   1.298   4.419 -2.0336  0.3028 -0.7139
 4707TIP3   OH235535   2.011   1.727   6.884  0.4052  0.0175 -0.5065
 4707TIP3    H135536   1.969   1.745   6.800 -1.6820  1.3751  0.7386
 4707TIP3    H235537   2.000   1.633   6.898 -0.4382  0.0163 -1.1449
 4708TIP3   OH235538   0.128   4.188   2.746 -0.1268  0.9091 -0.2688
 4708TIP3    H135539   0.186   4.168   2.820  0.1461  0.4174 -0.6065
 4708TIP3    H235540   0.059   4.242   2.783  0.0834  0.7786  0.3187
 4709TIP3   OH235541   4.522   0.551   5.585 -0.2171  0.1133  0.0604
 4709TIP3    H135542   4.448   0.591   5.541  0.6431  1.1623 -0.4672
 4709TIP3    H235543   4.576   0.625   5.614  0.6307 -0.6239  0.4113
 4710TIP3   OH235544   4.498   4.174  15.864  0.2055  0.0803  0.4147
 4710TIP3    H135545   4.454   4.089  15.860  2.0185 -0.8777 -0.2122
 4710TIP3    H235546   4.439   4.229  15.916 -1.1231 -1.4776  0.6397
 4711TIP3   OH235547   4.345   6.008  11.837 -0.1316 -0.2494 -0.0770
 4711TIP3    H135548   4.282   6.077  11.854  0.0694 -0.5059  2.0736
 4711TIP3    H235549   4.405   6.044  11.772 -1.7083  0.4711 -1.1697
 4712TIP3   OH235550   2.424   5.208  15.184  0.0219  0.2492  0.3964
 4712TIP3    H135551   2.362   5.267  15.140  1.4315  1.0702 -0.5768
 4712TIP3    H235552   2.449   5.145  15.116  0.7136  0.3071  0.5941
 4713TIP3   OH235553   1.166   2.419   4.295  0.3976  0.0945 -0.1766
 4713TIP3    H135554   1.127   2.380   4.217 -0.0660 -0.9909  0.5742
 4713TIP3    H235555   1.200   2.345   4.345 -0.7418  0.6056  1.4292
 4714TIP3   OH235556   2.352   6.035  14.288 -0.0550 -0.0414  0.2674
 4714TIP3    H135557   2.302   5.962  14.324  0.5803  0.5335  2.4910
 4714TIP3    H235558   2.286   6.094  14.252 -0.5204 -2.1651 -2.6901
 4715TIP3   OH235559   4.427   3.998  15.478 -0.3198 -0.1979  0.4879
 4715TIP3    H135560   4.408   4.085  15.514 -0.2328 -1.0577  2.8251
 4715TIP3    H235561   4.348   3.975  15.429  0.6094  2.1468 -2.4142
 4716TIP3   OH235562   3.705   5.469   1.320  0.1245 -0.2963  0.2994
 4716TIP3    H135563   3.611   5.468   1.337 -0.8239 -0.1798 -3.8525
 4716TIP3    H235564   3.722   5.555   1.282  1.3983 -1.1000 -1.0898
 4717TIP3   OH235565   2.592   5.570  15.006 -0.5617  0.1804  0.3062
 4717TIP3    H135566   2.557   5.503  14.948  1.3479 -1.1393  0.5648
 4717TIP3    H235567   2.687   5.556  15.004 -0.2345  1.8634  1.6156
 4718TIP3   OH235568   3.734   3.876  12.402  0.6622 -0.6661  0.5308
 4718TIP3    H135569   3.774   3.852  12.486 -1.3816 -3.0290  0.9298
 4718TIP3    H235570   3.742   3.798  12.348 -1.7499 -0.6265  0.0151
 4719TIP3   OH235571   4.328   0.524  13.426  0.1384  0.4679  0.1493
 4719TIP3    H135572   4.236   0.549  13.441 -0.6149 -2.6480  1.5500
 4719TIP3    H235573   4.374   0.556  13.503 -0.0806  0.6868  0.1925
 4720TIP3   OH235574   5.367   3.101   6.779 -0.4248  0.3645 -0.1466
 4720TIP3    H135575   5.400   3.163   6.845  0.5080  1.3790 -1.5068
 4720TIP3    H235576   5.429   3.028   6.782 -0.9447 -0.0511  0.7583
 4721TIP3   OH235577   1.326   6.453  15.302  0.4810 -0.5594  0.2118
 4721TIP3    H135578   1.366   6.541  15.302 -1.1486  0.2229 -0.3884
 4721TIP3    H235579   1.305   6.437  15.210 -1.8734 -0.2918  0.6508
 4722TIP3   OH235580   6.382   5.890  16.059 -0.2557  0.1810  0.2197
 4722TIP3    H135581   6.444   5.824  16.091  2.5854  2.6632  0.2993
 4722TIP3    H235582   6.432   5.971  16.059 -2.4086  1.7425 -3.3418
 4723TIP3   OH235583   5.374   5.587   3.250 -0.1156 -0.1734  0.3303
 4723TIP3    H135584   5.292   5.625   3.218  0.9689  1.5768 -0.4858
 4723TIP3    H235585   5.389   5.511   3.193 -1.3299 -0.7450  0.7358
 4724TIP3   OH235586   5.248   0.254  15.761  0.6428 -0.0895  0.0203
 4724TIP3    H135587   5.240   0.162  15.788  1.2797  0.2180  1.3213
 4724TIP3    H235588   5.282   0.249  15.671  1.1623 -1.1218  0.2541
 4725TIP3   OH235589   2.048   1.142   2.696 -0.1370  0.8597  0.2795
 4725TIP3    H135590   2.023   1.058   2.735  2.0717 -0.1630 -0.3430
 4725TIP3    H235591   2.000   1.145   2.613  4.0475 -2.8872 -2.8181
 4726TIP3   OH235592   1.809   3.890  14.403 -0.6077 -0.4823 -0.1349
 4726TIP3    H135593   1.820   3.870  14.496  0.0039  0.3571 -0.0142
 4726TIP3    H235594   1.892   3.929  14.376 -1.5754  1.5713 -0.4057
 4727TIP3   OH235595   2.820   1.809   5.575 -0.2407 -0.4587 -0.3782
 4727TIP3    H135596   2.795   1.730   5.623 -0.9392  0.5451  0.9702
 4727TIP3    H235597   2.768   1.878   5.614  2.8387  1.3519  0.9208
 4728TIP3   OH235598   1.027   5.659   5.429 -0.0329  0.1101  0.0363
 4728TIP3    H135599   1.040   5.754   5.424  1.1503  0.0302  1.2003
 4728TIP3    H235600   1.025   5.631   5.338 -1.2392  1.3417 -0.3550
 4729TIP3   OH235601   2.925   0.999   5.765  0.3263  0.3634 -0.1903
 4729TIP3    H135602   2.916   0.957   5.850  0.6450  0.2891 -0.1935
 4729TIP3    H235603   2.973   1.080   5.783  0.4376  0.3232 -0.3048
 4730TIP3   OH235604   2.235   0.074  16.326 -0.3198  0.0574 -0.4934
 4730TIP3    H135605   2.240   0.156  16.278  0.4024  2.0287  2.6183
 4730TIP3    H235606   2.320   0.032  16.312 -0.8087 -0.3865 -2.3529
 4731TIP3   OH235607   5.370   2.015  15.536 -0.1134 -0.3712  0.2625
 4731TIP3    H135608   5.454   2.059  15.543 -0.2590 -0.0896  0.2407
 4731TIP3    H235609   5.366   1.956  15.611 -0.4349  0.5232  0.9651
 4732TIP3   OH235610   0.506   1.719  12.554 -0.0762 -0.0755 -0.0466
 4732TIP3    H135611   0.469   1.796  12.512 -1.5685 -0.0211  1.2829
 4732TIP3    H235612   0.547   1.753  12.634 -2.7779 -0.8406  1.7798
 4733TIP3   OH235613   6.736   4.200   1.213 -0.2693 -0.6104 -0.0928
 4733TIP3    H135614   6.768   4.172   1.299 -1.9840 -1.8254  0.1887
 4733TIP3    H235615   6.807   4.253   1.177  1.0323 -1.2179  1.4924
 4734TIP3   OH235616   5.691   2.384  13.515  0.6156 -0.2021  0.1192
 4734TIP3    H135617   5.714   2.370  13.423 -2.0861 -1.5897 -0.4705
 4734TIP3    H235618   5.664   2.297  13.546 -1.0724  0.7286  1.4068
 4735TIP3   OH235619   0.559   4.353  17.211  0.0150 -0.1516  0.0654
 4735TIP3    H135620   0.586   4.442  17.235 -1.1016  0.9394 -2.3702
 4735TIP3    H235621   0.508   4.323  17.286 -2.6420  2.7486 -0.3609
 4736TIP3   OH235622   2.252   5.123   0.953  0.4452  0.2184 -0.1673
 4736TIP3    H135623   2.278   5.039   0.991 -1.5786 -0.4287 -0.1148
 4736TIP3    H235624   2.251   5.107   0.858 -2.3692 -0.6469 -0.0706
 4737TIP3   OH235625   4.777   5.716  13.167 -0.2746  0.2884  0.0181
 4737TIP3    H135626   4.714   5.736  13.098 -0.8000  1.1389  0.7252
 4737TIP3    H235627   4.845   5.783  13.158  0.6219 -0.6998 -0.8204
 4738TIP3   OH235628   3.505   5.289  14.656  0.1780 -0.0692 -0.0659
 4738TIP3    H135629   3.542   5.260  14.739 -0.5246 -1.2355 -0.1380
 4738TIP3    H235630   3.536   5.226  14.592  0.6028  0.7443 -0.6829
 4739TIP3   OH235631   3.189   3.012   0.093 -0.0548  0.2898  0.2864
 4739TIP3    H135632   3.223   3.038   0.008  1.1364  0.4095  0.7777
 4739TIP3    H235633   3.226   2.925   0.108  1.3876  1.0642  1.5198
 4740TIP3   OH235634   2.826   2.649  11.857  0.2476 -0.3340  0.3484
 4740TIP3    H135635   2.910   2.668  11.899  0.3833  0.3216 -0.1987
 4740TIP3    H235636   2.846   2.580  11.794  0.2609 -0.5668  0.6055
 4741TIP3   OH235637   2.807   2.930  16.697 -0.1383  0.4938  0.1611
 4741TIP3    H135638   2.788   2.861  16.633  0.8663 -0.7744  1.1646
 4741TIP3    H235639   2.722   2.952  16.735 -0.3173 -1.3480  0.9308
 4742TIP3   OH235640   5.482   4.171   1.833  0.0071  0.5035  0.1425
 4742TIP3    H135641   5.535   4.224   1.892 -0.7548  0.7351  0.6401
 4742TIP3    H235642   5.541   4.103   1.801  0.9419  1.5279 -0.3453
 4743TIP3   OH235643   3.982   6.544   1.950 -0.4552  0.0994 -0.1119
 4743TIP3    H135644   4.012   6.616   1.895  2.6694 -0.7676  0.2264
 4743TIP3    H235645   4.063   6.508   1.987 -2.1271 -1.8511  1.8889
 4744TIP3   OH235646   2.816   4.480   0.158  0.4458 -0.3451  0.5510
 4744TIP3    H135647   2.778   4.446   0.077 -0.5752 -1.1875  1.3372
 4744TIP3    H235648   2.785   4.570   0.163 -1.4767 -0.9821  1.1252
 4745TIP3   OH235649   3.549   6.186   0.807  0.6770  0.5622  0.2789
 4745TIP3    H135650   3.578   6.276   0.794  1.4763  0.3674  0.6083
 4745TIP3    H235651   3.586   6.139   0.732  2.1406  0.1203  1.2344
 4746TIP3   OH235652   5.569   3.450  13.755 -0.5208  0.3008  0.1906
 4746TIP3    H135653   5.479   3.428  13.731  0.1017 -1.6731 -0.5600
 4746TIP3    H235654   5.589   3.392  13.828  0.9111 -1.1070 -1.2519
 4747TIP3   OH235655   3.673   6.631   5.118 -0.5263 -0.4473  0.2077
 4747TIP3    H135656   3.635   6.698   5.175  1.1018  1.8285 -1.2065
 4747TIP3    H235657   3.734   6.679   5.062  1.4097 -3.2546 -0.3282
 4748TIP3   OH235658   2.736   4.118   1.664 -0.7894  0.4929 -0.3027
 4748TIP3    H135659   2.691   4.065   1.730  0.8567  0.2394  0.6802
 4748TIP3    H235660   2.824   4.132   1.700 -0.1733  1.2472 -1.9740
 4749TIP3   OH235661   0.790   1.912   2.873  0.0809 -0.1141  0.1247
 4749TIP3    H135662   0.727   1.956   2.929 -2.1520 -0.5534 -1.8353
 4749TIP3    H235663   0.749   1.827   2.853  1.7803 -0.8581 -0.4443
 4750TIP3   OH235664   3.826   4.847   0.390  0.9395 -0.2451  0.4911
 4750TIP3    H135665   3.915   4.881   0.379  0.0781  1.9637 -0.1073
 4750TIP3    H235666   3.812   4.847   0.484  1.0073  1.0005  0.5162
 4751TIP3   OH235667   4.801   1.511  11.988  0.0806 -0.3358  0.1834
 4751TIP3    H135668   4.892   1.499  12.015  0.4015 -0.5817 -0.9479
 4751TIP3    H235669   4.776   1.596  12.026  1.1598  0.2851 -0.4332
 4752TIP3   OH235670   1.087   4.584  11.947  0.5515 -0.2694 -0.5917
 4752TIP3    H135671   1.140   4.651  11.989  0.9892 -1.0502  0.1374
 4752TIP3    H235672   1.024   4.557  12.014  0.0460 -0.2443 -1.0415
 4753TIP3   OH235673   3.065   2.535  11.455  0.3902  0.3625  0.0909
 4753TIP3    H135674   3.121   2.476  11.505  0.9770  0.5163 -0.3822
 4753TIP3    H235675   3.031   2.597  11.520  0.0996 -0.2379  0.5189
 4754TIP3   OH235676   1.483   5.219  11.539  0.0474 -0.3661  0.3617
 4754TIP3    H135677   1.399   5.258  11.517 -0.1657  0.2082  1.9977
 4754TIP3    H235678   1.547   5.269  11.487 -0.5650 -0.4562 -0.4897
 4755TIP3   OH235679   3.613   0.475  13.568  0.1628 -0.0713  0.0851
 4755TIP3    H135680   3.590   0.509  13.481  0.2694  0.6805  0.3400
 4755TIP3    H235681   3.703   0.443  13.558  0.2619  0.2334 -0.0313
 4756TIP3   OH235682   3.890   0.109  12.382  0.0137  0.0910 -0.2056
 4756TIP3    H135683   3.811   0.150  12.416 -0.8815 -2.8882  1.6680
 4756TIP3    H235684   3.860   0.054  12.310  0.5468 -0.1979 -0.2189
 4757TIP3   OH235685   6.162   5.642   0.054 -0.0478 -0.2048  0.1465
 4757TIP3    H135686   6.194   5.678   0.137  0.3893 -1.4866  0.5481
 4757TIP3    H235687   6.194   5.552   0.053 -1.8555 -0.8822 -0.4277
 4758TIP3   OH235688   6.505   1.002  15.882  0.5492 -0.5672  0.5108
 4758TIP3    H135689   6.419   1.037  15.859  0.4176 -0.6364  0.8880
 4758TIP3    H235690   6.487   0.913  15.912  1.0108 -1.4612 -1.6481
 4759TIP3   OH235691   2.826   0.636  11.633 -0.2390 -0.1345 -0.0171
 4759TIP3    H135692   2.860   0.614  11.719 -1.3262 -0.5015  0.3280
 4759TIP3    H235693   2.874   0.715  11.608  1.1482 -0.8644  0.2608
 4760TIP3   OH235694   4.482   6.559  12.701  0.0538  0.2855  0.0462
 4760TIP3    H135695   4.555   6.600  12.654  0.0352 -1.5184 -1.7048
 4760TIP3    H235696   4.404   6.602  12.666  0.0887 -0.4947 -1.0408
 4761TIP3   OH235697   5.403   2.412   4.657  0.5241 -0.2105 -0.4831
 4761TIP3    H135698   5.456   2.447   4.728  1.3044 -0.3794 -0.9695
 4761TIP3    H235699   5.416   2.317   4.661 -1.7791 -0.5558  0.9871
 4762TIP3   OH235700   0.171   5.061   0.610 -0.2610  0.5087  0.1592
 4762TIP3    H135701   0.173   5.105   0.525 -0.9547 -0.6371 -0.4839
 4762TIP3    H235702   0.263   5.060   0.639 -0.0791  1.2973 -0.3580
 4763TIP3   OH235703   6.540   5.514   1.306 -0.6199  0.3282 -0.0825
 4763TIP3    H135704   6.472   5.537   1.369 -0.7256  3.4254 -1.1737
 4763TIP3    H235705   6.604   5.584   1.312  0.6179 -0.5763 -1.6856
 4764TIP3   OH235706   4.523   2.304  11.303 -0.2495 -0.0705 -0.0585
 4764TIP3    H135707   4.459   2.269  11.366 -0.5958 -1.6086 -1.2128
 4764TIP3    H235708   4.476   2.375  11.259 -0.0290  0.9761  1.3039
 4765TIP3   OH235709   3.335   4.726   0.320  0.1311 -0.5776  0.4724
 4765TIP3    H135710   3.383   4.698   0.398 -0.4726 -3.4700 -0.0456
 4765TIP3    H235711   3.394   4.705   0.247 -1.2217 -2.8202 -0.0764
 4766TIP3   OH235712   6.603   4.412  11.388 -0.0823  0.1101 -0.4621
 4766TIP3    H135713   6.588   4.335  11.443  0.9237 -0.5084 -1.0353
 4766TIP3    H235714   6.685   4.394  11.342 -0.9335  0.5507 -2.2474
 4767TIP3   OH235715   2.674   4.032   5.425 -0.0427 -0.5245  0.0228
 4767TIP3    H135716   2.767   4.031   5.447 -0.0955 -0.0351  0.2881
 4767TIP3    H235717   2.645   4.120   5.449 -0.8344 -1.0498  1.0574
 4768TIP3   OH235718   4.282   2.316  13.669 -0.1605  0.0231 -0.6366
 4768TIP3    H135719   4.372   2.291  13.649 -0.4686 -1.8709  0.0535
 4768TIP3    H235720   4.233   2.293  13.590  0.0981  2.2294 -1.4966
 4769TIP3   OH235721   4.966   2.726   5.749 -0.4334  0.5745 -0.5774
 4769TIP3    H135722   4.950   2.820   5.740 -0.0541  0.7587  0.4746
 4769TIP3    H235723   4.892   2.684   5.706 -1.3316  1.3648  0.1514
 4770TIP3   OH235724   6.691   4.027   0.595  0.4729  0.1486  0.2847
 4770TIP3    H135725   6.757   3.968   0.559 -0.0604  0.6551 -1.6616
 4770TIP3    H235726   6.719   4.114   0.566  0.0499  0.5998  1.2020
 4771TIP3   OH235727   4.503   5.436   6.114  0.0255  0.2344 -0.5513
 4771TIP3    H135728   4.445   5.389   6.055 -1.3816 -1.6507  2.1395
 4771TIP3    H235729   4.505   5.525   6.080 -2.2611 -0.2918 -2.2913
 4772TIP3   OH235730   1.724   4.691  15.640 -0.0421  0.1538  0.1066
 4772TIP3    H135731   1.811   4.653  15.648 -0.2485 -0.2019  0.6925
 4772TIP3    H235732   1.732   4.753  15.568  0.3360 -0.8897 -0.7845
 4773TIP3   OH235733   1.831   0.193   1.635  0.1476  0.7820 -0.0320
 4773TIP3    H135734   1.862   0.114   1.678  1.0457  0.3230 -1.4539
 4773TIP3    H235735   1.739   0.200   1.661  0.7611  0.8278  2.3241
 4774TIP3   OH235736   1.088   0.645   3.996 -0.2186 -0.2852 -0.2407
 4774TIP3    H135737   1.118   0.708   4.062  1.8306 -0.3014 -1.0932
 4774TIP3    H235738   1.155   0.577   3.995 -1.0234 -1.0967 -1.2384
 4775TIP3   OH235739   2.680   5.159   2.684 -0.0667  0.0563 -0.0606
 4775TIP3    H135740   2.742   5.094   2.716 -0.8093 -0.7098 -0.1385
 4775TIP3    H235741   2.612   5.162   2.751  0.0963  0.9574  0.0702
 4776TIP3   OH235742   5.344   3.985  11.257 -0.2755 -0.6883  0.3757
 4776TIP3    H135743   5.262   4.006  11.301 -1.3096 -0.1615 -1.6527
 4776TIP3    H235744   5.385   4.070  11.241  0.9802 -0.9776  1.8660
 4777TIP3   OH235745   3.799   3.228  15.249 -0.0681 -0.1437 -0.0841
 4777TIP3    H135746   3.846   3.151  15.282 -1.1477 -0.3253  1.1380
 4777TIP3    H235747   3.711   3.219  15.287 -0.3359  1.4633 -0.2860
 4778TIP3   OH235748   6.327   3.400   5.685  0.4379  0.1679 -0.1327
 4778TIP3    H135749   6.237   3.368   5.683  0.6902 -0.6122  0.3163
 4778TIP3    H235750   6.364   3.362   5.765  1.2170  0.3236 -0.4074
 4779TIP3   OH235751   0.038   2.643  13.227  0.0396  0.0212  0.0397
 4779TIP3    H135752   0.104   2.650  13.295 -0.0202  0.1262  0.0880
 4779TIP3    H235753   0.052   2.557  13.188  0.8740  0.4493 -0.6392
 4780TIP3   OH235754   1.810   1.146  11.593 -0.3972  0.2306 -0.2067
 4780TIP3    H135755   1.815   1.185  11.505  2.7758 -1.3500 -0.8795
 4780TIP3    H235756   1.773   1.059  11.578  1.8085 -0.7369 -0.3460
 4781TIP3   OH235757   6.089   1.133   6.605  0.7906  0.0159 -0.0299
 4781TIP3    H135758   6.094   1.059   6.544  2.1563  1.4944 -1.8393
 4781TIP3    H235759   6.020   1.189   6.569  1.4438  0.7880 -0.1193
 4782TIP3   OH235760   4.677   6.666   5.635 -0.5259  0.0873 -0.2827
 4782TIP3    H135761   4.745   6.621   5.584  1.1202  1.4070  0.6674
 4782TIP3    H235762   4.632   6.721   5.571 -0.8671 -0.9486 -0.9596
 4783TIP3   OH235763   5.921   5.153  12.540 -0.4995 -0.7381  0.2613
 4783TIP3    H135764   5.886   5.067  12.519 -0.6021 -0.6579  0.0976
 4783TIP3    H235765   5.973   5.178  12.464 -0.8192 -0.4734  0.1243
 4784TIP3   OH235766   1.439   3.314  14.273  0.1655  0.2147  0.6049
 4784TIP3    H135767   1.509   3.259  14.238  0.6379  0.6290  0.8740
 4784TIP3    H235768   1.419   3.375  14.202  1.1638  1.0927  1.0423
 4785TIP3   OH235769   0.782   0.139  15.393  0.0107  0.0324  0.1172
 4785TIP3    H135770   0.814   0.191  15.319  1.2484 -3.3351 -1.9638
 4785TIP3    H235771   0.862   0.111  15.439 -0.5829 -0.3378  0.9535
 4786TIP3   OH235772   0.339   1.482   2.884 -0.7253  0.6330  0.1278
 4786TIP3    H135773   0.260   1.526   2.853 -1.9961 -1.9565 -0.6345
 4786TIP3    H235774   0.306   1.415   2.944  0.8870 -0.4580 -0.1569
 4787TIP3   OH235775   5.903   1.773  13.832 -0.1414 -0.5323  0.2997
 4787TIP3    H135776   5.932   1.804  13.918 -1.7507  0.6790  0.4482
 4787TIP3    H235777   5.816   1.737  13.847  1.2294 -4.4468 -0.0691
 4788TIP3   OH235778   4.924   3.328  16.710 -0.2021  0.0757  0.8892
 4788TIP3    H135779   4.892   3.370  16.630 -2.4656  0.9865  2.1706
 4788TIP3    H235780   4.930   3.235  16.688  0.3220  0.4516 -0.6397
 4789TIP3   OH235781   3.863   5.668   4.542  0.3586  0.3707 -0.0839
 4789TIP3    H135782   3.826   5.642   4.458 -0.3835 -1.1283  0.6650
 4789TIP3    H235783   3.806   5.740   4.571  1.0125  1.3386 -1.1299
 4790TIP3   OH235784   4.676   1.014   5.786  0.0573 -0.0068 -0.5694
 4790TIP3    H135785   4.635   1.100   5.774  0.8725  0.3686 -0.8199
 4790TIP3    H235786   4.655   0.989   5.876 -0.2556  0.4271 -0.5209
 4791TIP3   OH235787   2.183   2.486  14.560  0.5561  0.5478  0.0600
 4791TIP3    H135788   2.236   2.533  14.624  1.0616 -0.8694  0.7351
 4791TIP3    H235789   2.119   2.550  14.530 -1.1458  0.7354  3.6101
 4792TIP3   OH235790   1.074   3.254  12.052  0.1149 -0.1248  0.0046
 4792TIP3    H135791   1.103   3.344  12.065 -2.1513  0.7085 -0.1515
 4792TIP3    H235792   1.045   3.252  11.960  1.9715 -1.6133 -0.6010
 4793TIP3   OH235793   4.695   1.650   2.967 -0.2475  0.1996  0.1732
 4793TIP3    H135794   4.621   1.631   3.025  0.2071  1.9187  1.4107
 4793TIP3    H235795   4.705   1.572   2.914 -1.9767 -0.6650  1.0433
 4794TIP3   OH235796   6.203   1.171  15.249  0.2802 -0.3358  0.4117
 4794TIP3    H135797   6.143   1.181  15.323 -1.7307 -0.5939 -1.1198
 4794TIP3    H235798   6.163   1.222  15.179  2.3848  0.2840 -0.4043
 4795TIP3   OH235799   5.299   0.822   4.412 -0.4925 -0.1284 -0.5490
 4795TIP3    H135800   5.381   0.792   4.373 -1.1721 -1.7035 -0.8946
 4795TIP3    H235801   5.312   0.812   4.506  0.0797  0.6684 -0.5406
 4796TIP3   OH235802   4.027   4.174   2.372  0.1647 -0.1531 -0.0047
 4796TIP3    H135803   4.007   4.253   2.323  0.6230 -0.5074 -0.7843
 4796TIP3    H235804   3.944   4.126   2.375 -0.0804  0.2885  0.3556
 4797TIP3   OH235805   1.906   2.237   0.081 -0.0439  0.0959  0.0751
 4797TIP3    H135806   1.937   2.201   0.164 -0.4848  0.2028  0.2899
 4797TIP3    H235807   1.867   2.162   0.036  2.4416 -0.5616 -1.1712
 4798TIP3   OH235808   2.681   1.393   4.803 -0.1768 -0.0345 -0.0487
 4798TIP3    H135809   2.733   1.450   4.859 -1.2803  0.1535  0.8150
 4798TIP3    H235810   2.597   1.386   4.848 -0.4944 -1.2937 -0.8090
 4799TIP3   OH235811   4.006   0.590   2.911  0.3196 -0.1622 -0.2515
 4799TIP3    H135812   4.007   0.613   3.004  0.9506  2.3220 -0.7992
 4799TIP3    H235813   4.083   0.535   2.899  0.5483 -0.0412  0.5948
 4800TIP3   OH235814   5.960   1.661  10.947  0.0550  0.1191 -0.7747
 4800TIP3    H135815   5.975   1.619  10.863  0.6801  0.3765 -0.7982
 4800TIP3    H235816   6.033   1.633  11.002  0.0024  0.4648 -0.5200
 4801TIP3   OH235817   2.845   4.845  12.105 -0.4714  0.4659  0.2198
 4801TIP3    H135818   2.870   4.814  12.193  0.5197  1.6683  0.3830
 4801TIP3    H235819   2.762   4.890  12.118 -0.4524  0.4225  0.4958
 4802TIP3   OH235820   3.112   3.748   0.814 -0.0072  0.1415  0.5747
 4802TIP3    H135821   3.106   3.789   0.727  2.6558  0.8552  0.6422
 4802TIP3    H235822   3.043   3.791   0.865 -1.1995  0.1731 -0.9602
 4803TIP3   OH235823   1.403   1.422  11.070  0.1506 -0.1085 -0.8022
 4803TIP3    H135824   1.357   1.505  11.065 -0.0461 -0.2682 -2.0645
 4803TIP3    H235825   1.434   1.406  10.981  0.2355 -1.3575 -0.5777
 4804TIP3   OH235826   3.903   2.751  13.911 -0.0250  0.1254 -0.3855
 4804TIP3    H135827   3.949   2.774  13.992 -1.0321 -0.4661  0.3733
 4804TIP3    H235828   3.943   2.669  13.883  1.3389  1.0585 -1.3291
 4805TIP3   OH235829   2.456   5.414   4.670 -0.0780  0.1775  0.0145
 4805TIP3    H135830   2.480   5.437   4.580  0.5509  0.4723  0.2574
 4805TIP3    H235831   2.418   5.494   4.706  1.1012  0.5285  0.5077
 4806TIP3   OH235832   3.928   6.436   3.413  0.0991 -0.3752 -0.6821
 4806TIP3    H135833   3.979   6.356   3.427  1.3084  0.5153  0.1137
 4806TIP3    H235834   3.991   6.500   3.379 -1.2564 -0.3011 -3.3324
 4807TIP3   OH235835   6.066   3.065   5.472  0.0516  0.6730 -0.2256
 4807TIP3    H135836   6.037   3.115   5.548 -0.1617 -0.3502  0.3995
 4807TIP3    H235837   5.993   3.073   5.409 -1.6826 -1.7635  1.2827
 4808TIP3   OH235838   1.691   2.533   0.811  0.2263  0.5337 -0.3563
 4808TIP3    H135839   1.725   2.612   0.770  0.1507  0.5414 -0.4048
 4808TIP3    H235840   1.615   2.562   0.861 -0.9583  0.1996 -1.9132
 4809TIP3   OH235841   0.328   5.098   0.036  0.1103 -0.5362 -0.1385
 4809TIP3    H135842   0.268   5.107   0.110 -1.1032  0.8793 -1.2048
 4809TIP3    H235843   0.300   5.017  -0.008 -0.0605 -0.6516  0.1815
 4810TIP3   OH235844   0.802   4.194  12.949 -0.6401 -0.5146  0.1055
 4810TIP3    H135845   0.890   4.157  12.954 -0.4766 -0.2289 -0.5999
 4810TIP3    H235846   0.750   4.138  13.007 -0.1482 -1.1194 -0.0216
 4811TIP3   OH235847   4.046   5.989   5.067  0.1111  0.1641 -0.3228
 4811TIP3    H135848   4.065   6.024   5.154  0.1331  0.9187 -0.6274
 4811TIP3    H235849   4.118   6.020   5.012  0.1673 -0.4176 -0.5882
 4812TIP3   OH235850   6.630   0.133  15.038 -0.3375  0.3135 -0.1085
 4812TIP3    H135851   6.575   0.185  15.096 -1.1121 -1.4209  0.7614
 4812TIP3    H235852   6.627   0.180  14.954  0.7917  2.8449  1.1708
 4813TIP3   OH235853   4.176   3.887   3.091 -0.6093  0.0241 -0.7285
 4813TIP3    H135854   4.175   3.896   3.186  0.1953  1.3697 -0.8332
 4813TIP3    H235855   4.096   3.932   3.062 -1.6799 -1.6971 -0.6303
 4814TIP3   OH235856   1.024   5.632  17.166 -0.4325  0.0225  0.4297
 4814TIP3    H135857   0.968   5.566  17.207  0.4870 -1.1002 -0.0658
 4814TIP3    H235858   1.032   5.603  17.075 -2.3184  2.3778 -0.5986
 4815TIP3   OH235859   0.875   6.320   3.134  0.0292 -0.4133 -0.7194
 4815TIP3    H135860   0.946   6.280   3.085 -0.1931 -0.5091 -0.9665
 4815TIP3    H235861   0.810   6.344   3.068 -0.6454 -1.3042 -0.3998
 4816TIP3   OH235862   5.979   6.715   1.002 -0.5624 -0.2715  0.0557
 4816TIP3    H135863   6.024   6.753   0.927  0.5254 -0.9553  0.3435
 4816TIP3    H235864   5.990   6.621   0.992 -0.7857 -0.3912  0.8377
 4817TIP3   OH235865   4.020   5.627   3.489 -0.3433 -0.6030 -0.5080
 4817TIP3    H135866   3.971   5.685   3.548 -0.6059 -0.0177 -1.2864
 4817TIP3    H235867   4.070   5.570   3.548 -0.2650  0.2510  0.2717
 4818TIP3   OH235868   6.078   6.280   5.396  0.0983 -0.4477  0.4917
 4818TIP3    H135869   6.160   6.296   5.349  0.3565 -0.4372  0.9424
 4818TIP3    H235870   6.049   6.194   5.365  0.2608 -0.4358  0.3054
 4819TIP3   OH235871   4.098   0.684  15.011  0.5285  0.0967  0.4883
 4819TIP3    H135872   4.098   0.615  14.945 -0.2569 -0.1359  0.7178
 4819TIP3    H235873   4.024   0.663  15.068  0.9173  0.5467  1.1775
 4820TIP3   OH235874   5.774   1.973   5.337  0.6157  0.1586 -0.3814
 4820TIP3    H135875   5.744   1.986   5.247  2.7526  2.2264 -0.9155
 4820TIP3    H235876   5.836   1.901   5.332 -0.8215 -1.1362 -0.1159
 4821TIP3   OH235877   5.522   5.923  12.923  0.4670  0.1815 -0.7520
 4821TIP3    H135878   5.531   5.934  12.829 -0.6287 -0.4321 -0.9406
 4821TIP3    H235879   5.543   5.831  12.939 -2.2027 -0.5085 -0.8218
 4822TIP3   OH235880   1.811   3.688   3.892  0.3667  0.2237  0.4258
 4822TIP3    H135881   1.795   3.628   3.819 -0.9479 -0.4325  1.2155
 4822TIP3    H235882   1.890   3.653   3.935  0.4417 -0.0949  0.0363
 4823TIP3   OH235883   3.554   0.501   3.405  0.3794 -0.3034  0.0264
 4823TIP3    H135884   3.563   0.595   3.393  3.2872  0.2790  4.4737
 4823TIP3    H235885   3.466   0.489   3.441  1.3323  1.5055  3.3599
 4824TIP3   OH235886   5.108   4.517  15.436  0.3204 -0.4485 -0.0813
 4824TIP3    H135887   5.182   4.577  15.446  0.2046 -0.5471  1.7627
 4824TIP3    H235888   5.116   4.457  15.510 -0.9931 -1.1419 -0.4763
 4825TIP3   OH235889   0.824   6.768   0.628 -0.2157 -0.4643 -0.3859
 4825TIP3    H135890   0.812   6.673   0.629 -0.5534 -0.4230  1.0079
 4825TIP3    H235891   0.764   6.799   0.561 -0.3555 -1.1916 -0.6126
 4826TIP3   OH235892   4.833   1.604  11.349 -0.0837 -0.3724  0.0609
 4826TIP3    H135893   4.920   1.623  11.312 -0.5963  0.1294 -0.9280
 4826TIP3    H235894   4.847   1.526  11.403  0.4571 -2.1010 -2.3701
 4827TIP3   OH235895   5.316   3.189  12.321  0.5091  0.0604 -0.0606
 4827TIP3    H135896   5.388   3.250  12.337  0.7501 -0.0514 -0.7075
 4827TIP3    H235897   5.291   3.158  12.408  0.9560  0.4271  0.2010
 4828TIP3   OH235898   6.543   1.345   3.083 -0.5679 -0.4485 -0.1228
 4828TIP3    H135899   6.624   1.294   3.082  0.4636  1.1253 -0.5643
 4828TIP3    H235900   6.534   1.374   3.174  1.1484  1.9761 -0.6191
 4829TIP3   OH235901   6.383   6.671   1.506  0.0237 -0.6460 -0.0669
 4829TIP3    H135902   6.298   6.694   1.543 -0.0827  1.0660 -1.2726
 4829TIP3    H235903   6.445   6.685   1.577 -0.6432 -1.5955  0.7257
 4830TIP3   OH235904   0.711   2.256  13.602 -0.4023  0.1862 -0.1829
 4830TIP3    H135905   0.745   2.173  13.636 -0.2370 -1.1896 -3.3066
 4830TIP3    H235906   0.691   2.308  13.679  2.1322 -1.6731  1.9046
 4831TIP3   OH235907   5.950   2.796  14.768  0.1499 -0.6729 -0.4055
 4831TIP3    H135908   5.915   2.877  14.806  2.6330  0.1817  0.2093
 4831TIP3    H235909   5.944   2.809  14.673  0.9409  0.4500 -0.3172
 4832TIP3   OH235910   4.105   0.525   2.535  0.3900 -0.0843 -0.1111
 4832TIP3    H135911   4.050   0.595   2.572  1.0507  0.2307  0.2970
 4832TIP3    H235912   4.089   0.449   2.591  1.9142  0.5804  1.3144
 4833TIP3   OH235913   4.646   3.257   2.192 -0.3378 -0.4157  0.3380
 4833TIP3    H135914   4.603   3.285   2.111 -0.8170  2.6194  1.4979
 4833TIP3    H235915   4.737   3.241   2.166 -0.7748 -0.8743 -1.0185
 4834TIP3   OH235916   4.845   0.658   5.413  0.0107 -0.0092 -0.0540
 4834TIP3    H135917   4.797   0.680   5.493 -0.5815 -0.1107 -0.3751
 4834TIP3    H235918   4.779   0.664   5.343  0.2670 -0.9360 -0.3945
 4835TIP3   OH235919   1.419   5.776  16.263  0.2942 -0.4491 -0.4812
 4835TIP3    H135920   1.428   5.865  16.297  1.3785 -0.7754  0.1413
 4835TIP3    H235921   1.325   5.764  16.254 -0.1140 -0.3731  2.6399
 4836TIP3   OH235922   2.122   3.463   1.889 -0.2715 -0.0648 -0.4061
 4836TIP3    H135923   2.061   3.459   1.962 -1.6059  0.0895 -1.4772
 4836TIP3    H235924   2.189   3.398   1.910 -0.6175 -0.0174  0.9379
 4837TIP3   OH235925   3.403   2.061  13.414  0.0951 -0.1008 -0.7785
 4837TIP3    H135926   3.369   2.069  13.324  1.1405  1.0557 -1.1095
 4837TIP3    H235927   3.385   1.971  13.439 -2.0155  0.1030 -1.4060
 4838TIP3   OH235928   6.749   3.781  15.582 -0.6787  0.2382 -0.5438
 4838TIP3    H135929   6.692   3.842  15.533  0.9865  2.0402 -0.3456
 4838TIP3    H235930   6.838   3.811  15.563  0.1683 -1.5224  0.4395
 4839TIP3   OH235931   2.194   0.837   2.983  0.9622  0.0638  0.0171
 4839TIP3    H135932   2.251   0.876   2.918  2.9124  1.2970  2.3090
 4839TIP3    H235933   2.251   0.778   3.033 -1.0994 -3.1411 -1.0590
 4840TIP3   OH235934   0.638   6.212  15.937  0.2348  0.4773  0.5355
 4840TIP3    H135935   0.702   6.272  15.975  0.0582  0.8219  0.2861
 4840TIP3    H235936   0.654   6.129  15.983  0.6652  0.6352  0.6790
 4841TIP3   OH235937   0.089   3.948   2.624 -0.7975  0.4178 -0.0964
 4841TIP3    H135938   0.099   3.897   2.705  0.6516 -0.7524 -0.9539
 4841TIP3    H235939   0.099   4.039   2.651 -0.3768  0.0497  1.0497
 4842TIP3   OH235940   3.786   3.663   0.304  0.0464 -0.1481  0.1185
 4842TIP3    H135941   3.816   3.608   0.232 -1.1549 -0.4851 -0.1592
 4842TIP3    H235942   3.769   3.748   0.264  3.0974  0.8936  0.7783
 4843TIP3   OH235943   0.288   0.624   4.433 -0.4249  0.6546 -0.1958
 4843TIP3    H135944   0.194   0.605   4.432 -0.8557  1.8892  3.4018
 4843TIP3    H235945   0.293   0.719   4.429  0.5018  0.7040  1.3147
 4844TIP3   OH235946   4.302   2.853  15.627  0.3114  0.2408  0.0444
 4844TIP3    H135947   4.371   2.917  15.641  0.0584  0.3700  0.7812
 4844TIP3    H235948   4.274   2.829  15.716  0.3228 -0.8003 -0.2182
 4845TIP3   OH235949   6.665   0.194   1.103  0.2260  0.0782 -0.1256
 4845TIP3    H135950   6.616   0.277   1.098  0.9173  0.6475  1.6860
 4845TIP3    H235951   6.747   0.211   1.056  0.6600  0.6743  0.8210
 4846TIP3   OH235952   4.323   0.915  15.394  0.4549  0.7381  0.2961
 4846TIP3    H135953   4.241   0.948  15.355  0.5225 -0.3562 -0.8345
 4846TIP3    H235954   4.300   0.896  15.485 -0.6111  0.2463 -0.0552
 4847TIP3   OH235955   5.363   5.387  14.221  0.3185 -0.6961  0.1749
 4847TIP3    H135956   5.360   5.478  14.191 -1.6865 -0.4845  0.8639
 4847TIP3    H235957   5.401   5.392  14.309  5.7206 -1.2648 -1.7490
 4848TIP3   OH235958   0.210   0.988  15.978  0.5789 -0.7904  0.1524
 4848TIP3    H135959   0.259   1.070  15.985  1.2638 -1.2799  1.4021
 4848TIP3    H235960   0.155   0.999  15.900 -0.0351  1.2303  0.8253
 4849TIP3   OH235961   1.145   3.145  10.816  0.0428 -0.0803 -0.2792
 4849TIP3    H135962   1.121   3.222  10.868  0.8408  0.1604 -0.2473
 4849TIP3    H235963   1.062   3.103  10.795 -0.4171  0.8533 -0.3860
 4850TIP3   OH235964   1.769   5.724   4.025  0.0666  0.0838  0.5543
 4850TIP3    H135965   1.798   5.676   4.103  0.1114 -1.2586 -0.2696
 4850TIP3    H235966   1.680   5.695   4.010  0.2293 -0.0531 -0.1873
 4851TIP3   OH235967   5.941   2.104   1.195 -0.3201 -0.3503 -0.0638
 4851TIP3    H135968   5.883   2.119   1.269 -0.7186 -0.9985 -0.2288
 4851TIP3    H235969   5.917   2.016   1.164 -0.1188 -0.1107 -0.9192
 4852TIP3   OH235970   3.665   5.378  11.115  0.3823 -0.2936  0.1019
 4852TIP3    H135971   3.669   5.292  11.157 -0.0645  0.9449  2.9063
 4852TIP3    H235972   3.757   5.403  11.102  0.5168 -1.3620 -1.2474
 4853TIP3   OH235973   3.972   5.851   0.043 -0.1927 -0.1368  0.5045
 4853TIP3    H135974   3.944   5.911   0.112 -1.5381  1.3555 -1.2587
 4853TIP3    H235975   3.940   5.890  -0.038  2.2977 -1.2518 -1.1312
 4854TIP3   OH235976   2.699   4.398   2.009  0.6378  0.2818  0.5043
 4854TIP3    H135977   2.701   4.494   2.008  1.6560  0.2952 -1.6972
 4854TIP3    H235978   2.620   4.376   2.058 -0.3162  2.2723 -0.0481
 4855TIP3   OH235979   1.285   4.316  16.175  0.1371  0.1742 -0.3236
 4855TIP3    H135980   1.205   4.280  16.214  0.3727 -1.9960 -1.6824
 4855TIP3    H235981   1.260   4.336  16.085  0.8825  0.3702 -0.4873
 4856TIP3   OH235982   5.591   3.697   0.085  0.0926  0.1433 -0.6339
 4856TIP3    H135983   5.659   3.706   0.018  1.0588  1.9571  0.5042
 4856TIP3    H235984   5.594   3.780   0.132 -1.9164 -0.3335  0.4031
 4857TIP3   OH235985   3.860   3.960   1.756  0.2773  0.0352  0.2792
 4857TIP3    H135986   3.765   3.944   1.755  0.6063 -2.1518  0.4151
 4857TIP3    H235987   3.889   3.933   1.669  0.7903  0.6546  0.2585
 4858TIP3   OH235988   4.179   4.256  13.141 -0.2128 -0.0058  0.3697
 4858TIP3    H135989   4.186   4.306  13.059 -0.2816  0.8799  0.8920
 4858TIP3    H235990   4.268   4.256  13.176 -0.3984  0.6171  0.8618
 4859TIP3   OH235991   5.547   4.356   2.057  0.2551 -0.4314  0.1612
 4859TIP3    H135992   5.501   4.278   2.088  1.7879 -0.9133  1.3531
 4859TIP3    H235993   5.559   4.410   2.136  0.4935  0.3194 -0.3792
 4860TIP3   OH235994   0.134   5.892   1.644 -0.3161 -0.0459 -0.1115
 4860TIP3    H135995   0.174   5.970   1.607 -2.9438  1.0534 -0.8509
 4860TIP3    H235996   0.131   5.909   1.738  2.3846 -0.9302  0.2210
 4861TIP3   OH235997   2.234   1.304  16.895  0.3519  0.0215  0.1231
 4861TIP3    H135998   2.164   1.268  16.840  0.5842  0.2878 -0.3486
 4861TIP3    H235999   2.276   1.227  16.934  0.4080 -0.1875 -0.3397
 4862TIP3   OH236000   6.240   1.755   5.172 -0.5901 -0.5163  0.1447
 4862TIP3    H136001   6.186   1.691   5.127 -0.3256 -0.3452 -0.4184
 4862TIP3    H236002   6.317   1.706   5.201  0.7353 -0.0058 -2.3044
 4863TIP3   OH236003   3.824   6.177  16.824  0.7620 -0.1250  0.4993
 4863TIP3    H136004   3.819   6.252  16.883  0.0350  0.0042  0.2777
 4863TIP3    H236005   3.735   6.166  16.791  1.4124  0.6798 -1.6910
 4864TIP3   OH236006   5.381   0.174  14.194 -0.5516 -0.2747  0.7199
 4864TIP3    H136007   5.307   0.170  14.255 -1.1123  1.3718  0.2111
 4864TIP3    H236008   5.430   0.252  14.221  0.2148 -0.5532  0.1783
 4865TIP3   OH236009   5.936   2.059   1.734  0.2984  0.1583  0.2545
 4865TIP3    H136010   6.019   2.093   1.700 -0.3189  1.2792 -0.1955
 4865TIP3    H236011   5.885   2.138   1.756 -1.2043 -0.4698 -0.8177
 4866TIP3   OH236012   6.666   1.961   5.641  0.6095  0.1130 -0.5972
 4866TIP3    H136013   6.744   1.967   5.696  0.2225  0.6108 -0.0891
 4866TIP3    H236014   6.638   2.052   5.629 -0.6829 -0.1183  0.3956
 4867TIP3   OH236015   1.666   3.608   1.947  0.2105  0.1286 -0.0607
 4867TIP3    H136016   1.702   3.653   1.870 -0.4705  2.4508  0.9049
 4867TIP3    H236017   1.600   3.549   1.911  0.7860  0.2288 -1.3562
 4868TIP3   OH236018   6.446   1.960  15.240  0.6176  0.5947 -0.1925
 4868TIP3    H136019   6.371   1.916  15.279  1.3061 -1.6120 -1.1656
 4868TIP3    H236020   6.414   1.992  15.156  1.0228 -1.6491 -1.2876
 4869TIP3   OH236021   0.566   4.386   4.196  0.2893  0.4510  0.7333
 4869TIP3    H136022   0.512   4.357   4.123  1.1740  0.4516  0.0605
 4869TIP3    H236023   0.591   4.476   4.174  1.6536  0.0075  0.3688
 4870TIP3   OH236024   6.048   1.435   5.480 -0.2353  0.3054 -0.3921
 4870TIP3    H136025   5.953   1.447   5.489 -0.0238  0.8129  1.5033
 4870TIP3    H236026   6.085   1.478   5.556  1.8843  3.8591 -3.0938
 4871TIP3   OH236027   4.820   3.293   3.494 -0.5482  0.2592  0.1407
 4871TIP3    H136028   4.810   3.368   3.435 -0.9650  0.8369  0.9198
 4871TIP3    H236029   4.752   3.232   3.467 -0.6563  0.4674 -0.0644
 4872TIP3   OH236030   2.582   4.233  15.398  0.3744  0.6748 -0.0335
 4872TIP3    H136031   2.582   4.161  15.461 -0.0778  1.4557  0.9001
 4872TIP3    H236032   2.667   4.275  15.409 -0.4336  2.0317  1.5695
 4873TIP3   OH236033   0.098   3.201  15.393 -0.7209  0.7931 -0.7265
 4873TIP3    H136034   0.025   3.146  15.423 -0.1925  0.1416 -0.6163
 4873TIP3    H236035   0.163   3.139  15.359 -0.1993  1.3611 -0.7823
 4874TIP3   OH236036   6.543   4.447   6.222  0.2029 -0.3489 -0.0959
 4874TIP3    H136037   6.589   4.497   6.289  1.9464 -0.0176 -1.4505
 4874TIP3    H236038   6.466   4.500   6.201 -0.1104 -0.2375  1.2882
 4875TIP3   OH236039   2.349   5.175  16.204  0.0810 -0.0362  0.1282
 4875TIP3    H136040   2.390   5.160  16.289 -1.3883 -1.6429  0.6183
 4875TIP3    H236041   2.277   5.236  16.222 -0.4525 -0.6531  0.1244
 4876TIP3   OH236042   0.335   3.341   3.459 -0.0877  0.3239  0.3650
 4876TIP3    H136043   0.264   3.305   3.405 -0.3721  2.7571 -1.0589
 4876TIP3    H236044   0.370   3.412   3.406  1.9226  0.6498  2.0367
 4877TIP3   OH236045   4.539   1.818   5.779 -0.2846  1.1045 -0.8060
 4877TIP3    H136046   4.485   1.890   5.746 -0.7957  0.1604 -2.1140
 4877TIP3    H236047   4.498   1.739   5.743  0.3124  0.1495  0.5149
 4878TIP3   OH236048   2.832   5.023  14.896  0.5140  0.0348  0.0504
 4878TIP3    H136049   2.806   5.010  14.987 -0.8831 -0.2993 -0.3748
 4878TIP3    H236050   2.924   4.997  14.893  0.2188 -1.1854  1.0990
 4879TIP3   OH236051   2.901   3.393  15.063 -0.3793  0.0055 -0.0264
 4879TIP3    H136052   2.877   3.482  15.089 -0.3069 -0.0786  0.3344
 4879TIP3    H236053   2.928   3.351  15.144 -2.4155 -1.0001  0.2142
 4880TIP3   OH236054   4.161   3.472   0.776  0.4273  0.4771 -0.2462
 4880TIP3    H136055   4.142   3.414   0.702  0.7657 -1.1851  0.9099
 4880TIP3    H236056   4.121   3.428   0.852  1.6202  1.1937  0.8398
 4881TIP3   OH236057   3.755   1.626  12.900  0.6770  0.0287  0.9198
 4881TIP3    H136058   3.672   1.673  12.907  0.3781 -0.4751  0.8431
 4881TIP3    H236059   3.822   1.694  12.902  0.1968  0.6195 -1.0868
 4882TIP3   OH236060   1.775   4.376  15.035 -0.0530  0.8862  0.0681
 4882TIP3    H136061   1.819   4.456  15.064 -1.1787  1.3271  0.6121
 4882TIP3    H236062   1.752   4.393  14.943  1.2825  0.4690 -0.3699
 4883TIP3   OH236063   1.493   4.178   2.946  0.2404  0.5340  0.0271
 4883TIP3    H136064   1.518   4.152   3.035 -1.5659  0.0760  0.4445
 4883TIP3    H236065   1.528   4.266   2.936  1.3767  0.2011  0.7774
 4884TIP3   OH236066   3.672   3.303  10.948  0.3076  0.6651  0.3152
 4884TIP3    H136067   3.706   3.272  10.864  0.8558 -1.6388  1.3262
 4884TIP3    H236068   3.629   3.386  10.927  0.4345  0.1624 -2.2306
 4885TIP3   OH236069   1.535   2.411  15.450  0.2356  0.2575  0.1352
 4885TIP3    H136070   1.611   2.378  15.498  0.0951  0.0310  0.2047
 4885TIP3    H236071   1.567   2.489  15.406  0.6197 -0.0552 -0.1525
 4886TIP3   OH236072   0.496   3.596   5.716 -0.4522 -0.1385 -0.1825
 4886TIP3    H136073   0.495   3.581   5.621 -0.8356  0.6571 -0.3155
 4886TIP3    H236074   0.584   3.629   5.733 -1.4437  3.3938 -0.9245
 4887TIP3   OH236075   3.244   5.483   0.116 -0.2088  0.2674  0.1651
 4887TIP3    H136076   3.236   5.542   0.192 -0.9484  0.2363  0.1202
 4887TIP3    H236077   3.311   5.523   0.062 -1.6792  1.8868 -0.5706
 4888TIP3   OH236078   2.873   4.717  14.812  0.0462  0.1425 -0.6243
 4888TIP3    H136079   2.840   4.803  14.789  0.4340  0.3380 -0.4661
 4888TIP3    H236080   2.963   4.733  14.841 -0.6222  0.0112  1.6856
 4889TIP3   OH236081   5.147   2.651  16.970  0.5133  0.1213  0.4238
 4889TIP3    H136082   5.053   2.658  16.987  0.6360 -0.6995  1.4872
 4889TIP3    H236083   5.185   2.726  17.016  0.7391 -1.5506  3.1491
 4890TIP3   OH236084   3.839   5.426   1.014 -0.5254  0.6235 -0.0703
 4890TIP3    H136085   3.816   5.398   0.926 -0.3933  0.7487 -0.1456
 4890TIP3    H236086   3.775   5.494   1.036 -2.0429 -1.0329  0.8511
 4891TIP3   OH236087   0.858   3.463   5.678 -0.0171 -0.1446  0.4060
 4891TIP3    H136088   0.806   3.536   5.712  0.4218 -0.1931  1.2232
 4891TIP3    H236089   0.948   3.486   5.702  0.3734 -0.0055 -1.0750
 4892TIP3   OH236090   5.315   5.727   5.623  0.2296  0.7200  0.1569
 4892TIP3    H136091   5.397   5.721   5.574  0.6270  2.3165  0.5608
 4892TIP3    H236092   5.337   5.695   5.711  0.3095  0.7413  0.1447
 4893TIP3   OH236093   5.920   1.725  14.962 -0.3331  0.0052  0.4239
 4893TIP3    H136094   5.886   1.691  14.879 -0.4844 -0.6064  0.7271
 4893TIP3    H236095   5.903   1.654  15.025  2.0512 -0.5902  0.4824
 4894TIP3   OH236096   1.224   4.141   5.579 -0.0546 -0.0623 -0.2119
 4894TIP3    H136097   1.223   4.213   5.517 -1.7788  0.8230  0.7442
 4894TIP3    H236098   1.227   4.183   5.665 -2.2534 -1.0184  0.4161
 4895TIP3   OH236099   1.704   4.001   0.983 -0.0400 -0.0912 -0.9051
 4895TIP3    H136100   1.654   3.975   0.905 -3.1207  1.0476  0.5328
 4895TIP3    H236101   1.760   4.072   0.953 -0.5563 -0.2070 -2.2393
 4896TIP3   OH236102   2.495   3.846   5.505  0.0075  0.2104  0.3725
 4896TIP3    H136103   2.557   3.917   5.486  1.1893 -0.5494  1.2377
 4896TIP3    H236104   2.410   3.880   5.475  0.7549  1.4492 -0.4649
 4897TIP3   OH236105   3.081   5.031   4.955  0.3405  0.1531  0.6635
 4897TIP3    H136106   3.164   4.983   4.945 -0.1918 -0.9345  1.2673
 4897TIP3    H236107   3.095   5.112   4.907  0.8174 -1.1541 -1.5523
 4898TIP3   OH236108   3.085   4.985  14.886 -0.7259  0.1904 -0.4144
 4898TIP3    H136109   3.153   4.923  14.864 -0.6136 -0.1716  0.8838
 4898TIP3    H236110   3.132   5.067  14.905 -0.8256  0.5132 -1.5022
 4899TIP3   OH236111   1.125   2.719  14.635  0.5304 -0.4571  0.2427
 4899TIP3    H136112   1.170   2.792  14.679  0.2573  0.3442 -0.7716
 4899TIP3    H236113   1.154   2.723  14.544 -0.6193 -0.6929 -0.1606
 4900TIP3   OH236114   4.176   3.109   6.569 -0.1471  0.2249 -0.3112
 4900TIP3    H136115   4.168   3.197   6.532 -2.2862  1.2834  2.3100
 4900TIP3    H236116   4.219   3.123   6.654  0.3980 -1.4215 -0.2816
 4901TIP3   OH236117   4.936   4.043  12.846  0.1855 -0.1229 -0.2138
 4901TIP3    H136118   4.881   3.967  12.831 -0.3571  0.0162  1.0037
 4901TIP3    H236119   5.008   4.011  12.900 -0.6549  0.4339  1.2880
 4902TIP3   OH236120   4.551   1.110   0.977  0.0218 -0.1942  0.0241
 4902TIP3    H136121   4.505   1.026   0.968  1.1441 -0.7471 -0.7248
 4902TIP3    H236122   4.590   1.107   1.064 -0.3842 -0.2030  0.2115
 4903TIP3   OH236123   4.626   3.022   1.450  0.1938  0.0266 -0.4871
 4903TIP3    H136124   4.530   3.024   1.447  0.1704 -0.7835 -0.3888
 4903TIP3    H236125   4.649   2.931   1.433  0.9274  0.0627  0.2792
 4904TIP3   OH236126   4.965   2.026  17.010 -0.5607  0.7551 -0.1415
 4904TIP3    H136127   4.893   2.063  17.060  0.2222 -0.3131  1.8667
 4904TIP3    H236128   4.948   2.054  16.920 -3.5242  0.4471  0.2326
 4905TIP3   OH236129   5.745   2.447   3.369 -0.2615 -0.7008 -0.0473
 4905TIP3    H136130   5.827   2.451   3.320 -0.2287  1.5203  0.1057
 4905TIP3    H236131   5.723   2.538   3.388 -1.0731 -1.3739  2.7691
 4906TIP3   OH236132   1.254   4.852  12.376 -0.4749 -0.5279 -0.2161
 4906TIP3    H136133   1.265   4.759  12.395  0.4683 -0.7451 -1.6821
 4906TIP3    H236134   1.314   4.897  12.435 -0.0955 -0.9349 -0.2931
 4907TIP3   OH236135   0.598   4.051   6.207  0.1877 -0.2962  0.2627
 4907TIP3    H136136   0.505   4.027   6.201  0.2932 -1.2163  1.8496
 4907TIP3    H236137   0.599   4.130   6.261  0.2825  0.1845 -0.4288
 4908TIP3   OH236138   3.742   3.641  12.273 -0.0571  0.4013 -0.0887
 4908TIP3    H136139   3.784   3.581  12.212  1.3415  1.4121 -0.1710
 4908TIP3    H236140   3.724   3.588  12.350  0.5474 -0.2849 -0.4041
 4909TIP3   OH236141   5.001   3.649  13.170  0.6269  0.1514 -0.3641
 4909TIP3    H136142   4.924   3.615  13.216  0.4712  0.4310 -0.4123
 4909TIP3    H236143   5.034   3.576  13.118  0.8125 -0.1749  0.2037
 4910TIP3   OH236144   6.193   6.714  11.663 -0.0923  0.6884 -0.0277
 4910TIP3    H136145   6.267   6.726  11.604 -1.1654  0.7044 -1.4100
 4910TIP3    H236146   6.223   6.650  11.727  0.9489  0.3403 -0.8452
 4911TIP3   OH236147   5.913   0.843  12.661  0.1534  0.4601  0.1092
 4911TIP3    H136148   6.006   0.824  12.671 -0.1727 -0.2229  2.2390
 4911TIP3    H236149   5.909   0.938  12.651  1.0616  0.5197  0.2338
 4912TIP3   OH236150   0.961   4.092   2.544 -0.3410  0.1993  0.0973
 4912TIP3    H136151   1.003   4.148   2.609  0.9810  0.1517 -0.6818
 4912TIP3    H236152   0.979   4.003   2.575  0.6116  0.1676 -0.4853
 4913TIP3   OH236153   5.276   0.027  13.412 -0.5978 -0.1752 -0.0567
 4913TIP3    H136154   5.346   0.060  13.357 -0.9268  1.2967  0.3400
 4913TIP3    H236155   5.234   0.106  13.447 -2.3768 -1.0029 -0.1882
 4914TIP3   OH236156   3.831   4.386  16.027 -0.1577  0.6775  0.2992
 4914TIP3    H136157   3.744   4.414  16.056 -0.3098  0.7350 -0.2134
 4914TIP3    H236158   3.846   4.433  15.945  0.1131  0.2249  0.0851
 4915TIP3   OH236159   3.447   1.898   4.466 -0.1029  0.2765  0.0933
 4915TIP3    H136160   3.498   1.975   4.442 -1.3297  1.3532  0.8073
 4915TIP3    H236161   3.437   1.850   4.384  1.1753  0.5525 -0.2506
 4916TIP3   OH236162   3.951   3.659   4.639 -0.5209  0.1684 -0.7053
 4916TIP3    H136163   3.984   3.666   4.729  0.8175  2.0673 -1.2796
 4916TIP3    H236164   3.886   3.589   4.643  0.2991 -0.5573  1.4967
 4917TIP3   OH236165   1.796   3.460  14.800  0.3228 -0.4649  0.0748
 4917TIP3    H136166   1.735   3.530  14.775  0.5210 -0.1034  0.5945
 4917TIP3    H236167   1.760   3.381  14.758 -1.0005 -0.4384  1.0977
 4918TIP3   OH236168   1.488   2.872  17.278  0.6098  0.0798  0.1027
 4918TIP3    H136169   1.550   2.801  17.293  0.2612 -0.0945  0.7448
 4918TIP3    H236170   1.466   2.903  17.366 -3.2264 -2.4250  0.2318
 4919TIP3   OH236171   4.732   4.995  11.608  0.2471  0.1532 -0.4014
 4919TIP3    H136172   4.693   5.018  11.524 -2.0637  0.3726  0.6540
 4919TIP3    H236173   4.738   5.078  11.655  1.2765 -0.0093 -0.2159
 4920TIP3   OH236174   2.157   6.417   5.304  0.3580  0.3867  0.6082
 4920TIP3    H136175   2.128   6.393   5.392  0.5139  3.6527  1.6961
 4920TIP3    H236176   2.252   6.407   5.307  0.5430  2.0201  1.4346
 4921TIP3   OH236177   0.457   5.736  14.340 -0.2926  0.3033 -0.2127
 4921TIP3    H136178   0.436   5.829  14.329  0.0585  0.5247  0.8126
 4921TIP3    H236179   0.414   5.712  14.423 -1.2368 -0.7283 -0.9721
 4922TIP3   OH236180   0.363   5.780   0.802 -0.1753  0.9241 -0.3256
 4922TIP3    H136181   0.426   5.848   0.827 -0.0560  1.0829 -1.0234
 4922TIP3    H236182   0.383   5.706   0.858  0.5934  0.9983 -0.4949
 4923TIP3   OH236183   6.243   2.392   0.271  0.1276 -0.3122 -0.8829
 4923TIP3    H136184   6.207   2.360   0.354 -3.3317 -0.0707 -2.1263
 4923TIP3    H236185   6.304   2.461   0.296 -1.1234  0.0328  1.4791
 4924TIP3   OH236186   0.791   0.739  12.258  0.0226 -0.3389  0.1374
 4924TIP3    H136187   0.858   0.805  12.241  0.6729 -0.8412  0.7446
 4924TIP3    H236188   0.776   0.698  12.172  1.2738 -0.9578  0.1947
 4925TIP3   OH236189   4.117   4.706  15.834  1.2093  0.2096  0.1003
 4925TIP3    H136190   4.211   4.715  15.848  1.1631  0.3536  0.3303
 4925TIP3    H236191   4.094   4.778  15.776  1.5071 -0.7513 -1.2340
 4926TIP3   OH236192   0.420   5.131   2.178  0.8037 -0.0993 -0.0650
 4926TIP3    H136193   0.346   5.078   2.205  0.3884  0.4908 -0.0323
 4926TIP3    H236194   0.473   5.141   2.257  0.0819  0.8248  0.3250
 4927TIP3   OH236195   4.353   2.347   1.698 -0.2404 -0.1678 -0.4576
 4927TIP3    H136196   4.354   2.257   1.730 -0.8843 -0.3829 -1.0194
 4927TIP3    H236197   4.343   2.401   1.777 -0.2278 -0.6047 -0.1555
 4928TIP3   OH236198   5.736   1.811   4.469 -0.2036 -0.0218 -0.1001
 4928TIP3    H136199   5.830   1.795   4.458 -0.0839  0.7988 -0.3386
 4928TIP3    H236200   5.695   1.761   4.399 -0.3057 -3.5914  2.2051
 4929TIP3   OH236201   5.963   4.620  16.147  1.8913  0.2876  0.3699
 4929TIP3    H136202   5.950   4.679  16.073 -1.4366 -2.0835 -1.1634
 4929TIP3    H236203   5.921   4.664  16.220 -0.2562  0.1158 -0.6704
 4930TIP3   OH236204   6.467   3.866   0.707 -0.4779  0.0979 -0.0734
 4930TIP3    H136205   6.412   3.907   0.640  0.4962 -0.6661 -1.3873
 4930TIP3    H236206   6.548   3.917   0.705  0.7402 -1.7469 -1.6994
 4931TIP3   OH236207   4.041   6.212   1.301 -0.1572  0.3690  0.3585
 4931TIP3    H136208   4.031   6.304   1.276  0.5420  0.2090 -0.5469
 4931TIP3    H236209   3.994   6.204   1.384  1.7998  2.1158  1.7320
 4932TIP3   OH236210   3.297   4.256   0.125  0.6228 -0.0576 -0.1135
 4932TIP3    H136211   3.252   4.211   0.053  1.3608  0.5610 -0.9802
 4932TIP3    H236212   3.250   4.228   0.204 -1.1066  0.3465 -0.9597
 4933TIP3   OH236213   3.789   2.425  14.958 -0.3269  0.3488 -0.1567
 4933TIP3    H136214   3.794   2.513  14.920  1.6514  0.2373 -0.2406
 4933TIP3    H236215   3.813   2.366  14.886 -1.0363 -0.2302  0.0648
 4934TIP3   OH236216   0.308   4.179  14.639  0.2334 -0.3205  0.0853
 4934TIP3    H136217   0.367   4.111  14.606 -0.0360 -0.3539 -0.3512
 4934TIP3    H236218   0.354   4.218  14.712  0.9456 -0.1109 -0.4615
 4935TIP3   OH236219   6.081   0.928   4.101  0.3066 -0.1342 -0.5235
 4935TIP3    H136220   6.064   1.008   4.052  1.4866 -0.1797 -1.0439
 4935TIP3    H236221   6.067   0.952   4.193  0.5378  0.6366 -0.6874
 4936TIP3   OH236222   5.247   0.490   4.262 -0.0842  0.4258 -0.4507
 4936TIP3    H136223   5.232   0.568   4.209 -0.8455  1.3774  1.0924
 4936TIP3    H236224   5.172   0.485   4.321  1.0280 -0.1963  0.9903
 4937TIP3   OH236225   3.423   6.476   5.831  0.0465  0.3750 -0.4384
 4937TIP3    H136226   3.422   6.386   5.864  0.1778  1.3092  2.2945
 4937TIP3    H236227   3.337   6.511   5.853  1.2447  2.0279  2.0830
 4938TIP3   OH236228   3.131   1.503  12.988 -0.3570 -0.4805  0.0017
 4938TIP3    H136229   3.113   1.499  12.894 -0.2314  1.1870 -0.1360
 4938TIP3    H236230   3.052   1.542  13.026 -0.4004 -1.1265  0.5879
 4939TIP3   OH236231   0.218   4.909  11.423  0.6739 -0.1421 -0.4056
 4939TIP3    H136232   0.134   4.895  11.468  0.2175  0.8560 -0.9138
 4939TIP3    H236233   0.274   4.839  11.455 -0.4307 -0.9750 -0.2346
 4940TIP3   OH236234   6.316   3.979   0.498  0.7635 -0.5512 -0.1192
 4940TIP3    H136235   6.290   4.070   0.513  1.2621 -0.6438  1.5975
 4940TIP3    H236236   6.291   3.961   0.408 -1.4907  0.5445  0.2275
 4941TIP3   OH236237   3.620   4.948  11.009 -0.8936  0.0996 -1.0305
 4941TIP3    H136238   3.693   5.002  10.979 -1.0481  0.4894 -0.7204
 4941TIP3    H236239   3.661   4.876  11.056 -0.7020  0.2324 -0.9919
 4942TIP3   OH236240   3.732   6.696  11.161 -0.6471  0.3359  0.9559
 4942TIP3    H136241   3.722   6.730  11.072 -0.8956 -0.6786  0.5844
 4942TIP3    H236242   3.747   6.602  11.150  2.5792  0.6036  1.7967
 4943TIP3   OH236243   4.333   2.818   2.918  0.0715  0.1656 -0.2695
 4943TIP3    H136244   4.410   2.834   2.864 -0.5398  0.3546 -1.1156
 4943TIP3    H236245   4.361   2.834   3.007  0.9044  0.6066 -0.6071
 4944TIP3   OH236246   0.309   1.254   5.814  0.1629  0.1287 -0.3922
 4944TIP3    H136247   0.359   1.269   5.894  0.3882 -1.1800 -0.2692
 4944TIP3    H236248   0.327   1.163   5.791  1.7179  0.9894 -3.0331
 4945TIP3   OH236249   1.356   0.568  15.078 -0.3564  0.2596  0.3597
 4945TIP3    H136250   1.387   0.587  15.166  0.2059  0.0415  0.2125
 4945TIP3    H236251   1.288   0.634  15.061 -0.2770  0.4685  0.8493
 4946TIP3   OH236252   2.982   1.878  15.380  0.7148  0.4310  0.5744
 4946TIP3    H136253   3.074   1.873  15.354  1.1388 -1.0145  2.1896
 4946TIP3    H236254   2.968   1.970  15.401  1.8134  0.6526  0.4034
 4947TIP3   OH236255   5.148   3.536   2.645 -0.4163 -0.2492  0.4278
 4947TIP3    H136256   5.176   3.499   2.729  0.5475  0.9735  0.6664
 4947TIP3    H236257   5.107   3.619   2.668  0.8144  0.6047 -0.3841
 4948TIP3   OH236258   3.308   4.160   0.782 -0.0751  0.3581 -0.1767
 4948TIP3    H136259   3.279   4.154   0.873  0.6635  3.1595  0.3483
 4948TIP3    H236260   3.252   4.099   0.734 -1.0638 -0.5371  2.0058
 4949TIP3   OH236261   2.391   0.417  10.430  0.5752 -0.1504  0.5138
 4949TIP3    H136262   2.461   0.405  10.494  0.2868  2.7833  1.4906
 4949TIP3    H236263   2.311   0.418  10.482 -0.1620 -2.1944 -0.4650
 4950TIP3   OH236264   1.602   5.661   4.903 -0.0455  0.3991  0.1298
 4950TIP3    H136265   1.656   5.727   4.859  2.3825 -0.6466  1.3718
 4950TIP3    H236266   1.529   5.710   4.939  0.9060  2.1809 -0.2531
 4951TIP3   OH236267   3.621   5.788   6.555 -0.2269 -0.3166  0.4482
 4951TIP3    H136268   3.619   5.881   6.579 -2.2613 -0.1197 -0.2558
 4951TIP3    H236269   3.714   5.767   6.550  0.2917  1.3908  1.6597
 4952TIP3   OH236270   4.240   4.170  16.529 -0.0882  0.4117 -0.8873
 4952TIP3    H136271   4.176   4.238  16.508 -0.0257  0.8310  0.1870
 4952TIP3    H236272   4.280   4.199  16.611 -0.3728 -1.1283 -0.1552
 4953TIP3   OH236273   0.786   5.817  16.913  0.3633  0.0982  0.2428
 4953TIP3    H136274   0.699   5.829  16.875  0.2331  0.7807  0.7277
 4953TIP3    H236275   0.795   5.723  16.923  0.0456 -0.0352 -0.6454
 4954TIP3   OH236276   6.682   3.033  15.548 -0.1438  0.5197 -0.3178
 4954TIP3    H136277   6.729   3.025  15.631 -1.4970 -0.7687  0.3862
 4954TIP3    H236278   6.604   3.085  15.569 -1.5155 -1.4329 -0.2378
 4955TIP3   OH236279   6.416   6.749   5.170 -0.3994 -0.1006  0.0014
 4955TIP3    H136280   6.450   6.828   5.129 -0.1427  0.1833  0.7367
 4955TIP3    H236281   6.335   6.777   5.212 -0.1672 -0.1527  0.4956
 4956TIP3   OH236282   3.744   1.368   5.047  0.1184 -0.1735 -0.0701
 4956TIP3    H136283   3.694   1.433   5.097  0.3900 -0.8356  1.1072
 4956TIP3    H236284   3.709   1.373   4.958 -1.2480  0.1897  0.4633
 4957TIP3   OH236285   2.947   2.815   5.876  0.0874  0.1755 -0.1691
 4957TIP3    H136286   2.858   2.800   5.846  0.0618 -0.6961  0.3249
 4957TIP3    H236287   2.978   2.729   5.904  1.8598 -0.0091 -2.3861
 4958TIP3   OH236288   2.331   0.036  13.050  0.2444 -0.2252 -0.1598
 4958TIP3    H136289   2.303   0.100  13.115  1.2584 -0.3877  0.4605
 4958TIP3    H236290   2.367  -0.036  13.102 -0.7731 -1.2653 -0.8458
 4959TIP3   OH236291   3.465   4.569   4.800 -0.4705 -0.2906  0.3255
 4959TIP3    H136292   3.428   4.654   4.779 -0.9461 -0.8430 -1.2285
 4959TIP3    H236293   3.507   4.541   4.718  2.7295 -0.0545  1.7397
 4960TIP3   OH236294   2.094   0.011   4.628  0.1169 -0.0041  0.3826
 4960TIP3    H136295   2.071  -0.035   4.548  0.0800  0.3932  0.1639
 4960TIP3    H236296   2.011   0.022   4.674  0.2801 -1.1980  0.9998
 4961TIP3   OH236297   0.606   3.163   4.067  0.2556 -0.2773  0.0695
 4961TIP3    H136298   0.649   3.078   4.070  0.5166 -0.1395  0.2900
 4961TIP3    H236299   0.573   3.176   4.156  1.1743  0.3349  0.3407
 4962TIP3   OH236300   4.120   5.522   1.031 -0.4274  0.1906 -0.3623
 4962TIP3    H136301   4.149   5.480   0.951 -0.4637  0.5021 -0.5405
 4962TIP3    H236302   4.035   5.482   1.051  0.7305 -1.8137  0.9684
 4963TIP3   OH236303   2.970   5.028  11.890  0.1166 -0.7861 -0.1909
 4963TIP3    H136304   2.928   5.112  11.908  3.7864  1.2744 -0.2878
 4963TIP3    H236305   2.972   4.984  11.975 -1.1817 -0.5070  0.0169
 4964TIP3   OH236306   6.128   2.799  12.710 -0.0828 -0.6466 -0.7067
 4964TIP3    H136307   6.069   2.784  12.783  1.2007 -1.5964  0.1732
 4964TIP3    H236308   6.211   2.825  12.750 -0.1740  1.9067 -1.9521
 4965TIP3   OH236309   2.230   3.044   3.882  0.0017  0.4065 -0.4422
 4965TIP3    H136310   2.134   3.037   3.878 -0.0919  1.7314 -0.9747
 4965TIP3    H236311   2.258   3.039   3.791  0.6650 -2.1970 -0.1672
 4966TIP3   OH236312   4.725   0.657  13.170  0.0966 -0.5778  0.6536
 4966TIP3    H136313   4.676   0.575  13.176  2.5160 -2.3854 -2.0580
 4966TIP3    H236314   4.794   0.648  13.235  0.7667 -1.0424 -0.1052
 4967TIP3   OH236315   3.640   0.155   3.859 -0.0251 -0.2996 -0.0102
 4967TIP3    H136316   3.569   0.133   3.919  0.1562 -1.7994 -0.3216
 4967TIP3    H236317   3.716   0.108   3.892 -0.3917 -2.9086 -2.5049
 4968TIP3   OH236318   0.051   5.662   4.409 -0.4173 -0.0952 -0.4557
 4968TIP3    H136319  -0.043   5.644   4.414 -0.2479 -0.8574  0.4776
 4968TIP3    H236320   0.086   5.589   4.358 -0.2182 -0.3246  0.0049
 4969TIP3   OH236321   0.191   4.811   0.995 -0.1070  0.0379 -0.2257
 4969TIP3    H136322   0.275   4.853   1.015 -0.8312  2.3373 -1.5744
 4969TIP3    H236323   0.148   4.802   1.080  1.0790 -0.2651  0.3659
 4970TIP3   OH236324   3.652   5.678  16.403  0.4983  0.1166  0.6851
 4970TIP3    H136325   3.578   5.619  16.389  1.5800 -0.9582 -0.8256
 4970TIP3    H236326   3.648   5.701  16.496 -2.8084  1.5977  0.3227
 4971TIP3   OH236327   2.710   0.259   0.686 -0.4708 -0.0622 -0.0446
 4971TIP3    H136328   2.761   0.181   0.706 -1.0750 -1.2908 -2.7581
 4971TIP3    H236329   2.621   0.236   0.710 -0.6251 -0.1741 -0.7038
 4972TIP3   OH236330   3.319   1.473   5.993  0.3168  0.2778  0.0938
 4972TIP3    H136331   3.411   1.448   5.978  0.3223  0.8048 -0.8105
 4972TIP3    H236332   3.313   1.562   5.959 -0.7561 -0.0925 -0.7504
 4973TIP3   OH236333   1.217   4.765   2.881  0.3654  0.0289  0.2487
 4973TIP3    H136334   1.207   4.719   2.965  0.9207 -0.4279  0.0746
 4973TIP3    H236335   1.162   4.843   2.890  0.3827 -0.0343  1.0242
 4974TIP3   OH236336   0.754   5.983  14.071 -0.1307  0.1528  0.2492
 4974TIP3    H136337   0.717   5.912  14.018  2.1597  0.4542 -1.8945
 4974TIP3    H236338   0.736   6.063  14.022  2.4298  0.3962 -0.4468
 4975TIP3   OH236339   5.910   5.180   1.310  0.0197  0.6163 -0.0676
 4975TIP3    H136340   5.966   5.170   1.387 -0.3889  3.3006  0.6816
 4975TIP3    H236341   5.837   5.120   1.325  0.2135  0.7198  1.3907
 4976TIP3   OH236342   3.697   2.923  12.978  0.0193 -0.0931  0.0470
 4976TIP3    H136343   3.667   2.859  12.913  0.8361 -1.3949  0.9120
 4976TIP3    H236344   3.721   2.870  13.054  2.8131  0.9666  0.0300
 4977TIP3   OH236345   5.697   3.292  14.018 -0.0777  0.5997  0.4288
 4977TIP3    H136346   5.647   3.219  13.979 -0.5357  0.9286  0.3916
 4977TIP3    H236347   5.666   3.296  14.108 -1.3973  1.9055 -0.0546
 4978TIP3   OH236348   4.788   5.760   2.763 -0.0253  0.2957  0.1072
 4978TIP3    H136349   4.753   5.672   2.772 -0.0601  0.4221  1.3450
 4978TIP3    H236350   4.860   5.765   2.825  0.7787  0.7545 -0.8345
 4979TIP3   OH236351   2.839   0.192  14.356  0.7175 -0.0151  0.0882
 4979TIP3    H136352   2.821   0.261  14.293 -0.4809 -1.9876 -1.8445
 4979TIP3    H236353   2.935   0.183  14.355  0.7589  0.4020 -1.0218
 4980TIP3   OH236354   1.103   3.259   3.552 -0.1816 -0.8249 -0.9782
 4980TIP3    H136355   1.100   3.163   3.556  1.1810 -0.8659  1.7546
 4980TIP3    H236356   1.011   3.286   3.548 -0.7212 -2.2624  0.4287
 4981TIP3   OH236357   2.336   1.974  13.336 -0.2303 -0.9890 -0.0246
 4981TIP3    H136358   2.364   2.005  13.422  2.0050 -1.2987 -0.5644
 4981TIP3    H236359   2.241   1.969  13.341 -0.4914  2.5129  1.2323
 4982TIP3   OH236360   1.856   2.606  11.434 -0.3303  0.2551  0.5225
 4982TIP3    H136361   1.817   2.527  11.398  1.0875 -0.5717  0.7547
 4982TIP3    H236362   1.916   2.575  11.502 -1.4722  1.6629  2.2655
 4983TIP3   OH236363   3.249   3.659   0.529  0.3919  0.4131 -0.7602
 4983TIP3    H136364   3.320   3.721   0.543 -1.0190  2.4493 -2.0299
 4983TIP3    H236365   3.276   3.580   0.575  2.0254  2.1513  1.4844
 4984TIP3   OH236366   3.920   6.042  13.837  0.4566  0.1920  0.3331
 4984TIP3    H136367   3.972   6.101  13.782 -0.7018  0.8129 -0.1283
 4984TIP3    H236368   3.835   6.086  13.845  0.1202 -0.6198  1.3787
 4985TIP3   OH236369   0.245   1.250   6.470 -0.1354 -0.2975  0.0146
 4985TIP3    H136370   0.194   1.310   6.416 -0.2854 -0.3464  0.1022
 4985TIP3    H236371   0.228   1.278   6.560 -0.0844 -0.3759  0.0489
 4986TIP3   OH236372   0.324   3.651  15.448  0.5737 -0.0750  0.1603
 4986TIP3    H136373   0.288   3.739  15.454  1.9384  0.5273 -0.3518
 4986TIP3    H236374   0.257   3.601  15.400 -0.9820  0.2100  1.9026
 4987TIP3   OH236375   5.801   2.128  12.386  0.0757  0.0088  0.0018
 4987TIP3    H136376   5.892   2.157  12.394 -0.0263  0.7675 -1.1663
 4987TIP3    H236377   5.808   2.038  12.356  0.4121 -0.7643  2.2660
 4988TIP3   OH236378   1.984   4.175   1.027  0.0216  0.1571 -0.2418
 4988TIP3    H136379   2.003   4.137   1.113  0.1879 -0.4700 -0.5506
 4988TIP3    H236380   2.064   4.221   1.002  0.1543 -0.1032 -0.2944
 4989TIP3   OH236381   4.564   1.997  11.449  0.2082  0.0075  0.7954
 4989TIP3    H136382   4.615   2.028  11.523 -0.2315 -0.5955  1.3607
 4989TIP3    H236383   4.483   2.047  11.452  1.1040  1.6402 -0.6537
 4990TIP3   OH236384   6.320   0.589  14.902 -0.3851  0.8091 -0.4879
 4990TIP3    H136385   6.278   0.674  14.915  0.0642  1.2125 -1.5266
 4990TIP3    H236386   6.394   0.590  14.962 -0.3398  1.1835 -0.5437
 4991TIP3   OH236387   0.912   4.440   3.524  0.3614 -0.6981  0.4984
 4991TIP3    H136388   0.844   4.454   3.590  0.9585  0.6367  0.8559
 4991TIP3    H236389   0.994   4.437   3.573  0.7672 -0.1979 -0.1234
 4992TIP3   OH236390   4.364   2.255   3.785 -0.2799 -0.0907  0.6097
 4992TIP3    H136391   4.454   2.228   3.802 -0.2145 -1.1338 -1.1829
 4992TIP3    H236392   4.335   2.199   3.714 -1.8672  1.2043  0.1730
 4993TIP3   OH236393   1.021   4.606  15.321 -0.6280  0.6469 -0.2769
 4993TIP3    H136394   0.933   4.641  15.314 -0.4111  1.2543 -0.0022
 4993TIP3    H236395   1.009   4.511  15.330 -1.3688  0.8876  1.9260
 4994TIP3   OH236396   5.761   1.773   1.652 -0.3914  0.3572  0.3724
 4994TIP3    H136397   5.782   1.746   1.741  1.7952 -2.1589 -0.7593
 4994TIP3    H236398   5.844   1.801   1.615 -1.4195  2.2660 -0.6895
 4995TIP3   OH236399   6.220   2.107  14.717 -0.3538  0.4395  0.3948
 4995TIP3    H136400   6.192   2.198  14.710 -2.1376  0.0987  2.2240
 4995TIP3    H236401   6.187   2.065  14.637  2.5290  1.7647 -1.6651
 4996TIP3   OH236402   5.894   2.167  14.186 -0.0185  0.3896 -0.3178
 4996TIP3    H136403   5.971   2.204  14.230  0.2880 -0.4481 -0.1385
 4996TIP3    H236404   5.904   2.073  14.196 -1.0482  0.2692 -0.3306
 4997TIP3   OH236405   0.649   5.819   1.634  0.2302  0.1428 -0.2005
 4997TIP3    H136406   0.667   5.831   1.540 -0.9719  0.3718 -0.4136
 4997TIP3    H236407   0.570   5.765   1.636 -0.8389  1.6689  0.6423
 4998TIP3   OH236408   2.852   1.217  17.113 -0.2498  0.1520 -0.0909
 4998TIP3    H136409   2.923   1.158  17.135 -0.2356 -0.5451 -1.8598
 4998TIP3    H236410   2.895   1.299  17.088  0.1021 -0.7522 -2.6972
 4999TIP3   OH236411   1.561   3.530   3.697  0.4752 -0.1529  0.6269
 4999TIP3    H136412   1.472   3.539   3.663  0.9400  1.0826 -0.3017
 4999TIP3    H236413   1.554   3.555   3.789 -0.1368 -0.1072  0.5711
 5000TIP3   OH236414   2.382   6.665   0.156  0.3282 -0.6069 -0.0107
 5000TIP3    H136415   2.471   6.633   0.174  0.7129 -0.4831 -1.5845
 5000TIP3    H236416   2.325   6.603   0.201  1.2205  0.1087  2.2373
 5001TIP3   OH236417   4.395   0.472  14.057  0.2582 -0.4465 -0.1244
 5001TIP3    H136418   4.482   0.449  14.022  0.5801 -1.1443  1.0860
 5001TIP3    H236419   4.353   0.520  13.985  2.3303  1.5790 -0.1301
 5002TIP3   OH236420   0.953   2.253   1.692  0.0233  0.1681 -0.3945
 5002TIP3    H136421   1.037   2.247   1.648  0.1094  1.8292 -0.5387
 5002TIP3    H236422   0.889   2.257   1.621  0.0880  1.8516 -0.4143
 5003TIP3   OH236423   4.903   2.972  14.819  0.1565 -0.5304 -0.4548
 5003TIP3    H136424   4.858   3.030  14.756  2.4852  2.7638  0.6312
 5003TIP3    H236425   4.962   2.921  14.765 -2.1561 -2.3148 -1.4870
 5004TIP3   OH236426   1.392   1.723  11.327  0.0973 -0.0546  0.2864
 5004TIP3    H136427   1.435   1.739  11.243 -0.1381  0.8936  0.3272
 5004TIP3    H236428   1.312   1.776  11.324 -1.0781 -1.7523  0.2375
 5005TIP3   OH236429   4.474   5.026   6.327 -0.0431 -0.5742  0.1634
 5005TIP3    H136430   4.393   5.001   6.373  0.1640 -1.9042 -0.1563
 5005TIP3    H236431   4.510   5.097   6.381 -1.6676  0.4234  0.0308
 5006TIP3   OH236432   3.700   6.458   0.016  0.2306  0.1277 -0.1619
 5006TIP3    H136433   3.757   6.523  -0.026  0.8807 -0.1631  0.2671
 5006TIP3    H236434   3.683   6.394  -0.053  0.6349  0.0743 -0.2123
 5007TIP3   OH236435   2.958   3.688   6.518 -0.5013 -0.0149 -0.1985
 5007TIP3    H136436   3.042   3.723   6.488 -0.2001 -0.1585  0.4632
 5007TIP3    H236437   2.964   3.594   6.502 -0.9192  0.0920 -1.0436
 5008TIP3   OH236438   5.724   0.910  15.109  0.5550 -0.3209  0.3354
 5008TIP3    H136439   5.737   0.816  15.102 -0.8134 -0.4763 -0.5633
 5008TIP3    H236440   5.811   0.948  15.100  1.0713 -1.4746  0.3469
 5009TIP3   OH236441   4.312   2.180  17.159  0.5014  0.0754  0.6622
 5009TIP3    H136442   4.302   2.243  17.230 -0.5710 -0.5986  1.1394
 5009TIP3    H236443   4.379   2.119  17.189  0.1677 -0.1118  1.0359
 5010TIP3   OH236444   0.205   4.518   3.330  0.1665  0.1762  0.8567
 5010TIP3    H136445   0.297   4.511   3.354  0.5856  1.3832 -0.2655
 5010TIP3    H236446   0.170   4.584   3.390 -0.6650 -2.0415  2.9981
 5011TIP3   OH236447   6.145   0.163   3.647  0.2486  0.0137 -0.1800
 5011TIP3    H136448   6.144   0.159   3.552  1.4035 -0.5222 -0.1880
 5011TIP3    H236449   6.172   0.076   3.675 -0.6989 -0.0269  0.6728
 5012TIP3   OH236450   0.184   2.436  11.619  0.6891 -0.1968  0.3455
 5012TIP3    H136451   0.195   2.530  11.626  0.3780 -0.0792 -0.6199
 5012TIP3    H236452   0.253   2.399  11.675 -0.9692  0.5862  3.0961
 5013TIP3   OH236453   3.525   0.596   6.010 -0.4262 -0.4036  0.7939
 5013TIP3    H136454   3.595   0.542   6.048 -0.0588  0.7361  1.8150
 5013TIP3    H236455   3.461   0.605   6.080 -0.7234  0.0620  0.4676
 5014TIP3   OH236456   4.762   5.088   2.237 -0.6898 -0.2456  0.3640
 5014TIP3    H136457   4.849   5.108   2.270  0.4008 -3.5390 -0.1281
 5014TIP3    H236458   4.744   5.156   2.173  0.2570  2.0843  2.4096
 5015TIP3   OH236459   5.434   2.898   2.484  0.3493  0.0537 -0.6789
 5015TIP3    H136460   5.463   2.808   2.469  2.6801  0.5424  0.4620
 5015TIP3    H236461   5.443   2.940   2.398 -0.0686 -0.5991 -1.0544
 5016TIP3   OH236462   1.714   5.296   0.333 -0.1167  0.4012  0.2906
 5016TIP3    H136463   1.664   5.376   0.345 -0.4434  0.4373 -1.1985
 5016TIP3    H236464   1.780   5.298   0.403 -1.7463  0.6753  1.8815
 5017TIP3   OH236465   2.015   1.568  12.207  0.4780  0.5825  0.3886
 5017TIP3    H136466   1.968   1.501  12.256  0.0631  1.4100  1.1607
 5017TIP3    H236467   1.974   1.567  12.120  0.1114  0.2151  0.5590
 5018TIP3   OH236468   0.410   3.167  15.461  0.0905 -0.2610  0.3416
 5018TIP3    H136469   0.354   3.245  15.466 -0.8663 -0.8766 -0.3830
 5018TIP3    H236470   0.405   3.129  15.549  0.7971  0.6292  0.7882
 5019TIP3   OH236471   0.164   1.345   6.702 -0.2436  0.2794  0.4333
 5019TIP3    H136472   0.111   1.282   6.751  1.0385 -0.4323  0.9563
 5019TIP3    H236473   0.122   1.430   6.718 -0.6638 -0.1408  1.6293
 5020TIP3   OH236474   5.442   1.284  11.552  0.4857  0.3349  0.5659
 5020TIP3    H136475   5.361   1.325  11.581 -0.5831 -0.7942 -0.7025
 5020TIP3    H236476   5.508   1.313  11.616 -1.1990  0.0783  2.5078
 5021TIP3   OH236477   6.428   2.210   2.638  0.0643  0.2367 -0.0548
 5021TIP3    H136478   6.514   2.250   2.624  0.4628 -1.2388 -2.2176
 5021TIP3    H236479   6.446   2.117   2.653 -1.0933  0.1013  0.6262
 5022TIP3   OH236480   5.118   6.017  16.534  0.4531  0.3261 -0.0148
 5022TIP3    H136481   5.070   5.945  16.574 -0.9105  1.2520  0.0639
 5022TIP3    H236482   5.114   5.999  16.440  0.0548  0.3418 -0.0003
 5023TIP3   OH236483   1.783   6.268  14.744 -0.2877  0.5484  0.0407
 5023TIP3    H136484   1.861   6.264  14.689 -0.0405  1.8579  0.2743
 5023TIP3    H236485   1.713   6.297  14.685 -0.2671  0.8432  0.1578
 5024TIP3   OH236486   1.479   3.749   1.201  0.2298 -0.1663  0.3352
 5024TIP3    H136487   1.447   3.744   1.110  0.5937  2.0947  0.0285
 5024TIP3    H236488   1.546   3.817   1.199  0.9634 -0.7982  2.1236
 5025TIP3   OH236489   1.954   6.273   3.002  0.1341 -0.0933 -0.5860
 5025TIP3    H136490   1.943   6.191   2.955  1.0110 -0.2142 -0.5935
 5025TIP3    H236491   2.040   6.265   3.045 -0.0739  0.5393 -0.0368
 5026TIP3   OH236492   1.471   1.680  12.272 -0.0758 -0.3177  0.0197
 5026TIP3    H136493   1.542   1.615  12.265 -0.1773 -0.4790  0.4743
 5026TIP3    H236494   1.434   1.666  12.359  1.7593  2.2259  1.3804
 5027TIP3   OH236495   5.598   6.700  14.688 -0.0866  0.3800 -0.0295
 5027TIP3    H136496   5.667   6.678  14.750 -1.3837  0.0955  1.3746
 5027TIP3    H236497   5.554   6.617  14.672 -0.5822  0.6928 -0.3040
 5028TIP3   OH236498   4.419   0.670  17.235  0.4178 -0.0190 -0.6359
 5028TIP3    H136499   4.483   0.719  17.182 -0.0609 -0.0457 -1.2541
 5028TIP3    H236500   4.433   0.701  17.324  0.3817  0.9786 -0.9602
 5029TIP3   OH236501   6.365   5.145  14.174  0.2424 -0.1156 -0.2766
 5029TIP3    H136502   6.347   5.072  14.115 -0.2226  0.2173 -0.5503
 5029TIP3    H236503   6.339   5.113  14.260  0.5973 -0.4793 -0.2998
 5030TIP3   OH236504   1.549   3.521  16.436  0.2969  0.0226 -0.0684
 5030TIP3    H136505   1.454   3.511  16.438  0.2767  0.2894  0.4397
 5030TIP3    H236506   1.564   3.597  16.380  0.1525  0.5753  0.6262
 5031TIP3   OH236507   2.249   1.896  11.295  0.0057 -0.0219  0.3555
 5031TIP3    H136508   2.234   1.886  11.389  0.6828  0.1345  0.4899
 5031TIP3    H236509   2.330   1.847  11.279 -0.0183  0.0900 -0.1161
 5032TIP3   OH236510   2.596   1.532   5.340 -0.3242  0.0936  0.1350
 5032TIP3    H136511   2.679   1.563   5.303  1.5546 -0.8379  3.1883
 5032TIP3    H236512   2.551   1.612   5.367 -0.0808  0.5786 -0.8439
 5033TIP3   OH236513   0.708   5.478  13.374  0.2431 -0.3096 -0.2265
 5033TIP3    H136514   0.778   5.530  13.416 -0.4063  0.5164 -0.1533
 5033TIP3    H236515   0.679   5.531  13.301 -2.0216  0.5536  1.1939
 5034TIP3   OH236516   6.251   5.113   1.218  0.1872 -0.1698 -0.0526
 5034TIP3    H136517   6.306   5.071   1.284  1.1092 -0.1255 -0.7578
 5034TIP3    H236518   6.169   5.063   1.218  1.1598 -1.8648 -0.7166
 5035TIP3   OH236519   1.765   2.655  12.665  0.0442  0.1554  0.0088
 5035TIP3    H136520   1.838   2.706  12.630 -0.4616  1.1470  0.3377
 5035TIP3    H236521   1.717   2.626  12.587  0.8569 -0.6502 -0.2156
 5036TIP3   OH236522   3.477   0.590   1.161 -0.4611  0.2755 -0.1271
 5036TIP3    H136523   3.453   0.682   1.145  0.6094  0.3960 -1.1872
 5036TIP3    H236524   3.430   0.541   1.095 -0.7983  0.0873  0.2501
 5037TIP3   OH236525   4.252   1.922  13.322 -0.3792  0.2001 -0.8441
 5037TIP3    H136526   4.324   1.912  13.260 -2.5939  0.7525 -3.7322
 5037TIP3    H236527   4.216   1.834  13.333 -0.8129  0.2931 -1.4671
 5038TIP3   OH236528   5.283   3.103  11.166  0.2694 -0.3057 -0.2732
 5038TIP3    H136529   5.292   3.067  11.078 -0.0623 -0.4558 -0.2442
 5038TIP3    H236530   5.372   3.099  11.202  0.0682 -2.0524  0.1035
 5039TIP3   OH236531   5.646   6.407   3.351  0.6025  1.0095  0.1609
 5039TIP3    H136532   5.615   6.338   3.293  0.0959  1.5047 -0.1578
 5039TIP3    H236533   5.727   6.371   3.388 -0.0513 -0.0723  0.5982
 5040TIP3   OH236534   3.750   4.118  13.612 -0.3181  0.1333 -0.6444
 5040TIP3    H136535   3.760   4.202  13.569  0.4046  1.9302  2.7066
 5040TIP3    H236536   3.666   4.124  13.658  0.0584 -0.7249  0.1774
 5041TIP3   OH236537   6.283   2.251  13.399 -0.1255 -0.2434  0.0507
 5041TIP3    H136538   6.228   2.256  13.321 -0.3036  1.1802  0.2277
 5041TIP3    H236539   6.222   2.264  13.472  0.0291 -1.6146  0.4362
 5042TIP3   OH236540   5.842   2.761   0.406 -0.8657  0.0186 -0.5856
 5042TIP3    H136541   5.751   2.748   0.431 -0.0956 -1.3056  1.9805
 5042TIP3    H236542   5.874   2.828   0.466 -0.5936  2.0501 -2.8507
 5043TIP3   OH236543   0.142   0.758   1.329 -0.5014 -0.5013  0.3040
 5043TIP3    H136544   0.079   0.792   1.265 -0.6237  0.2818  0.8257
 5043TIP3    H236545   0.223   0.748   1.280 -0.2008  1.4605  0.3340
 5044TIP3   OH236546   3.903   5.524  11.008 -0.4643 -0.4858 -0.4683
 5044TIP3    H136547   3.953   5.487  11.081 -0.4535  1.5021  0.6115
 5044TIP3    H236548   3.934   5.477  10.931 -1.7082 -3.9232  0.9367
 5045TIP3   OH236549   2.054   3.909   3.008  0.0482  0.6177 -0.1964
 5045TIP3    H136550   2.008   3.841   3.056 -0.4037  1.1102  0.0811
 5045TIP3    H236551   2.133   3.925   3.059  0.3859 -0.0227 -0.5151
 5046TIP3   OH236552   6.158   3.813  13.728 -0.2608  0.7792 -0.4113
 5046TIP3    H136553   6.117   3.814  13.815  2.0678 -1.6256  0.8665
 5046TIP3    H236554   6.238   3.864  13.740  0.3165  0.0265 -0.9755
 5047TIP3   OH236555   2.487   0.189  14.224 -0.2892 -0.4837 -0.1375
 5047TIP3    H136556   2.437   0.196  14.142  0.6387  2.4310 -0.5821
 5047TIP3    H236557   2.544   0.114  14.210  0.9353  0.7865 -2.9018
 5048TIP3   OH236558   2.312   5.919   6.211 -0.1800 -0.2349  0.3545
 5048TIP3    H136559   2.296   6.004   6.251  1.8429  0.4122 -0.0451
 5048TIP3    H236560   2.394   5.932   6.162  0.4029 -2.5196  0.6313
 5049TIP3   OH236561   0.282   1.644  16.127  0.0812 -0.0320  0.1827
 5049TIP3    H136562   0.289   1.584  16.053 -0.6825 -1.9962  1.6208
 5049TIP3    H236563   0.194   1.682  16.120  0.2151  0.2142 -0.2016
 5050TIP3   OH236564   0.496   3.636   2.318  0.0066  0.2289  0.3376
 5050TIP3    H136565   0.436   3.562   2.310 -1.1308  1.0468  0.9820
 5050TIP3    H236566   0.458   3.691   2.386  0.2125  1.9651 -0.8663
 5051TIP3   OH236567   0.154   1.305  12.481  0.1875  0.3943  0.1430
 5051TIP3    H136568   0.180   1.293  12.573  0.6631  1.7342  0.2002
 5051TIP3    H236569   0.114   1.221  12.457 -0.9736  0.3822  1.9141
 5052TIP3   OH236570   2.897   3.366   5.154  0.1523 -0.6290  0.7422
 5052TIP3    H136571   2.804   3.349   5.139  0.4858 -0.0860 -2.5729
 5052TIP3    H236572   2.908   3.459   5.134  1.6858 -1.0884 -0.7342
 5053TIP3   OH236573   0.782   2.908  11.731 -0.3038  0.0453  0.6680
 5053TIP3    H136574   0.774   2.892  11.825 -0.7285  1.0061  0.8050
 5053TIP3    H236575   0.846   2.843  11.702 -1.0616 -1.0702  1.3879
 5054TIP3   OH236576   5.107   5.528  12.031 -0.5402  0.3578  0.6740
 5054TIP3    H136577   5.025   5.482  12.046 -0.9990  1.5648  2.1976
 5054TIP3    H236578   5.155   5.473  11.969 -2.4061 -0.4631 -0.1180
 5055TIP3   OH236579   1.526   2.557  15.720 -0.2329 -0.1338  0.0222
 5055TIP3    H136580   1.469   2.615  15.669 -0.8341 -1.1030 -0.4428
 5055TIP3    H236581   1.575   2.616  15.777 -0.7842  0.8342 -0.4691
 5056TIP3   OH236582   3.067   5.549  17.122 -0.3261  0.0989  0.0085
 5056TIP3    H136583   3.144   5.605  17.119  0.5051 -0.9889  0.2430
 5056TIP3    H236584   3.032   5.551  17.033 -0.4350  1.1513  0.0694
 5057TIP3   OH236585   1.323   2.254   5.479  0.8605 -0.4742 -0.3615
 5057TIP3    H136586   1.401   2.299   5.446  0.9699  0.1911  0.7504
 5057TIP3    H236587   1.336   2.250   5.574 -0.1067 -1.0420 -0.2384
 5058TIP3   OH236588   0.991   0.405  13.181 -0.4942  0.1203  0.0811
 5058TIP3    H136589   0.979   0.316  13.214 -2.3134  0.0819 -0.5306
 5058TIP3    H236590   1.086   0.419  13.182 -0.2847 -1.0942  2.0069
 5059TIP3   OH236591   4.407   1.198   5.332  0.1601 -0.2349 -0.6250
 5059TIP3    H136592   4.332   1.195   5.391 -0.4410  0.3750 -1.3500
 5059TIP3    H236593   4.483   1.184   5.389 -0.5285 -1.3101  0.0396
 5060TIP3   OH236594   1.340   4.515  15.383  0.1580 -0.5207  0.3774
 5060TIP3    H136595   1.267   4.512  15.444  0.1629 -0.5314  0.3832
 5060TIP3    H236596   1.302   4.548  15.302  0.3099  0.2253  0.6043
 5061TIP3   OH236597   1.398   4.136  13.445  0.2256  0.1664  0.1061
 5061TIP3    H136598   1.374   4.125  13.537  0.7663  0.2858  0.2682
 5061TIP3    H236599   1.398   4.230  13.431  0.8518  0.1818  0.1848
 5062TIP3   OH236600   2.186   5.772  15.209  0.3783  0.2774 -0.0098
 5062TIP3    H136601   2.210   5.705  15.146  1.6875  1.2606 -0.5966
 5062TIP3    H236602   2.261   5.831  15.212  0.9088 -0.3197  3.3319
 5063TIP3   OH236603   6.381   6.366   3.343 -0.4075  0.5439  0.1468
 5063TIP3    H136604   6.288   6.348   3.330 -0.6596  0.1254  2.1262
 5063TIP3    H236605   6.382   6.444   3.399  0.5103  1.8181 -1.5759
 5064TIP3   OH236606   0.524   0.645  11.830 -0.6212 -0.2476  0.1985
 5064TIP3    H136607   0.524   0.577  11.762 -1.6092  0.1932 -0.2525
 5064TIP3    H236608   0.574   0.717  11.793 -0.4984 -0.3041  0.2527
 5065TIP3   OH236609   2.831   6.320  14.692 -0.0230  0.4519 -0.5810
 5065TIP3    H136610   2.809   6.410  14.667 -0.7180 -0.2210 -2.6639
 5065TIP3    H236611   2.748   6.283  14.724  0.5974  0.9501  1.7092
 5066TIP3   OH236612   2.905   6.479   5.564 -0.2621 -0.1379 -0.1759
 5066TIP3    H136613   2.866   6.424   5.632 -0.4727 -0.4589 -0.5604
 5066TIP3    H236614   2.949   6.418   5.505 -0.2156  0.1290 -0.4215
 5067TIP3   OH236615   0.323   1.753   1.618 -1.0968 -0.3852  0.3881
 5067TIP3    H136616   0.364   1.667   1.630 -0.4370 -0.1247  0.0389
 5067TIP3    H236617   0.386   1.802   1.565 -1.4159  0.3567  0.6888
 5068TIP3   OH236618   3.754   5.694  15.046  0.6360 -0.5236 -0.5532
 5068TIP3    H136619   3.789   5.605  15.039  1.3024 -0.3720  0.5833
 5068TIP3    H236620   3.673   5.684  15.097  1.4808 -0.3388  0.8999
 5069TIP3   OH236621   5.819   6.023   1.044  0.1027  0.2473  0.3181
 5069TIP3    H136622   5.871   6.000   0.966 -1.6845  1.5130 -1.3578
 5069TIP3    H236623   5.830   6.117   1.053 -0.8342  0.3261  0.7461
 5070TIP3   OH236624   4.212   4.941   2.980  0.5795 -0.6506  0.2569
 5070TIP3    H136625   4.123   4.939   3.017 -0.3913 -3.3707 -1.8581
 5070TIP3    H236626   4.207   4.884   2.903  3.9479 -0.0816 -0.5279
 5071TIP3   OH236627   4.124   5.903  15.300  0.0305 -0.2008  0.5060
 5071TIP3    H136628   4.153   5.840  15.366 -0.8138 -0.8260  0.2959
 5071TIP3    H236629   4.032   5.919  15.321 -0.8719 -1.9757 -1.6636
 5072TIP3   OH236630   1.442   4.950  14.895 -0.9118  0.0472 -0.5809
 5072TIP3    H136631   1.393   4.869  14.908  1.2014 -1.7060 -2.5642
 5072TIP3    H236632   1.379   5.009  14.853 -2.2231 -0.9263 -0.0588
 5073TIP3   OH236633   6.080   4.021  17.297 -0.5057  0.1263 -0.4577
 5073TIP3    H136634   6.046   3.965  17.367 -3.2543 -0.6332 -2.2178
 5073TIP3    H236635   6.112   3.959  17.231 -1.5351  0.6250 -1.4709
 5074TIP3   OH236636   4.807   4.324   2.253  0.4518 -0.2615 -0.1267
 5074TIP3    H136637   4.730   4.278   2.220 -1.0464  1.7742  0.3424
 5074TIP3    H236638   4.863   4.335   2.176  0.3436 -1.8155 -0.4631
 5075TIP3   OH236639   3.845   3.574  16.516  0.3357  0.7329  0.3001
 5075TIP3    H136640   3.933   3.537  16.507  0.5978  1.4078  0.0566
 5075TIP3    H236641   3.803   3.560  16.431  1.1866  2.9031 -0.5301
 5076TIP3   OH236642   0.157   6.431  12.508  0.6779 -0.1473 -0.4752
 5076TIP3    H136643   0.103   6.352  12.505  1.9317 -1.0295 -0.7546
 5076TIP3    H236644   0.138   6.469  12.594 -0.5394 -0.3006 -0.6611
 5077TIP3   OH236645   6.174   2.961   2.992  0.1944 -0.0125 -0.0150
 5077TIP3    H136646   6.172   2.867   2.974  1.5696  0.2121 -1.5770
 5077TIP3    H236647   6.083   2.983   3.014 -0.3986 -1.4836 -0.8335
 5078TIP3   OH236648   3.297   3.244   0.709 -0.0506  0.3803 -0.1801
 5078TIP3    H136649   3.323   3.274   0.623  0.2178  0.3472 -0.1119
 5078TIP3    H236650   3.259   3.321   0.752  2.5595  1.2293  0.7810
 5079TIP3   OH236651   4.180   1.932   5.427  0.4024  0.1038  0.4386
 5079TIP3    H136652   4.272   1.904   5.426  0.3330 -0.1213  0.0223
 5079TIP3    H236653   4.184   2.027   5.413  0.5661  0.0809  0.3298
 5080TIP3   OH236654   4.285   2.616   6.809  0.5403 -0.3278 -0.4091
 5080TIP3    H136655   4.363   2.631   6.863  2.0663 -1.1065 -2.2623
 5080TIP3    H236656   4.303   2.533   6.765 -1.1939 -0.3334 -1.1703
 5081TIP3   OH236657   0.839   6.261  14.413  0.2053  0.8441 -0.0382
 5081TIP3    H136658   0.837   6.176  14.369 -1.1343  1.0569 -0.4476
 5081TIP3    H236659   0.884   6.244  14.495 -1.1282 -0.5845  0.4667
 5082TIP3   OH236660   5.981   0.303  12.182 -0.0122 -0.1045 -0.0281
 5082TIP3    H136661   6.042   0.236  12.152  0.5481 -0.0983  1.0217
 5082TIP3    H236662   6.000   0.312  12.276 -2.6914 -1.2416  0.7244
 5083TIP3   OH236663   2.445   3.733  11.935  0.1674 -0.1203 -0.1195
 5083TIP3    H136664   2.487   3.707  11.853 -0.4491  0.9497 -0.8105
 5083TIP3    H236665   2.388   3.660  11.958  2.0772 -1.4306  0.6298
 5084TIP3   OH236666   0.047   5.620   0.185  0.0919 -0.0548  0.2552
 5084TIP3    H136667   0.041   5.579   0.099  0.3699  3.1811 -1.4488
 5084TIP3    H236668   0.126   5.583   0.224  0.0522 -1.4589 -0.9045
 5085TIP3   OH236669   3.468   6.536  14.385 -0.5181  0.0372  0.7973
 5085TIP3    H136670   3.445   6.485  14.307  1.5762 -1.8722  1.3173
 5085TIP3    H236671   3.457   6.474  14.457  0.6684  0.7808  1.6368
 5086TIP3   OH236672   4.223   3.151  12.172  0.2904  0.5609 -0.2502
 5086TIP3    H136673   4.245   3.242  12.194 -1.7295  0.6575  1.7804
 5086TIP3    H236674   4.233   3.146  12.077 -0.6474  3.2517 -0.5850
 5087TIP3   OH236675   4.191   4.071   0.108 -0.5065  0.0838  0.0225
 5087TIP3    H136676   4.203   3.996   0.050 -0.9415 -0.4219  0.5735
 5087TIP3    H236677   4.225   4.145   0.059  0.3539 -0.5450 -0.3554
 5088TIP3   OH236678   3.599   5.926   6.096 -0.4334 -0.4531 -0.0005
 5088TIP3    H136679   3.614   6.019   6.110  2.9049 -0.6158 -1.5525
 5088TIP3    H236680   3.513   5.921   6.053  0.7259  2.2849 -2.9797
 5089TIP3   OH236681   0.154   0.233   2.052  0.0302 -0.1242  0.6226
 5089TIP3    H136682   0.199   0.161   2.006  0.3915  0.6235 -0.2129
 5089TIP3    H236683   0.219   0.265   2.114 -0.2956 -0.8195  1.3436
 5090TIP3   OH236684   6.645   3.657   0.670  0.4741  0.2411 -0.0071
 5090TIP3    H136685   6.569   3.710   0.694  0.3072  0.1752 -0.3838
 5090TIP3    H236686   6.669   3.612   0.751 -0.0536  0.0581  0.0523
 5091TIP3   OH236687   2.581   4.443   0.375 -0.0588  0.0453  0.6616
 5091TIP3    H136688   2.583   4.391   0.295 -1.5068 -2.2693  2.0021
 5091TIP3    H236689   2.666   4.485   0.379 -0.2715  1.0147 -2.5257
 5092TIP3   OH236690   6.479   5.023   5.442  0.5015  0.2739  0.1567
 5092TIP3    H136691   6.505   5.094   5.383 -1.5135  2.1266  1.3942
 5092TIP3    H236692   6.504   5.053   5.529 -1.4021  0.0296  0.8286
 5093TIP3   OH236693   0.517   4.613   3.368  0.7711  0.0785  0.6439
 5093TIP3    H136694   0.565   4.576   3.441 -0.7736 -1.5953  0.8911
 5093TIP3    H236695   0.527   4.549   3.297 -1.3561 -0.5641  0.8457
 5094TIP3   OH236696   1.780   5.351  11.670 -0.3139 -0.2277 -0.3899
 5094TIP3    H136697   1.853   5.408  11.646  0.7852 -1.0921  0.7667
 5094TIP3    H236698   1.790   5.275  11.613 -0.1651 -0.4555 -0.0605
 5095TIP3   OH236699   3.721   5.575  15.736 -0.1738 -0.2521 -0.1473
 5095TIP3    H136700   3.709   5.567  15.830  0.0586 -1.8667 -0.2355
 5095TIP3    H236701   3.706   5.487  15.702 -1.2101  0.4844 -1.7360
 5096TIP3   OH236702   4.989   2.532  11.169  0.4050  0.2032 -1.1904
 5096TIP3    H136703   4.994   2.469  11.098  0.7266 -1.1135 -0.0355
 5096TIP3    H236704   5.026   2.487  11.244  0.4394  1.7003 -0.2683
 5097TIP3   OH236705   4.784   0.730  11.492 -0.3871  0.9143  0.2444
 5097TIP3    H136706   4.782   0.635  11.484 -0.2121  0.8228  1.2069
 5097TIP3    H236707   4.856   0.748  11.552 -0.5694  1.6416  0.2596
 5098TIP3   OH236708   5.886   3.349   0.955  0.2003  0.1681 -0.2726
 5098TIP3    H136709   5.982   3.354   0.946  0.1224  2.0235 -0.5095
 5098TIP3    H236710   5.869   3.260   0.985  1.8400 -0.8625 -2.1840
 5099TIP3   OH236711   4.339   6.709  13.174 -0.3474  0.3192 -0.4977
 5099TIP3    H136712   4.381   6.718  13.089  0.0549  0.9817 -0.2349
 5099TIP3    H236713   4.361   6.790  13.221 -0.7963  0.0877  0.1315
 5100TIP3   OH236714   3.221   2.079   4.464  0.0864 -0.6000  0.4876
 5100TIP3    H136715   3.253   2.166   4.487 -0.1428 -0.6202  0.8944
 5100TIP3    H236716   3.296   2.020   4.478 -0.2510 -0.7204  1.9085
 5101TIP3   OH236717   5.649   4.970   0.609 -0.2142 -0.0334  0.0414
 5101TIP3    H136718   5.723   4.963   0.669 -0.6868 -1.6013  0.4921
 5101TIP3    H236719   5.682   5.020   0.534  0.1876  2.6931  1.8761
 5102TIP3   OH236720   3.522   3.637   1.714 -0.1580 -0.2234  0.1319
 5102TIP3    H136721   3.599   3.597   1.673  0.8452  0.7793  0.9750
 5102TIP3    H236722   3.527   3.610   1.806  0.6649  1.8819  0.7819
 5103TIP3   OH236723   0.802   0.386   4.886 -0.4988 -0.5573  0.4926
 5103TIP3    H136724   0.830   0.304   4.847  0.4374 -0.8053  1.6227
 5103TIP3    H236725   0.869   0.405   4.952 -1.2622  0.5658  0.9742
 5104TIP3   OH236726   1.896   0.929   4.295  0.1777  0.3072 -0.1598
 5104TIP3    H136727   1.886   0.895   4.384 -0.0357 -1.0134 -0.6624
 5104TIP3    H236728   1.809   0.919   4.256  0.7755 -1.2741 -1.2060
 5105TIP3   OH236729   2.771   3.262   0.203  0.1026  0.1013  0.1710
 5105TIP3    H136730   2.735   3.250   0.291 -2.7404  1.8699 -0.6159
 5105TIP3    H236731   2.750   3.353   0.182  2.5922  0.3449 -1.5723
 5106TIP3   OH236732   2.396   6.759   3.799 -0.4947  0.2175 -0.2631
 5106TIP3    H136733   2.384   6.713   3.882  0.5003 -0.1077 -0.2838
 5106TIP3    H236734   2.311   6.752   3.755 -0.3565 -1.7552 -0.3322
 5107TIP3   OH236735   1.741   1.728  12.893 -0.5707 -0.2934  0.5193
 5107TIP3    H136736   1.794   1.654  12.923  3.8989  1.9323 -0.9367
 5107TIP3    H236737   1.740   1.720  12.798 -0.5593  1.1380  0.3712
 5108TIP3   OH236738   2.387   1.115  16.367 -0.9258 -0.0241 -0.0570
 5108TIP3    H136739   2.409   1.170  16.443  1.7067 -0.1921 -0.5918
 5108TIP3    H236740   2.358   1.177  16.300 -1.0850  0.3713  0.3731
 5109TIP3   OH236741   2.010   5.377  12.643  0.1367  0.2189  0.2554
 5109TIP3    H136742   2.017   5.436  12.718 -1.0308 -0.8043  1.2107
 5109TIP3    H236743   1.945   5.417  12.585 -1.0584 -0.3525  1.1609
 5110TIP3   OH236744   0.104   0.599   0.532  0.1574 -0.3546 -0.1158
 5110TIP3    H136745   0.091   0.678   0.584 -0.0422 -0.6241  0.2512
 5110TIP3    H236746   0.051   0.612   0.454  1.3869  0.5731 -0.8395
 5111TIP3   OH236747   1.555   4.348  16.144 -0.1139  0.0396 -0.1347
 5111TIP3    H136748   1.462   4.326  16.153  0.4397 -1.8137  1.6770
 5111TIP3    H236749   1.593   4.272  16.100  0.5102  0.9966 -1.3185
 5112TIP3   OH236750   6.504   1.960   2.675  0.0229  0.5533  0.1251
 5112TIP3    H136751   6.500   1.911   2.593  0.5988  0.7211 -0.0084
 5112TIP3    H236752   6.457   1.906   2.738  3.0543 -1.6043  0.7253
 5113TIP3   OH236753   6.564   1.943  17.229 -0.8976 -0.4589  0.2643
 5113TIP3    H136754   6.562   1.961  17.135  0.9796 -2.3570 -0.2179
 5113TIP3    H236755   6.632   2.000  17.263 -0.9391 -0.4428  0.3216
 5114TIP3   OH236756   1.293   2.753  15.899 -0.1503 -0.4381 -0.0150
 5114TIP3    H136757   1.254   2.720  15.980 -0.4121  1.1595  0.5392
 5114TIP3    H236758   1.247   2.707  15.830 -0.3621 -1.3647  0.7166
 5115TIP3   OH236759   3.586   1.043  12.127 -0.3519 -0.0116 -0.0223
 5115TIP3    H136760   3.530   1.012  12.056 -2.1114  0.6522  1.0069
 5115TIP3    H236761   3.636   0.965  12.154  1.5905  0.0620 -2.9609
 5116TIP3   OH236762   1.101   0.881   4.618 -0.8288  0.0620  0.0503
 5116TIP3    H136763   1.067   0.862   4.706  2.7754 -2.5002  1.1067
 5116TIP3    H236764   1.101   0.797   4.573  0.5857  0.6536 -1.1508
 5117TIP3   OH236765   5.285   0.014   1.828 -0.0473  0.2007 -0.4656
 5117TIP3    H136766   5.327  -0.072   1.834 -1.1641 -0.3601 -0.4938
 5117TIP3    H236767   5.346   0.066   1.775 -0.4448 -1.3069 -2.5660
 5118TIP3   OH236768   0.689   1.156  14.063 -0.0291  0.1182  0.0419
 5118TIP3    H136769   0.672   1.144  14.157  1.8617  0.3277  0.4413
 5118TIP3    H236770   0.686   1.067  14.027 -1.3746  0.0928  0.1512
 5119TIP3   OH236771   3.343   4.218   3.818 -0.5636 -0.2921  0.0402
 5119TIP3    H136772   3.364   4.127   3.839 -0.7907 -0.6641 -1.2629
 5119TIP3    H236773   3.256   4.231   3.858 -0.5089 -0.6256  0.2801
 5120TIP3   OH236774   6.591   2.601  16.921 -0.8453  0.2476  0.1837
 5120TIP3    H136775   6.634   2.683  16.943 -0.2741  0.1481 -0.5091
 5120TIP3    H236776   6.505   2.607  16.961 -0.3704  0.6712  1.1602
 5121TIP3   OH236777   1.193   0.548   5.844 -0.3062  0.5126 -0.0423
 5121TIP3    H136778   1.115   0.577   5.796 -0.7948  1.2179  1.1303
 5121TIP3    H236779   1.196   0.454   5.830 -1.5298  0.4389  0.1100
 5122TIP3   OH236780   2.863   2.346   2.856 -0.2922 -1.2015  0.0434
 5122TIP3    H136781   2.956   2.324   2.850 -0.0002  0.1130 -0.5395
 5122TIP3    H236782   2.843   2.337   2.949  1.0411  0.7846  0.5792
 5123TIP3   OH236783   4.011   2.424  12.715  0.6686  0.3053 -0.2781
 5123TIP3    H136784   4.036   2.454  12.628  1.8322  1.1507  0.3112
 5123TIP3    H236785   3.997   2.505  12.765  2.7124 -0.0667  1.0289
 5124TIP3   OH236786   5.517   2.664   5.569 -0.1743  0.0682  0.6090
 5124TIP3    H136787   5.444   2.650   5.509  0.4882 -1.5105  0.1239
 5124TIP3    H236788   5.534   2.578   5.608  1.7730  0.2489  0.2764
 5125TIP3   OH236789   5.629   3.601  15.252  0.4350 -0.2517 -0.1734
 5125TIP3    H136790   5.612   3.550  15.332 -1.4971 -1.1454 -1.1001
 5125TIP3    H236791   5.721   3.628  15.261 -0.1172  1.0054  3.0508
 5126TIP3   OH236792   4.635   4.278   3.395 -0.2988  0.5466  0.2355
 5126TIP3    H136793   4.717   4.230   3.408 -0.2849  0.1643 -1.1448
 5126TIP3    H236794   4.629   4.290   3.301 -1.2703  1.5831  0.4119
 5127TIP3   OH236795   4.703   3.139  12.970 -0.3834  0.2877  0.0872
 5127TIP3    H136796   4.700   3.142  12.875 -0.5488 -0.2966  0.0725
 5127TIP3    H236797   4.727   3.228  12.996 -0.7147  0.5449 -0.4814
 5128TIP3   OH236798   4.079   1.026  12.864 -0.3589  0.4458  0.3561
 5128TIP3    H136799   4.155   0.994  12.815 -0.7414 -1.0679  0.7011
 5128TIP3    H236800   4.005   1.008  12.807 -0.6499  0.0896  0.8374
 5129TIP3   OH236801   1.420   6.558   5.159  0.6919 -0.7011 -0.0368
 5129TIP3    H136802   1.507   6.589   5.135  0.7725 -0.7473  0.1936
 5129TIP3    H236803   1.371   6.638   5.180  0.4934 -0.6252 -0.7578
 5130TIP3   OH236804   0.351   0.182  16.405  0.4149 -0.4031  0.3009
 5130TIP3    H136805   0.364   0.197  16.311  0.3215 -1.6725  0.0746
 5130TIP3    H236806   0.304   0.260  16.435 -1.6432 -1.0056 -1.1791
 5131TIP3   OH236807   5.278   2.802  11.544 -0.6354 -0.3702  0.2843
 5131TIP3    H136808   5.259   2.773  11.455 -2.1515  0.2995  0.3707
 5131TIP3    H236809   5.222   2.747  11.599 -2.7089  1.8337  0.5291
 5132TIP3   OH236810   0.185   1.702   4.899 -0.7345 -0.5755 -0.4067
 5132TIP3    H136811   0.201   1.624   4.952 -0.9898  0.1784  0.8355
 5132TIP3    H236812   0.267   1.716   4.851  0.8620  0.6249  2.3866
 5133TIP3   OH236813   2.988   4.525  12.443  0.2638 -0.3305  0.1541
 5133TIP3    H136814   2.912   4.500  12.389 -0.3164  0.1017  0.7527
 5133TIP3    H236815   3.058   4.465  12.415  0.1849  0.3280 -1.5610
 5134TIP3   OH236816   1.052   6.401   5.646  0.7178  1.0616  0.1830
 5134TIP3    H136817   1.013   6.471   5.698 -0.1710 -0.9021  2.3360
 5134TIP3    H236818   1.124   6.368   5.700  0.4234 -0.3739 -0.2496
 5135TIP3   OH236819   5.986   5.772  14.648  0.1052  0.2701 -0.2494
 5135TIP3    H136820   6.052   5.823  14.601  0.4445 -1.0557 -1.2993
 5135TIP3    H236821   5.903   5.800  14.612  0.1832  0.9757  0.1019
 5136TIP3   OH236822   3.698   5.878   4.629  0.3751 -0.1784  0.2946
 5136TIP3    H136823   3.760   5.949   4.644  0.4480 -0.0424 -0.5832
 5136TIP3    H236824   3.615   5.921   4.610  0.4306 -0.3148 -0.2925
 5137TIP3   OH236825   0.890   6.300  16.350 -0.0692 -0.2585  0.0809
 5137TIP3    H136826   0.800   6.279  16.375 -0.3220  0.6004 -0.0665
 5137TIP3    H236827   0.910   6.381  16.398  0.0575  0.4324 -1.0947
 5138TIP3   OH236828   3.568   6.002  13.479  0.2170 -0.4237 -0.5072
 5138TIP3    H136829   3.650   6.050  13.476 -0.1816  0.1963 -2.2096
 5138TIP3    H236830   3.507   6.060  13.525  0.4714 -0.4821 -0.0954
 5139TIP3   OH236831   6.078   6.286   4.420 -0.2233  0.2251 -0.5579
 5139TIP3    H136832   6.025   6.262   4.496  0.4175 -1.0362 -0.4935
 5139TIP3    H236833   6.158   6.323   4.457  0.7348 -1.7588 -0.5538
 5140TIP3   OH236834   6.569   5.001   2.462  0.1462 -0.5385 -0.3798
 5140TIP3    H136835   6.664   5.009   2.462  0.1964 -0.6248 -2.1155
 5140TIP3    H236836   6.537   5.089   2.481  0.5861 -0.3970 -0.2920
 5141TIP3   OH236837   6.645   2.206  13.189  0.0413  0.2209  0.4561
 5141TIP3    H136838   6.678   2.143  13.253 -0.7055 -1.1210 -0.4568
 5141TIP3    H236839   6.686   2.181  13.106  1.1938  2.0972  0.3905
 5142TIP3   OH236840   6.756   6.039   2.534  0.3429 -0.1418  0.0967
 5142TIP3    H136841   6.847   6.063   2.515  0.2684  0.4188  0.4095
 5142TIP3    H236842   6.705   6.114   2.503 -0.2363 -1.3599 -2.1028
 5143TIP3   OH236843   5.108   0.560   1.599  0.1559  0.3143 -0.0991
 5143TIP3    H136844   5.143   0.483   1.643 -0.7516  0.3586  0.7211
 5143TIP3    H236845   5.104   0.628   1.667 -2.3095  0.0667  0.1152
 5144TIP3   OH236846   2.396   4.026   0.128 -0.1718  0.3082  0.2530
 5144TIP3    H136847   2.430   3.964   0.063 -0.9988  0.6784 -0.5564
 5144TIP3    H236848   2.301   4.016   0.124 -0.2455  0.3443  1.4173
 5145TIP3   OH236849   1.273   1.588   2.727  0.5834  0.0608 -0.0279
 5145TIP3    H136850   1.319   1.507   2.750  2.2883  0.6280 -1.1859
 5145TIP3    H236851   1.267   1.637   2.809 -0.8655 -1.3726  0.7785
 5146TIP3   OH236852   6.514   3.219   0.985  0.4751  0.2022  0.1285
 5146TIP3    H136853   6.468   3.262   1.056  0.0503 -0.3017  0.1648
 5146TIP3    H236854   6.554   3.142   1.025 -0.5374 -0.6011 -0.3450
 5147TIP3   OH236855   4.962   3.834  15.324 -0.4820 -0.0523  0.1077
 5147TIP3    H136856   4.905   3.903  15.292  1.6039  1.1997 -1.1377
 5147TIP3    H236857   4.917   3.753  15.300 -1.5436  0.8759 -1.1742
 5148TIP3   OH236858   2.575   0.102  12.262  0.2841 -0.8474  0.3414
 5148TIP3    H136859   2.547   0.066  12.177 -0.1536  0.8810 -0.2853
 5148TIP3    H236860   2.523   0.182  12.272  0.4083 -0.9666  2.2067
 5149TIP3   OH236861   5.291   3.579   3.385  0.2474 -0.0011 -0.1810
 5149TIP3    H136862   5.352   3.577   3.458 -1.4287  1.8579  1.3647
 5149TIP3    H236863   5.240   3.498   3.395  0.0374  0.2324  0.7101
 5150TIP3   OH236864   2.577   1.336   5.977 -0.0567 -0.2062 -0.3333
 5150TIP3    H136865   2.671   1.333   5.959  0.0737  0.5052  0.1834
 5150TIP3    H236866   2.538   1.374   5.898  0.3954  1.9512  0.4228
 5151TIP3   OH236867   5.455   2.638   3.476 -0.4773 -0.8479 -0.6920
 5151TIP3    H136868   5.541   2.664   3.444 -0.6350  0.4628 -0.1075
 5151TIP3    H236869   5.402   2.625   3.397 -0.8293  2.1851 -1.0681
 5152TIP3   OH236870   4.684   5.326   1.995 -0.0879 -0.5071  0.1208
 5152TIP3    H136871   4.643   5.411   1.975 -0.6317 -0.7939 -0.0096
 5152TIP3    H236872   4.746   5.346   2.065  1.0014  0.3040 -1.0250
 5153TIP3   OH236873   0.884   2.352   4.154 -0.0653  0.6916 -1.1304
 5153TIP3    H136874   0.886   2.381   4.245  2.0482 -2.3359 -0.0665
 5153TIP3    H236875   0.879   2.433   4.103 -1.0007  2.4913  1.6283
 5154TIP3   OH236876   3.692   4.213   4.031  0.6265 -0.4365  0.1759
 5154TIP3    H136877   3.679   4.269   4.108  1.7751 -1.0222  0.8182
 5154TIP3    H236878   3.679   4.124   4.065  3.1282 -0.8568  0.2006
 5155TIP3   OH236879   5.785   6.411   1.439  0.1911 -0.3805 -0.0887
 5155TIP3    H136880   5.721   6.397   1.370 -2.3112  1.0068  1.7702
 5155TIP3    H236881   5.779   6.504   1.459  3.0321 -0.1276  0.0508
 5156TIP3   OH236882   1.011   0.574   5.636  0.6714  0.5984  0.1457
 5156TIP3    H136883   0.948   0.506   5.658 -0.8697  1.8711 -0.2048
 5156TIP3    H236884   1.066   0.535   5.568  0.5132 -0.6483  0.7137
 5157TIP3   OH236885   0.522   4.002   4.664  0.4370 -0.0414 -0.9907
 5157TIP3    H136886   0.483   4.060   4.598 -0.9116  1.2455  0.8148
 5157TIP3    H236887   0.599   4.050   4.695  2.0956 -1.4233 -2.7427
 5158TIP3   OH236888   3.812   1.305  14.608 -0.0836  1.0111  0.9824
 5158TIP3    H136889   3.905   1.327  14.612 -0.5511  3.1726  1.1483
 5158TIP3    H236890   3.786   1.325  14.518 -0.4714  0.7855  1.0389
 5159TIP3   OH236891   6.578   5.706  13.324 -0.0643 -0.5783 -0.1460
 5159TIP3    H136892   6.625   5.690  13.406 -1.5995 -0.2310  0.8421
 5159TIP3    H236893   6.487   5.686  13.344 -0.2668 -1.9772 -2.2332
 5160TIP3   OH236894   2.367   5.213   2.571 -0.4494 -0.7201  0.0401
 5160TIP3    H136895   2.431   5.210   2.499 -0.8568  0.8168 -0.4301
 5160TIP3    H236896   2.420   5.226   2.649 -0.1634  1.1364 -0.4131
 5161TIP3   OH236897   3.913   4.065  15.853  0.1518  0.3402  0.3275
 5161TIP3    H136898   3.849   4.090  15.786  1.3079 -0.6414 -1.2123
 5161TIP3    H236899   3.972   4.141  15.858  0.3563  0.2252 -0.1774
 5162TIP3   OH236900   4.524   2.324   2.479 -0.5460 -0.2672  0.2043
 5162TIP3    H136901   4.563   2.280   2.403 -1.4413  0.5517 -0.7527
 5162TIP3    H236902   4.539   2.263   2.551  2.9655  0.2001  0.0615
 5163TIP3   OH236903   6.640   1.512  15.396  0.2145 -0.3570  0.4770
 5163TIP3    H136904   6.623   1.596  15.353 -0.2222 -0.5311  0.3006
 5163TIP3    H236905   6.590   1.448  15.344  1.3792 -0.8803 -0.0324
 5164TIP3   OH236906   3.182   0.062   3.595  0.4158 -0.2283 -0.1996
 5164TIP3    H136907   3.145   0.021   3.517 -0.8234  0.4733 -0.0181
 5164TIP3    H236908   3.271   0.029   3.600 -0.1230 -1.8973 -0.7696
 5165TIP3   OH236909   4.986   0.988  13.463 -0.1270 -0.0529 -0.1906
 5165TIP3    H136910   5.038   0.935  13.523 -1.7411  1.3584  2.6755
 5165TIP3    H236911   5.045   1.056  13.432  0.2222  0.5736  1.7244
 5166TIP3   OH236912   0.344   2.397  14.344 -0.3046  0.4308  0.4125
 5166TIP3    H136913   0.282   2.430  14.280 -0.4356  0.3199  0.4818
 5166TIP3    H236914   0.411   2.466  14.351  1.9959 -1.2038 -2.9010
 5167TIP3   OH236915   4.165   6.519   0.471 -0.0961  0.5379  0.1104
 5167TIP3    H136916   4.136   6.555   0.555 -2.3808  2.9997 -1.5316
 5167TIP3    H236917   4.250   6.560   0.455  0.2175  0.2798  1.0622
 5168TIP3   OH236918   4.672   4.958   1.877 -0.6116  0.1478  0.3269
 5168TIP3    H136919   4.633   4.979   1.962 -0.1785 -0.4833  0.6899
 5168TIP3    H236920   4.603   4.912   1.830 -1.5290  2.1431 -0.4269
 5169TIP3   OH236921   4.025   3.419  12.448  0.0769  0.0704 -0.2591
 5169TIP3    H136922   3.934   3.438  12.471 -0.0054 -0.4281 -0.1476
 5169TIP3    H236923   4.019   3.346  12.386  0.3306  0.9943 -1.4041
 5170TIP3   OH236924   1.075   5.481   2.638 -0.2176  0.3642  0.1918
 5170TIP3    H136925   1.061   5.457   2.546 -1.3594  0.3523  0.3545
 5170TIP3    H236926   1.046   5.572   2.644  0.1499  0.4647  0.4736
 5171TIP3   OH236927   2.473   0.356  12.176 -0.1691 -0.0224 -0.4761
 5171TIP3    H136928   2.521   0.430  12.214 -1.4495  0.4324  0.3178
 5171TIP3    H236929   2.407   0.396  12.120 -0.7024 -0.5766 -0.2518
 5172TIP3   OH236930   4.033   5.265  13.083  0.3171 -0.1870  0.2927
 5172TIP3    H136931   4.007   5.195  13.144 -0.1710  0.5488  0.9458
 5172TIP3    H236932   3.953   5.317  13.072  0.8265  0.5886  0.2487
 5173TIP3   OH236933   1.304   0.210   2.883 -0.7482  0.0893 -0.2417
 5173TIP3    H136934   1.394   0.239   2.868 -0.4003 -0.8519 -0.0259
 5173TIP3    H236935   1.265   0.206   2.796  0.3485 -2.4111 -0.7230
 5174TIP3   OH236936   4.323   0.147   3.638 -0.5066 -0.1538  0.2827
 5174TIP3    H136937   4.294   0.169   3.727 -0.4249  1.1374  0.0104
 5174TIP3    H236938   4.327   0.231   3.593  0.0416 -0.7304 -0.7766
 5175TIP3   OH236939   0.995   4.013   1.934  0.0393  0.2532 -0.6238
 5175TIP3    H136940   0.955   3.931   1.905  0.2910 -0.1107  0.0317
 5175TIP3    H236941   1.088   4.003   1.914  0.0651  0.3852 -0.5701
 5176TIP3   OH236942   6.522   5.785  12.433 -0.3626  0.3414  0.3198
 5176TIP3    H136943   6.514   5.877  12.408  0.5702  0.4989  0.5541
 5176TIP3    H236944   6.501   5.784  12.526  1.4866  0.6435  0.7720
 5177TIP3   OH236945   4.825   4.176   3.969 -0.1794  0.4074  0.0620
 5177TIP3    H136946   4.893   4.131   3.918 -0.3328  0.8319 -0.5216
 5177TIP3    H236947   4.791   4.108   4.027 -0.5963 -0.3244 -1.0056
 5178TIP3   OH236948   5.430   5.032   0.956  0.3558 -0.6848 -0.6330
 5178TIP3    H136949   5.424   4.978   1.035 -0.7125  1.4467  0.8645
 5178TIP3    H236950   5.479   5.109   0.985 -0.3152  0.2740 -1.9652
 5179TIP3   OH236951   5.931   6.481  16.839 -0.2623  0.2365 -0.0237
 5179TIP3    H136952   5.846   6.438  16.835 -0.1343 -0.1004 -4.4531
 5179TIP3    H236953   5.992   6.410  16.859 -0.7456 -0.1893 -0.0300
 5180TIP3   OH236954   0.926   1.676  12.215 -0.2692  0.4124  0.3864
 5180TIP3    H136955   1.006   1.688  12.163  0.8019  0.1342  1.8762
 5180TIP3    H236956   0.936   1.590  12.254 -0.2241  1.2287  2.2917
 5181TIP3   OH236957   4.256   5.911  14.775  0.5865 -0.1832 -0.4542
 5181TIP3    H136958   4.331   5.852  14.763  1.2171  0.6854 -0.9350
 5181TIP3    H236959   4.215   5.882  14.856  2.0760 -0.0360  0.4014
 5182TIP3   OH236960   6.106   1.352   2.010  0.2784 -0.3843  0.3795
 5182TIP3    H136961   6.199   1.371   2.002  0.3960 -0.5360  1.3057
 5182TIP3    H236962   6.086   1.298   1.933  0.6155  0.8790 -0.6285
 5183TIP3   OH236963   5.381   3.755   1.242  0.2930 -0.1959  0.0787
 5183TIP3    H136964   5.431   3.678   1.269 -1.0298 -0.7345  1.1420
 5183TIP3    H236965   5.306   3.719   1.194 -0.5490  0.3666  0.9215
 5184TIP3   OH236966   2.710   3.819   0.118 -0.1537  0.1618 -0.1336
 5184TIP3    H136967   2.750   3.905   0.111 -0.0306  0.0828 -0.4351
 5184TIP3    H236968   2.684   3.797   0.028 -0.6239  0.0928  0.0133
 5185TIP3   OH236969   4.728   0.787  12.403 -0.2102 -0.3191 -0.3678
 5185TIP3    H136970   4.781   0.863  12.378 -0.1343 -0.7156 -1.4847
 5185TIP3    H236971   4.731   0.730  12.326 -3.8803  0.5087 -1.3074
 5186TIP3   OH236972   0.115   5.418  12.133 -0.3539  0.7198  0.2644
 5186TIP3    H136973   0.131   5.365  12.054 -1.6785 -0.7145  0.9004
 5186TIP3    H236974   0.025   5.449  12.122 -0.3703  0.9276  0.9778
 5187TIP3   OH236975   5.701   3.042   5.844  0.3626  0.1761 -0.2702
 5187TIP3    H136976   5.782   2.992   5.845 -0.8028 -1.8373 -0.6534
 5187TIP3    H236977   5.672   3.040   5.753 -1.2301 -1.0988  0.2259
 5188TIP3   OH236978   4.615   5.419   2.419  0.0057  0.3251 -0.2301
 5188TIP3    H136979   4.527   5.383   2.410  1.1268 -2.5662 -0.9087
 5188TIP3    H236980   4.604   5.514   2.412 -2.9561  0.0207 -0.8037
 5189TIP3   OH236981   1.106   5.888   5.126  0.1320 -0.0365 -0.2089
 5189TIP3    H136982   1.037   5.920   5.184  1.4346  0.9452  0.8564
 5189TIP3    H236983   1.128   5.962   5.070  0.6484 -0.1800 -0.2075
 5190TIP3   OH236984   1.711   3.924  16.193  0.3187  0.0720  0.1566
 5190TIP3    H136985   1.736   3.974  16.116  0.2843 -0.7527 -0.3981
 5190TIP3    H236986   1.617   3.936  16.201  0.3309  0.2016  0.1020
 5191TIP3   OH236987   2.781   3.966   4.046 -0.6931 -0.2073 -0.5678
 5191TIP3    H136988   2.876   3.959   4.040 -0.3656  0.6489  2.0984
 5191TIP3    H236989   2.749   3.879   4.024  0.6828 -0.4933 -1.5758
 5192TIP3   OH236990   2.975   4.170  16.039  0.4421 -0.5218 -0.0307
 5192TIP3    H136991   3.028   4.250  16.034 -1.1857  0.6831  0.9410
 5192TIP3    H236992   2.913   4.178  15.967  0.2337 -0.9030  0.1072
 5193TIP3   OH236993   6.155   2.905   4.366  0.6304  0.1102 -0.3616
 5193TIP3    H136994   6.187   2.815   4.362  2.5028  0.7483 -0.8791
 5193TIP3    H236995   6.232   2.959   4.349 -0.4098  1.8323  0.0856
 5194TIP3   OH236996   0.179   3.133  11.203  0.2277 -0.4520 -0.1394
 5194TIP3    H136997   0.253   3.137  11.264 -0.1699  1.4619  0.2793
 5194TIP3    H236998   0.171   3.221  11.169 -1.6665 -0.6926 -0.4233
 5195TIP3   OH236999   4.280   0.916  17.200 -0.2319  0.7275 -0.2484
 5195TIP3    H137000   4.299   0.823  17.189 -1.2518  0.6724 -1.8750
 5195TIP3    H237001   4.196   0.918  17.246 -0.2662  0.8243 -0.3137
 5196TIP3   OH237002   6.161   4.584   3.952 -0.2010  0.3682 -0.2682
 5196TIP3    H137003   6.140   4.491   3.967  0.2158  0.0943 -1.2962
 5196TIP3    H237004   6.093   4.614   3.892 -0.9916  1.0508  0.9274
 5197TIP3   OH237005   1.136   2.822  13.815 -0.2165 -0.3688 -0.0810
 5197TIP3    H137006   1.212   2.870  13.847 -0.7766  0.5914 -0.1621
 5197TIP3    H237007   1.083   2.888  13.770 -0.2344 -1.3607 -1.5997
 5198TIP3   OH237008   2.352   3.077  16.086 -0.1463 -0.1549  0.0379
 5198TIP3    H137009   2.379   3.146  16.026 -1.4625  1.0495  0.7662
 5198TIP3    H237010   2.433   3.030  16.106  0.9924  1.7829  0.2614
 5199TIP3   OH237011   3.898   0.582  12.524  0.2385 -0.1668 -0.4547
 5199TIP3    H137012   3.948   0.663  12.510  2.5115 -1.3650  0.2448
 5199TIP3    H237013   3.918   0.557  12.614 -1.8496 -0.6320 -0.0674
 5200TIP3   OH237014   2.531   4.491  15.472  0.0954 -0.2406  0.3868
 5200TIP3    H137015   2.486   4.417  15.513 -0.2162 -0.5976 -0.5665
 5200TIP3    H237016   2.602   4.451  15.423  0.7521  0.2247  0.9370
 5201TIP3   OH237017   0.339   3.431   2.258  0.2736  0.2042  0.4584
 5201TIP3    H137018   0.290   3.379   2.322  0.0794  1.2233  1.1677
 5201TIP3    H237019   0.309   3.399   2.173  0.3705 -1.0254  0.8660
 5202TIP3   OH237020   5.371   2.876   3.876 -0.0165 -0.3849  0.1927
 5202TIP3    H137021   5.293   2.912   3.834 -0.3672 -2.3418 -0.9489
 5202TIP3    H237022   5.430   2.854   3.804  0.6965 -0.9192  0.9181
 5203TIP3   OH237023   1.103   1.050   2.243  0.1114 -0.4892  0.5404
 5203TIP3    H137024   1.108   1.037   2.149  0.1347 -0.2583  0.5096
 5203TIP3    H237025   1.194   1.057   2.272  0.1561 -1.7077  0.7450
 5204TIP3   OH237026   6.551   2.089  12.331 -0.0940  0.2372  0.0602
 5204TIP3    H137027   6.501   2.048  12.260  1.6091 -0.9363 -0.5330
 5204TIP3    H237028   6.642   2.074  12.308  0.5269  0.0711  2.3564
 5205TIP3   OH237029   5.108   6.318  12.801 -0.3706  0.3108 -0.0113
 5205TIP3    H137030   5.042   6.250  12.787 -0.0946  0.4052 -2.2172
 5205TIP3    H237031   5.190   6.280  12.768  0.2438  0.9335  0.7482
 5206TIP3   OH237032   1.670   2.840  14.257 -0.0486 -0.3076 -0.2851
 5206TIP3    H137033   1.711   2.913  14.211  0.6650 -1.0238 -0.8119
 5206TIP3    H237034   1.740   2.775  14.267 -0.7109 -0.9946  0.0219
 5207TIP3   OH237035   3.225   1.212   2.021  0.0036  0.1947 -0.2552
 5207TIP3    H137036   3.201   1.269   1.949  1.9410  0.1462 -1.0002
 5207TIP3    H237037   3.188   1.254   2.099 -0.1187  1.5113 -0.9992
 5208TIP3   OH237038   6.453   4.441   2.959 -0.1299  0.5526  0.1027
 5208TIP3    H137039   6.394   4.441   2.884 -0.6255 -2.4847  0.3688
 5208TIP3    H237040   6.432   4.522   3.006 -2.1737  0.8754 -1.2507
 5209TIP3   OH237041   6.041   4.334   3.924  0.4330  0.1864 -0.2879
 5209TIP3    H137042   6.098   4.266   3.960 -0.0845 -0.4868 -0.7265
 5209TIP3    H237043   6.086   4.363   3.845  0.0966 -0.4691 -0.7298
 5210TIP3   OH237044   1.197   5.273   3.507  0.0083  0.0569 -0.5611
 5210TIP3    H137045   1.257   5.238   3.573 -0.6161 -2.0663 -1.0361
 5210TIP3    H237046   1.235   5.357   3.483  3.0796 -1.3532 -1.1459
 5211TIP3   OH237047   6.702   1.238   3.313  0.1015 -0.1825 -0.3809
 5211TIP3    H137048   6.768   1.170   3.302 -0.8356 -1.1789 -0.0016
 5211TIP3    H237049   6.625   1.192   3.345 -0.3115  1.1766  0.6742
 5212TIP3   OH237050   4.645   2.857   3.914  0.0713  0.5633  0.7135
 5212TIP3    H137051   4.576   2.910   3.875  0.9863  0.7473 -0.7324
 5212TIP3    H237052   4.652   2.781   3.856  2.1614  1.3376 -0.1084
 5213TIP3   OH237053   2.600   1.759  16.855 -0.5457 -0.0964 -0.2044
 5213TIP3    H137054   2.588   1.691  16.788 -0.2182 -1.1558  0.7776
 5213TIP3    H237055   2.543   1.731  16.928  1.6874 -0.8876  1.3359
 5214TIP3   OH237056   0.488   6.403   0.256 -0.1989  0.2711 -0.4488
 5214TIP3    H137057   0.563   6.351   0.227 -1.1413 -1.3823 -0.0128
 5214TIP3    H237058   0.524   6.460   0.324  1.1042  1.1126 -1.7785
 5215TIP3   OH237059   2.019   6.074   0.959  0.5940  0.9001  0.3191
 5215TIP3    H137060   2.046   6.154   0.914 -0.0012  2.3180  2.3310
 5215TIP3    H237061   2.100   6.029   0.980  0.9259  0.8065 -1.0433
 5216TIP3   OH237062   3.370   5.848   0.894 -0.1456  0.1833  0.2825
 5216TIP3    H137063   3.315   5.883   0.824  1.2304  1.9209  0.0128
 5216TIP3    H237064   3.407   5.768   0.857 -0.2682  0.5195 -0.5985
 5217TIP3   OH237065   0.852   4.642   3.232  0.3395  0.0125 -0.1887
 5217TIP3    H137066   0.866   4.552   3.261  0.2948  0.4373  1.2385
 5217TIP3    H237067   0.882   4.643   3.141 -1.5298 -1.9230 -0.9119
 5218TIP3   OH237068   6.670   1.299  12.685  0.5706 -0.2207  0.7480
 5218TIP3    H137069   6.747   1.245  12.667  1.2807  0.6116  1.2486
 5218TIP3    H237070   6.617   1.246  12.746  0.6618 -0.8551  0.2842
 5219TIP3   OH237071   0.961   0.299  11.589 -0.5568  0.2916  0.2199
 5219TIP3    H137072   1.004   0.341  11.663 -0.4366  0.7259 -0.0900
 5219TIP3    H237073   0.878   0.346  11.579 -0.2610  0.7120 -0.3545
 5220TIP3   OH237074   2.682   0.643   3.832 -0.4556  0.5250 -0.2583
 5220TIP3    H137075   2.613   0.698   3.870  0.7868  2.3039 -0.4499
 5220TIP3    H237076   2.736   0.617   3.906 -0.5700  0.2327 -0.2746
 5221TIP3   OH237077   5.470   6.537  10.682 -0.5803  0.0636  0.2776
 5221TIP3    H137078   5.519   6.455  10.690 -1.3065 -0.4958 -0.8485
 5221TIP3    H237079   5.422   6.530  10.599  0.2913  2.1379 -0.4886
 5222TIP3   OH237080   4.233   5.587  10.998 -0.2254  0.4674  0.4812
 5222TIP3    H137081   4.271   5.556  10.915 -0.7817  0.2755  0.2898
 5222TIP3    H237082   4.284   5.542  11.065 -1.7148 -1.8327  0.2037
 5223TIP3   OH237083   5.019   1.013   5.394 -0.3221 -0.0064  0.2282
 5223TIP3    H137084   5.092   1.075   5.393 -0.1307 -0.2309  0.0975
 5223TIP3    H237085   5.039   0.954   5.466 -1.3674  1.0901  1.4673
 5224TIP3   OH237086   3.078   5.845  13.474  0.1620 -0.6547 -0.6123
 5224TIP3    H137087   3.137   5.833  13.399  1.5859  0.5534  0.2341
 5224TIP3    H237088   3.089   5.937  13.497  1.0159 -1.3315  2.0298
 5225TIP3   OH237089   3.182   6.566  16.710  0.5104 -0.1373  0.5265
 5225TIP3    H137090   3.264   6.547  16.664 -0.0257  1.3333 -1.1336
 5225TIP3    H237091   3.204   6.556  16.802  2.5760  0.2237  0.1217
 5226TIP3   OH237092   1.015   3.426  13.858 -0.0244  0.2898 -0.1959
 5226TIP3    H137093   0.928   3.387  13.845  0.9408 -2.3488  0.6031
 5226TIP3    H237094   1.069   3.385  13.790  0.8077  1.2077 -0.1031
 5227TIP3   OH237095   5.441   1.978   0.391  0.6723  0.0781 -0.1775
 5227TIP3    H137096   5.379   2.046   0.366  2.5742  1.0022 -2.7632
 5227TIP3    H237097   5.465   1.999   0.481 -3.2488 -0.8366  1.2996
 5228TIP3   OH237098   0.066   0.163  10.923  0.1014  0.1134  0.3558
 5228TIP3    H137099   0.123   0.175  10.848  1.0161 -1.3325  0.7701
 5228TIP3    H237100  -0.023   0.170  10.888  0.5202  1.0806 -0.5343
 5229TIP3   OH237101   5.189   3.594   3.071  0.6717  0.1624 -0.3915
 5229TIP3    H137102   5.215   3.562   3.157  2.8550 -0.3695 -1.1960
 5229TIP3    H237103   5.171   3.516   3.020 -3.6944  0.4355  0.2867
 5230TIP3   OH237104   3.435   5.013   0.219  0.0910 -0.0012 -0.4511
 5230TIP3    H137105   3.518   4.969   0.203 -0.8822 -1.4802 -1.7502
 5230TIP3    H237106   3.420   5.003   0.313  1.2335  0.0432 -0.2539
 5231TIP3   OH237107   0.557   1.440   4.539 -0.4868  0.6549  0.1224
 5231TIP3    H137108   0.608   1.439   4.620  1.6763  0.9278 -1.1783
 5231TIP3    H237109   0.519   1.352   4.533  2.0099 -0.4704 -0.1545
 5232TIP3   OH237110   4.127   6.213  12.147  0.0198 -0.3142 -0.5590
 5232TIP3    H137111   4.051   6.251  12.192 -1.2733  0.0725 -2.9193
 5232TIP3    H237112   4.200   6.271  12.169 -0.5643 -0.0744  0.8732
 5233TIP3   OH237113   4.261   2.630   4.978  0.4929 -0.1993  0.1813
 5233TIP3    H137114   4.231   2.640   4.888  0.3365 -2.2743 -0.0599
 5233TIP3    H237115   4.223   2.704   5.025  0.7233  1.0200 -1.4750
 5234TIP3   OH237116   2.151   0.627  13.115  0.0844  0.1584  0.1446
 5234TIP3    H137117   2.212   0.553  13.118  0.1274  0.1317 -1.0733
 5234TIP3    H237118   2.144   0.650  13.022 -1.7028  0.2133  0.2464
 5235TIP3   OH237119   5.338   1.819  14.500  0.1067  0.0599  0.7869
 5235TIP3    H137120   5.336   1.858  14.587 -0.2638  0.2956  0.6748
 5235TIP3    H237121   5.379   1.885  14.445  0.7101 -0.2499  0.8579
 5236TIP3   OH237122   2.749   3.519   1.073  0.0980 -0.2414 -0.0460
 5236TIP3    H137123   2.785   3.604   1.050 -1.5370  0.2845 -0.8830
 5236TIP3    H237124   2.681   3.503   1.007  0.2902 -2.1616  0.1423
 5237TIP3   OH237125   1.782   3.147   5.123 -0.2592  0.4950 -0.4242
 5237TIP3    H137126   1.861   3.129   5.071 -0.3822  1.0566 -0.8180
 5237TIP3    H237127   1.816   3.174   5.208 -0.0664 -1.0051 -0.0073
 5238TIP3   OH237128   1.237   6.414   1.041 -0.0534 -0.1060 -0.0120
 5238TIP3    H137129   1.189   6.386   0.963  0.6009  0.8504 -0.7910
 5238TIP3    H237130   1.194   6.495   1.069 -0.7764 -0.8530  1.1104
 5239TIP3   OH237131   6.515   4.236  16.169  0.3904 -0.2748 -0.0568
 5239TIP3    H137132   6.446   4.219  16.105 -0.1846 -0.5100  0.6130
 5239TIP3    H237133   6.519   4.332  16.176 -1.4185 -0.2574  1.5092
 5240TIP3   OH237134   4.437   1.823  13.138 -0.0046 -0.0542  0.2207
 5240TIP3    H137135   4.437   1.731  13.165 -2.5761  0.4477  2.2951
 5240TIP3    H237136   4.379   1.826  13.063  0.9549 -0.2435 -0.5519
 5241TIP3   OH237137   4.091   6.256   4.424  0.2355  0.1841 -0.0689
 5241TIP3    H137138   4.016   6.307   4.397  0.1789 -0.6781 -1.6474
 5241TIP3    H237139   4.082   6.172   4.379  0.3450 -1.2647  2.3775
 5242TIP3   OH237140   1.927   0.577   3.649 -0.4735  0.2211  0.0644
 5242TIP3    H137141   1.992   0.616   3.707 -0.3285  0.0574  0.0144
 5242TIP3    H237142   1.977   0.516   3.595 -0.5497  0.6216 -0.4654
 5243TIP3   OH237143   5.608   0.414  11.055  0.2385 -0.2271  0.1573
 5243TIP3    H137144   5.553   0.387  11.129 -1.2414 -1.9987 -1.5103
 5243TIP3    H237145   5.676   0.468  11.096  0.1131 -1.9742  2.9706
 5244TIP3   OH237146   1.355   5.963  16.914 -0.1722 -0.2441 -1.3197
 5244TIP3    H137147   1.370   5.892  16.977  0.2672 -1.4148 -2.6916
 5244TIP3    H237148   1.266   5.948  16.883  0.3023 -0.9200 -2.4375
 5245TIP3   OH237149   1.829   6.634  16.563  0.0854 -0.1325  0.0872
 5245TIP3    H137150   1.743   6.676  16.557 -0.5326 -1.4791 -1.1934
 5245TIP3    H237151   1.813   6.544  16.535  1.7734 -0.6438  0.6611
 5246TIP3   OH237152   6.514   1.156  14.016  0.4361  0.1440  0.3002
 5246TIP3    H137153   6.570   1.143  14.093 -2.2962  2.1741  2.8641
 5246TIP3    H237154   6.551   1.232  13.971 -0.7065  2.2531  2.6576
 5247TIP3   OH237155   2.863   4.819   4.649 -0.1759 -0.1537  0.0566
 5247TIP3    H137156   2.865   4.845   4.741  0.7317 -0.3090  0.0884
 5247TIP3    H237157   2.801   4.880   4.608  3.0642  3.3523 -0.2227
 5248TIP3   OH237158   5.038   3.790  14.097 -0.3444 -0.2283  0.1931
 5248TIP3    H137159   5.017   3.883  14.103  1.2843  0.0851  3.0125
 5248TIP3    H237160   4.964   3.746  14.139 -0.2131  0.0052  0.6846
 5249TIP3   OH237161   2.386   6.172  10.706  0.1332 -0.1969  0.2031
 5249TIP3    H137162   2.411   6.113  10.636 -1.5012  0.5113 -1.0548
 5249TIP3    H237163   2.332   6.239  10.663 -1.4345 -0.0706  2.1966
 5250TIP3   OH237164   2.704   6.565   0.264 -0.0630 -0.6233  0.5060
 5250TIP3    H137165   2.672   6.554   0.353 -1.3662  0.6881  0.2301
 5250TIP3    H237166   2.662   6.495   0.214  0.0283 -0.8594  0.7606
 5251TIP3   OH237167   2.592   0.872  14.771  0.1332  0.3128  0.1799
 5251TIP3    H137168   2.662   0.855  14.708 -0.1026  1.0943 -0.2990
 5251TIP3    H237169   2.633   0.857  14.856  0.6657 -0.0001 -0.1235
 5252TIP3   OH237170   4.531   6.032  10.498  0.3212 -0.5872 -0.1609
 5252TIP3    H137171   4.459   6.085  10.533  1.6456  3.3094 -2.6588
 5252TIP3    H237172   4.488   5.955  10.460 -1.7321 -1.5667  3.7017
 5253TIP3   OH237173   6.584   4.507  16.243  0.2528 -0.0588 -0.5007
 5253TIP3    H137174   6.548   4.535  16.328  0.4124  0.1251 -0.4946
 5253TIP3    H237175   6.678   4.502  16.258  0.0855 -2.6364  0.1188
 5254TIP3   OH237176   4.219   6.378   5.816 -0.3512 -0.2710 -0.4292
 5254TIP3    H137177   4.250   6.311   5.877  0.0673 -0.0650 -0.4094
 5254TIP3    H237178   4.279   6.452   5.830  1.1663 -0.9719 -2.6616
 5255TIP3   OH237179   3.804   2.978   2.257  0.1766 -0.4519 -0.5394
 5255TIP3    H137180   3.873   2.936   2.206 -0.6267 -1.8288 -0.5320
 5255TIP3    H237181   3.847   3.003   2.339  0.2788 -2.9587  0.2311
 5256TIP3   OH237182   4.430   4.314  15.231 -0.0194  0.0627 -0.3879
 5256TIP3    H137183   4.419   4.399  15.188  1.1192  0.4536  0.0588
 5256TIP3    H237184   4.506   4.275  15.187 -0.9843 -1.0684 -1.1048
 5257TIP3   OH237185   5.896   0.031   0.045 -0.0698  0.1699  1.0382
 5257TIP3    H137186   5.901   0.068  -0.043 -0.1422  0.9091  1.3328
 5257TIP3    H237187   5.970   0.070   0.092  0.0607 -0.3407  1.2586
 5258TIP3   OH237188   3.467   5.650   5.140 -0.4273  0.4382 -0.3820
 5258TIP3    H137189   3.409   5.574   5.149 -0.1871  0.2823 -0.1400
 5258TIP3    H237190   3.423   5.706   5.076 -0.6154  0.1036 -0.5476
 5259TIP3   OH237191   6.745   2.512   2.892 -0.4313  0.7682 -0.2018
 5259TIP3    H137192   6.661   2.505   2.937 -0.4286  3.3324  0.3797
 5259TIP3    H237193   6.804   2.547   2.958  1.1109 -0.8555 -0.6525
 5260TIP3   OH237194   1.277   3.909   3.731  0.9083  0.6119  0.0849
 5260TIP3    H137195   1.344   3.888   3.665  1.2799  1.3946  0.2080
 5260TIP3    H237196   1.225   3.829   3.737  1.6890  0.0674 -0.1802
 5261TIP3   OH237197   1.611   4.596   4.886 -0.1726 -0.3747 -0.2058
 5261TIP3    H137198   1.692   4.646   4.898  0.2764 -1.0401 -0.3969
 5261TIP3    H237199   1.625   4.516   4.937  0.5014 -1.8345 -2.4883
 5262TIP3   OH237200   6.200   0.998   5.277  0.0931 -0.3908  0.2997
 5262TIP3    H137201   6.116   0.983   5.322  0.2105 -1.2335  0.2590
 5262TIP3    H237202   6.181   1.067   5.214 -0.1426  0.6400  1.4514
 5263TIP3   OH237203   4.717   3.660   1.705  0.3623  0.1691 -0.0307
 5263TIP3    H137204   4.669   3.713   1.641 -0.5685 -1.5904 -0.8748
 5263TIP3    H237205   4.663   3.663   1.784  0.7086  1.0760  0.1802
 5264TIP3   OH237206   3.341   1.964   5.847 -0.1022 -0.2733  0.5697
 5264TIP3    H137207   3.387   2.035   5.802 -0.9007  1.9329  2.9524
 5264TIP3    H237208   3.249   1.977   5.823 -0.2086 -0.7219  0.7333
 5265TIP3   OH237209   5.382   5.374   6.095  0.3806  0.0299 -0.3755
 5265TIP3    H137210   5.391   5.468   6.081  0.5457  0.1250  0.3085
 5265TIP3    H237211   5.418   5.360   6.183 -0.8145 -0.4811  0.0524
 5266TIP3   OH237212   5.600   2.062   0.111 -0.3346 -0.4854 -0.0295
 5266TIP3    H137213   5.687   2.091   0.081 -0.0321 -1.5643 -0.2410
 5266TIP3    H237214   5.619   1.994   0.176 -1.0214 -0.3017  0.3594
 5267TIP3   OH237215   2.570   2.600   5.401  0.2108  0.0105  0.3664
 5267TIP3    H137216   2.633   2.602   5.472  0.5363  1.2226  0.0704
 5267TIP3    H237217   2.610   2.653   5.332  0.8877 -2.8300 -1.5811
 5268TIP3   OH237218   3.628   2.819  13.882 -0.2954 -0.2645  0.2636
 5268TIP3    H137219   3.598   2.734  13.848  0.2105 -0.9033  1.3807
 5268TIP3    H237220   3.723   2.816  13.873 -0.3885  1.2158 -2.0076
 5269TIP3   OH237221   0.520   4.751  16.109 -0.0708 -0.0489 -0.1326
 5269TIP3    H137222   0.603   4.768  16.154  0.4750 -0.5276 -0.9249
 5269TIP3    H237223   0.546   4.724  16.021 -1.0203 -1.3591 -0.0420
 5270TIP3   OH237224   4.164   6.689  17.173 -0.1026 -0.2064 -0.1376
 5270TIP3    H137225   4.176   6.595  17.189 -0.7742 -0.0521  1.5729
 5270TIP3    H237226   4.220   6.708  17.098  2.8622 -1.2940  1.6133
 5271TIP3   OH237227   3.557   5.684   6.269  0.1863  0.5832 -0.2628
 5271TIP3    H137228   3.550   5.724   6.355  0.8360 -1.4135  0.7759
 5271TIP3    H237229   3.585   5.755   6.211  1.0533  1.6639  1.4255
 5272TIP3   OH237230   3.912   0.042   3.594  0.0087  0.0514 -0.6706
 5272TIP3    H137231   3.858  -0.030   3.627 -0.6567  0.8278 -0.0172
 5272TIP3    H237232   3.892   0.047   3.501  0.1887 -0.7116 -0.7545
 5273TIP3   OH237233   5.824   0.275   4.827 -0.8141  0.2432 -0.2191
 5273TIP3    H137234   5.888   0.304   4.892 -0.8587  2.0946 -0.9335
 5273TIP3    H237235   5.859   0.307   4.744 -0.0122 -3.2921 -1.4020
 5274TIP3   OH237236   0.865   5.099  15.927 -0.3702 -0.1359 -0.2018
 5274TIP3    H137237   0.843   5.027  15.869  0.9808 -0.4092 -0.3959
 5274TIP3    H237238   0.784   5.115  15.976 -1.0510 -0.9527 -1.0193
 5275TIP3   OH237239   5.311   2.743   1.998 -0.3304  0.1464  0.6351
 5275TIP3    H137240   5.228   2.748   1.951 -0.4763  1.5960  1.0021
 5275TIP3    H237241   5.286   2.752   2.090  0.1076 -0.9931  0.8887
 5276TIP3   OH237242   5.470   3.251   2.354 -0.4206  0.0805  0.0608
 5276TIP3    H137243   5.386   3.295   2.361 -1.4778 -1.7091 -0.6103
 5276TIP3    H237244   5.463   3.197   2.275  1.9867  1.1160 -0.9701
 5277TIP3   OH237245   6.001   4.686   3.239  0.1424  0.6668  0.2196
 5277TIP3    H137246   5.984   4.655   3.328  0.7244 -1.1631 -0.2626
 5277TIP3    H237247   6.045   4.770   3.251 -1.2855  1.2758  1.6037
 5278TIP3   OH237248   5.811   4.716  16.608 -0.5576 -0.5928  0.1966
 5278TIP3    H137249   5.720   4.728  16.581 -0.0914 -0.3228 -1.3033
 5278TIP3    H237250   5.812   4.628  16.648 -1.2702 -1.0212 -0.6916
 5279TIP3   OH237251   5.329   2.402   1.455  0.8711  0.0431 -0.1519
 5279TIP3    H137252   5.380   2.321   1.445  1.1405  0.3243 -1.1993
 5279TIP3    H237253   5.238   2.374   1.449  0.7970 -0.5828  2.5565
 5280TIP3   OH237254   3.367   0.017  16.673 -0.1416  0.3558 -0.5205
 5280TIP3    H137255   3.366   0.019  16.769  0.6761 -0.9283 -0.4575
 5280TIP3    H237256   3.302  -0.049  16.650 -0.5193  0.8412 -0.8705
 5281TIP3   OH237257   2.263   4.096   3.819  0.4069 -0.0227  0.3864
 5281TIP3    H137258   2.244   4.049   3.900 -1.5679 -0.7056 -0.4189
 5281TIP3    H237259   2.281   4.186   3.848 -2.0494  0.1955  1.5082
 5282TIP3   OH237260   2.868   4.839  17.056  0.7387 -0.1421  0.4563
 5282TIP3    H137261   2.877   4.929  17.024  0.3782  0.0524  0.8943
 5282TIP3    H237262   2.825   4.793  16.984  0.4694  0.1528  0.4252
 5283TIP3   OH237263   1.481   1.531  12.502 -0.4050 -0.3703 -0.5382
 5283TIP3    H137264   1.424   1.507  12.575  0.8616 -1.3694  0.1687
 5283TIP3    H237265   1.569   1.506  12.531  0.3072  0.4373 -1.8870
 5284TIP3   OH237266   1.543   5.512  14.667  0.0086  0.3764  0.3401
 5284TIP3    H137267   1.510   5.600  14.651  0.1397  0.5279  0.8979
 5284TIP3    H237268   1.494   5.456  14.606 -0.7141  0.7043  0.6130
 5285TIP3   OH237269   0.444   5.712  11.643 -0.2359  0.4356  0.3464
 5285TIP3    H137270   0.354   5.680  11.645 -0.5298  1.2492  0.8149
 5285TIP3    H237271   0.464   5.722  11.550 -0.4881 -0.1357  0.2304
 5286TIP3   OH237272   5.894   6.359  12.789 -0.7235 -0.1050 -0.3330
 5286TIP3    H137273   5.863   6.308  12.864 -1.9601  1.0225 -0.0428
 5286TIP3    H237274   5.842   6.327  12.715 -0.7449  0.0059 -0.3658
 5287TIP3   OH237275   1.419   1.328  12.327  0.3576 -0.0830  0.1311
 5287TIP3    H137276   1.444   1.410  12.370 -1.6508  1.2982 -1.1509
 5287TIP3    H237277   1.359   1.286  12.389 -0.5613  0.6699 -0.2261
 5288TIP3   OH237278   6.193   4.812  12.250  0.0377 -0.3879  0.1436
 5288TIP3    H137279   6.237   4.776  12.174  0.2592 -0.7447  0.4351
 5288TIP3    H237280   6.262   4.819  12.316 -0.5323 -2.0149  0.9806
 5289TIP3   OH237281   0.097   5.414   2.653  0.0064  0.3394 -0.1369
 5289TIP3    H137282   0.096   5.417   2.558  0.5852 -0.9150 -0.2041
 5289TIP3    H237283   0.066   5.326   2.674 -0.0242  0.5697  0.8341
 5290TIP3   OH237284   0.487   6.035   2.701  0.2363  0.2103  0.4188
 5290TIP3    H137285   0.422   5.966   2.713 -0.3273  0.6372 -0.0929
 5290TIP3    H237286   0.478   6.060   2.609  1.5886 -0.1786  0.1577
 5291TIP3   OH237287   3.130   5.566  13.571 -0.2272 -0.3893 -0.5574
 5291TIP3    H137288   3.222   5.593  13.581 -0.2391 -0.6680  0.4180
 5291TIP3    H237289   3.082   5.626  13.628 -0.6315 -0.3983 -0.8880
 5292TIP3   OH237290   1.413   3.297  16.628  0.0490  0.1577 -0.2016
 5292TIP3    H137291   1.439   3.298  16.720  1.0191  0.9734 -0.4672
 5292TIP3    H237292   1.495   3.309  16.580 -0.2220 -1.8498 -1.2405
 5293TIP3   OH237293   0.189   6.555   4.597  0.1152  0.3807  0.5409
 5293TIP3    H137294   0.234   6.542   4.514 -1.7208  0.3025 -0.4810
 5293TIP3    H237295   0.221   6.483   4.652 -0.0471 -0.7090 -0.7281
 5294TIP3   OH237296   2.139   4.466  12.403 -0.1765  0.6914 -0.5792
 5294TIP3    H137297   2.126   4.558  12.423 -0.5525  0.3299  0.9799
 5294TIP3    H237298   2.053   4.426  12.420 -0.2695  0.1818 -2.1188
 5295TIP3   OH237299   2.341   2.598  12.667  0.1738 -0.2820 -0.1686
 5295TIP3    H137300   2.370   2.507  12.658  1.1746  0.0426 -0.3939
 5295TIP3    H237301   2.263   2.604  12.612  0.0974 -1.0064 -0.1435
 5296TIP3   OH237302   0.552   3.661   6.057 -0.0841  0.7175 -0.0353
 5296TIP3    H137303   0.575   3.748   6.025 -0.0059  0.6278 -0.2171
 5296TIP3    H237304   0.631   3.630   6.102  0.5924 -0.1180 -1.7488
 5297TIP3   OH237305   0.477   1.629  14.283  0.1432 -0.5010 -0.3389
 5297TIP3    H137306   0.452   1.662  14.196 -0.8835  3.3086  1.1799
 5297TIP3    H237307   0.397   1.590  14.318  0.4814 -1.7799 -0.9443
 5298TIP3   OH237308   3.736   2.872  17.102 -0.0686  0.8391 -0.1361
 5298TIP3    H137309   3.654   2.824  17.100 -0.6943  1.8123  1.0483
 5298TIP3    H237310   3.803   2.806  17.083 -0.9941 -0.2470  0.2702
 5299TIP3   OH237311   5.535   1.458   0.421  0.2502 -0.8682 -0.6667
 5299TIP3    H137312   5.569   1.499   0.500  2.0845  0.6033 -2.1199
 5299TIP3    H237313   5.468   1.518   0.389  1.7400  0.2262 -1.8748
 5300TIP3   OH237314   2.784   1.683   2.053 -0.3447  0.0716 -0.0409
 5300TIP3    H137315   2.790   1.779   2.051 -1.5821  0.2155  1.3692
 5300TIP3    H237316   2.714   1.663   1.990 -1.7527  0.3178  1.3858
 5301TIP3   OH237317   4.172   0.865  14.297  0.0837 -0.1026  0.0693
 5301TIP3    H137318   4.202   0.883  14.209 -3.2640  1.0492 -0.9795
 5301TIP3    H237319   4.190   0.945  14.346 -0.4514  0.2829 -0.3427
 5302TIP3   OH237320   5.819   2.769   0.085  0.0565  0.2352 -0.6359
 5302TIP3    H137321   5.805   2.675   0.076 -0.7722  0.3945 -1.0155
 5302TIP3    H237322   5.849   2.780   0.176  0.6477 -0.4397 -0.7361
 5303TIP3   OH237323   2.221   1.343   3.588 -0.0595  0.0277  0.1651
 5303TIP3    H137324   2.243   1.386   3.505  1.9819 -0.0330  0.6317
 5303TIP3    H237325   2.258   1.255   3.579  0.9174  0.2849  1.4363
 5304TIP3   OH237326   5.205   1.359   0.416  1.1996  0.1660  0.7789
 5304TIP3    H137327   5.271   1.317   0.362  0.5670 -0.8170  0.7583
 5304TIP3    H237328   5.146   1.401   0.354  0.8891 -0.3363  0.7345
 5305TIP3   OH237329   2.341   0.148  16.663 -0.2072 -0.2198 -0.0630
 5305TIP3    H137330   2.323   0.075  16.722 -0.9962  2.4898  3.3936
 5305TIP3    H237331   2.367   0.220  16.721  1.4255  2.0488 -3.2936
 5306TIP3   OH237332   4.530   4.810  11.990  0.2197 -0.1946 -0.5066
 5306TIP3    H137333   4.526   4.906  11.990  0.5335 -0.1564  0.6514
 5306TIP3    H237334   4.468   4.783  11.923 -1.7279  0.7814  0.7828
 5307TIP3   OH237335   5.611   4.546  11.427  0.7019  0.1513  0.1791
 5307TIP3    H137336   5.698   4.542  11.467  1.2893  0.2510 -1.0508
 5307TIP3    H237337   5.623   4.600  11.349 -0.2092 -0.7538 -0.6152
 5308TIP3   OH237338   3.170   0.725   0.823  0.3145  0.3161 -0.0520
 5308TIP3    H137339   3.106   0.659   0.795 -1.1834  1.4587  0.5299
 5308TIP3    H237340   3.169   0.790   0.753 -0.2768  1.0676  0.6369
 5309TIP3   OH237341   6.133   2.372  14.014  0.0613  0.1618  0.4454
 5309TIP3    H137342   6.180   2.330  14.086 -1.3963  0.6174  1.7054
 5309TIP3    H237343   6.168   2.330  13.935  2.6483  0.5853  1.2911
 5310TIP3   OH237344   0.014   2.182  16.499 -0.5288  0.8849 -0.3321
 5310TIP3    H137345   0.061   2.266  16.501 -0.2820  0.7547 -0.6181
 5310TIP3    H237346  -0.067   2.201  16.451  0.0469  0.7034 -1.4172
 5311TIP3   OH237347   5.419   4.326   2.813 -0.2508 -0.5365 -0.5260
 5311TIP3    H137348   5.364   4.252   2.789  1.2090 -1.6642 -0.5542
 5311TIP3    H237349   5.446   4.308   2.903  2.0967 -1.3946 -1.3127
 5312TIP3   OH237350   2.576   5.861   6.081 -0.0631  0.1147 -0.3403
 5312TIP3    H137351   2.664   5.876   6.046  0.3040 -0.5714  0.2451
 5312TIP3    H237352   2.588   5.794   6.149 -1.1622 -0.5988 -0.8192
 5313TIP3   OH237353   5.199   5.340   2.391  0.4269  0.4339 -0.8542
 5313TIP3    H137354   5.290   5.355   2.419 -0.5126  0.9066  2.3240
 5313TIP3    H237355   5.152   5.417   2.422 -1.5003 -1.0186  0.0175
 5314TIP3   OH237356   2.894   3.134  12.802  0.0412  0.0934 -0.5617
 5314TIP3    H137357   2.988   3.145  12.793  0.4130 -1.0416  1.3310
 5314TIP3    H237358   2.871   3.189  12.877 -0.4195 -1.1990  0.2761
 5315TIP3   OH237359   0.578   5.251  11.249 -0.3012 -0.1022  0.6676
 5315TIP3    H137360   0.670   5.232  11.267 -0.6201  0.2113  2.9917
 5315TIP3    H237361   0.532   5.224  11.329 -2.2318 -0.1820 -0.3974
 5316TIP3   OH237362   0.083   5.326   3.327 -0.3460 -0.2042  0.1958
 5316TIP3    H137363   0.036   5.405   3.355  0.2084 -0.2380  1.2764
 5316TIP3    H237364   0.037   5.297   3.248 -1.8730 -0.0081  0.9753
 5317TIP3   OH237365   2.678   4.930   2.026 -0.0431  0.1327 -0.0148
 5317TIP3    H137366   2.727   4.996   2.075 -0.0260 -0.2595  0.5026
 5317TIP3    H237367   2.612   4.899   2.088  0.8203 -1.3237  0.2226
 5318TIP3   OH237368   4.224   5.723  11.403  0.2697 -0.4831  0.2368
 5318TIP3    H137369   4.129   5.725  11.387 -0.2674  1.2520  2.9687
 5318TIP3    H237370   4.240   5.638  11.443 -0.0257 -0.9925 -0.7095
 5319TIP3   OH237371   6.528   0.669  11.367  0.0578  0.1398  0.5601
 5319TIP3    H137372   6.498   0.620  11.443 -1.1080 -0.6435 -0.3666
 5319TIP3    H237373   6.545   0.603  11.300 -1.2323  0.9281 -0.6110
 5320TIP3   OH237374   6.317   1.294   3.403 -0.3800 -0.1573  0.1792
 5320TIP3    H137375   6.230   1.270   3.434 -0.6942  0.8111  0.0808
 5320TIP3    H237376   6.317   1.271   3.310 -0.4594 -0.3231  0.2192
 5321TIP3   OH237377   4.474   2.283   3.485  0.6714  0.8161  0.6563
 5321TIP3    H137378   4.428   2.219   3.539  1.2302  0.4505  0.7082
 5321TIP3    H237379   4.535   2.325   3.545 -1.9341  3.8155  1.4859
 5322TIP3   OH237380   6.281   3.244  16.383  0.0855 -0.0693  0.4257
 5322TIP3    H137381   6.203   3.200  16.350  0.0381 -0.7790  1.4373
 5322TIP3    H237382   6.354   3.204  16.336  0.0075 -0.9691  1.0407
 5323TIP3   OH237383   2.081   2.779  11.024 -0.2989 -0.0269  0.2354
 5323TIP3    H137384   1.989   2.754  11.033 -0.2698 -0.5126 -0.7497
 5323TIP3    H237385   2.115   2.723  10.955  0.7321  0.1878  0.5465
 5324TIP3   OH237386   0.002   6.630  11.794 -0.0631 -0.2955 -0.2473
 5324TIP3    H137387   0.053   6.614  11.874 -0.0023 -0.0233 -0.2306
 5324TIP3    H237388   0.067   6.625  11.724 -0.1118 -0.5070 -0.2802
 5325TIP3   OH237389   1.242   6.084   1.590  0.3449  0.0418 -0.3555
 5325TIP3    H137390   1.187   6.158   1.616 -0.7063 -0.8898  0.1666
 5325TIP3    H237391   1.263   6.101   1.498 -1.0970  0.2797 -0.6618
 5326TIP3   OH237392   4.172   2.209  16.195  0.2342 -0.1763  0.1747
 5326TIP3    H137393   4.247   2.166  16.154  1.3448  0.6288  1.3235
 5326TIP3    H237394   4.204   2.239  16.280 -1.5453 -0.2877  0.9193
 5327TIP3   OH237395   3.911   2.478  13.481  0.3526  0.1586 -0.1415
 5327TIP3    H137396   3.988   2.443  13.435 -0.2118 -0.7494 -0.4309
 5327TIP3    H237397   3.851   2.504  13.412  0.5737  1.3142  0.0807
 5328TIP3   OH237398   3.233   1.155   0.624 -0.2982 -0.1986  0.8175
 5328TIP3    H137399   3.259   1.220   0.689  0.6439  0.9190 -0.6285
 5328TIP3    H237400   3.267   1.188   0.541 -1.8950 -1.3297 -0.3567
 5329TIP3   OH237401   3.403   2.937  13.247  0.2525 -0.4687  0.0306
 5329TIP3    H137402   3.411   2.863  13.186  0.2027 -1.4034  1.1215
 5329TIP3    H237403   3.483   2.988  13.234  0.3482 -0.7759 -0.6449
 5330TIP3   OH237404   6.562   0.612  15.435 -0.7468  0.0560 -0.0998
 5330TIP3    H137405   6.590   0.619  15.526  1.6069  0.5137 -0.7686
 5330TIP3    H237406   6.527   0.699  15.413 -0.9305  0.0712  0.2584
 5331TIP3   OH237407   1.408   3.261   4.669 -0.4429 -0.4597 -0.6752
 5331TIP3    H137408   1.465   3.201   4.718 -1.3764 -0.9448 -0.1416
 5331TIP3    H237409   1.400   3.220   4.583 -1.2473 -1.2567 -0.2484
 5332TIP3   OH237410   3.877   6.615  13.634 -0.3400  0.3175  0.8855
 5332TIP3    H137411   3.802   6.587  13.581  0.6829 -0.7597 -0.0399
 5332TIP3    H237412   3.913   6.533  13.669  2.8813  0.2241 -2.0965
 5333TIP3   OH237413   2.130   4.032   6.501 -0.1391  0.2198  0.0834
 5333TIP3    H137414   2.226   4.037   6.493 -0.2559  1.2085 -0.9787
 5333TIP3    H237415   2.103   4.123   6.514 -1.0298  0.1196 -0.9771
 5334TIP3   OH237416   4.908   6.343   3.134  0.4907  0.2347  0.2267
 5334TIP3    H137417   4.942   6.283   3.200  0.7433 -0.1555 -0.2499
 5334TIP3    H237418   4.904   6.428   3.179 -0.7946 -0.3080  1.2024
 5335TIP3   OH237419   0.882   6.021   0.087  0.0640  0.0670 -0.2200
 5335TIP3    H137420   0.822   5.952   0.058 -1.2410  0.4813  1.2804
 5335TIP3    H237421   0.922   5.986   0.167 -1.8430  1.5474  1.5059
 5336TIP3   OH237422   1.124   5.148   4.857 -0.2630  0.3876  0.1117
 5336TIP3    H137423   1.196   5.086   4.868  0.2555  0.7292 -1.2083
 5336TIP3    H237424   1.101   5.142   4.764 -2.2281 -0.0146  0.5949
 5337TIP3   OH237425   1.206   0.297   0.424  0.6011  0.8657 -0.3226
 5337TIP3    H137426   1.208   0.329   0.334 -0.1119  0.5107 -0.4790
 5337TIP3    H237427   1.122   0.250   0.431  0.8661  0.4666  0.3783
 5338TIP3   OH237428   5.044   2.381  12.153 -0.2140  0.0903 -0.0166
 5338TIP3    H137429   4.982   2.417  12.090  0.0636 -0.5436 -0.6743
 5338TIP3    H237430   5.095   2.317  12.102  1.0806  0.7030  0.4561
 5339TIP3   OH237431   1.177   3.624  14.122 -0.2038  0.7038 -0.0386
 5339TIP3    H137432   1.221   3.694  14.170  0.5250  0.0303  0.3019
 5339TIP3    H237433   1.245   3.587  14.066 -0.5660  0.2461 -0.1842
 5340TIP3   OH237434   0.855   3.283  14.399  0.6953 -0.6025  0.6272
 5340TIP3    H137435   0.786   3.232  14.440  1.8249 -0.5751  2.7147
 5340TIP3    H237436   0.917   3.218  14.366 -1.0279 -0.7153 -2.8914
 5341TIP3   OH237437   2.723   0.788  13.660  0.1498 -0.1030  0.3392
 5341TIP3    H137438   2.747   0.880  13.651 -1.3231  0.2777  0.0732
 5341TIP3    H237439   2.717   0.756  13.570  0.3757 -0.3801  0.4220
 5342TIP3   OH237440   4.554   1.016  16.925 -0.1110 -0.7282 -0.4561
 5342TIP3    H137441   4.463   0.987  16.915 -0.5802  0.6524 -0.3912
 5342TIP3    H237442   4.547   1.103  16.964  1.2474 -0.6088 -0.4368
 5343TIP3   OH237443   6.767   0.222  16.341 -0.5004  0.1150 -0.1446
 5343TIP3    H137444   6.844   0.278  16.343 -0.5232  0.1797  2.5786
 5343TIP3    H237445   6.800   0.136  16.316  0.6767 -0.0675  1.8427
 5344TIP3   OH237446   0.590   2.028   3.010  0.6205  0.2221  0.4969
 5344TIP3    H137447   0.603   2.070   3.095 -0.5168  0.6072  0.4866
 5344TIP3    H237448   0.555   1.942   3.031  0.2420  0.3559  0.4124
 5345TIP3   OH237449   3.380   0.325  16.811 -0.7355  0.8513  0.0753
 5345TIP3    H137450   3.385   0.401  16.869 -1.8509  2.3890 -1.7274
 5345TIP3    H237451   3.471   0.305  16.790 -0.3026  0.3056  2.2001
 5346TIP3   OH237452   1.570   6.098   4.785 -1.2451 -0.1135 -0.5234
 5346TIP3    H137453   1.583   6.046   4.865  0.9574 -1.0848 -1.4412
 5346TIP3    H237454   1.571   6.189   4.816  5.8918  0.1158  0.2543
 5347TIP3   OH237455   5.874   2.208   2.575 -0.1172  0.3878  0.0787
 5347TIP3    H137456   5.875   2.114   2.561 -0.1161  0.0918  1.7809
 5347TIP3    H237457   5.960   2.228   2.613 -0.1802  1.0389 -0.0955
 5348TIP3   OH237458   6.256   5.325  13.974  0.4262  0.2395  0.3650
 5348TIP3    H137459   6.289   5.272  14.047 -0.2050 -0.6478  0.0271
 5348TIP3    H237460   6.334   5.357  13.930  0.8247  1.0407  1.5939
 5349TIP3   OH237461   1.267   6.217   5.681  0.1351  0.3049  0.0035
 5349TIP3    H137462   1.193   6.162   5.655 -0.4804  1.3946 -0.6221
 5349TIP3    H237463   1.344   6.169   5.650 -0.4150 -0.0110 -0.9315
 5350TIP3   OH237464   6.226   0.309  13.036 -0.4380 -0.3712 -0.1561
 5350TIP3    H137465   6.200   0.287  13.126 -1.9365  3.3646  0.4970
 5350TIP3    H237466   6.146   0.295  12.985  0.1222 -1.4785 -0.7695
 5351TIP3   OH237467   1.086   3.439   0.277  0.2190  0.2373  0.2251
 5351TIP3    H137468   1.030   3.488   0.337 -0.3879 -0.1247 -0.0285
 5351TIP3    H237469   1.161   3.497   0.261 -0.7552  1.3569 -0.5277
 5352TIP3   OH237470   3.364   3.278   1.202 -0.1268  0.0262 -0.0362
 5352TIP3    H137471   3.301   3.339   1.241 -0.8910 -0.6763 -0.1541
 5352TIP3    H237472   3.422   3.253   1.275  0.1265  0.7967  0.0374
 5353TIP3   OH237473   2.702   2.983   3.482 -0.7876 -0.0368 -0.3459
 5353TIP3    H137474   2.630   2.919   3.485 -1.0349  0.2128 -0.9349
 5353TIP3    H237475   2.735   2.978   3.393  0.7146 -0.9923  0.2240
 5354TIP3   OH237476   6.497   2.754  12.167 -0.0817  0.0217 -0.2114
 5354TIP3    H137477   6.545   2.833  12.144 -0.4380 -0.0108 -1.0916
 5354TIP3    H237478   6.517   2.692  12.097 -0.1978 -0.5013  0.2115
 5355TIP3   OH237479   3.656   0.760  14.529  0.4667 -0.1378 -0.4783
 5355TIP3    H137480   3.720   0.704  14.484 -0.3462 -1.1002 -0.4847
 5355TIP3    H237481   3.709   0.818  14.584  1.3152 -2.4385  1.2934
 5356TIP3   OH237482   2.033   2.631  13.316 -0.1166  0.0750  0.2872
 5356TIP3    H137483   2.072   2.557  13.363  0.4228 -0.1718 -0.5141
 5356TIP3    H237484   2.108   2.681  13.284 -0.4223 -0.3763 -1.2289
 5357TIP3   OH237485   1.385   3.190   2.601  0.0381  0.4827 -0.6482
 5357TIP3    H137486   1.473   3.214   2.571  0.4973  1.1009  1.0900
 5357TIP3    H237487   1.332   3.269   2.587 -0.6981 -0.3531 -3.1398
 5358TIP3   OH237488   1.928   0.540   0.471 -0.4463 -0.0220 -0.5505
 5358TIP3    H137489   1.901   0.563   0.560 -0.4320  0.4620 -0.6669
 5358TIP3    H237490   1.959   0.623   0.433  1.7963 -0.6420 -0.2189
 5359TIP3   OH237491   0.025   3.322  15.633  0.5539  0.2913  0.1475
 5359TIP3    H137492   0.039   3.242  15.683 -1.1803 -1.1017 -1.4531
 5359TIP3    H237493   0.068   3.306  15.549  2.2745  2.0618  0.6158
 5360TIP3   OH237494   4.952   4.301  13.835 -0.0581 -0.2249  0.4405
 5360TIP3    H137495   5.040   4.319  13.869 -0.4883  1.2769  0.8653
 5360TIP3    H237496   4.958   4.213  13.799  0.7464 -1.5512  3.4472
 5361TIP3   OH237497   2.154   1.113   3.341 -0.4379  0.0384 -0.5018
 5361TIP3    H137498   2.101   1.177   3.389  0.9074 -0.1331  1.2942
 5361TIP3    H237499   2.216   1.166   3.291 -0.5810  0.1764 -0.5343
 5362TIP3   OH237500   5.244   5.017  11.619 -0.1244 -0.4727  0.5895
 5362TIP3    H137501   5.283   4.930  11.617  2.4761  0.6202 -1.9778
 5362TIP3    H237502   5.300   5.067  11.678 -2.2276 -0.6530  2.9323
 5363TIP3   OH237503   0.542   5.387  13.566 -0.4345 -0.9419 -0.1697
 5363TIP3    H137504   0.530   5.292  13.575 -0.2541 -0.8994  0.5385
 5363TIP3    H237505   0.595   5.397  13.486  0.6983 -1.5218  0.4795
 5364TIP3   OH237506   4.062   0.995   0.059 -0.4833 -0.2359  0.7828
 5364TIP3    H137507   3.999   0.946   0.006 -3.4531  1.7951  2.1662
 5364TIP3    H237508   4.044   0.969   0.149  1.6506 -0.5776  1.1544
 5365TIP3   OH237509   1.344   4.167  15.401  0.2151 -0.2329 -0.0284
 5365TIP3    H137510   1.270   4.167  15.462  0.7813 -0.2557  0.6817
 5365TIP3    H237511   1.421   4.172  15.458  0.7852 -1.0162 -0.7110
 5366TIP3   OH237512   2.984   6.554   4.081  0.1081 -0.2966 -0.0476
 5366TIP3    H137513   2.927   6.611   4.133 -0.1372  0.8101 -1.4604
 5366TIP3    H237514   3.068   6.555   4.128 -0.6261 -0.8481  1.3234
 5367TIP3   OH237515   6.345   4.229  12.439 -0.5292  0.0126  0.3688
 5367TIP3    H137516   6.263   4.214  12.392 -1.6575 -0.5058  2.3803
 5367TIP3    H237517   6.369   4.319  12.418 -0.0783 -0.6597 -2.4132
 5368TIP3   OH237518   4.843   4.630   0.578 -0.2368  0.1563  0.3614
 5368TIP3    H137519   4.785   4.568   0.622 -0.0210 -1.0880 -1.0476
 5368TIP3    H237520   4.892   4.671   0.649 -2.9651  1.4727  1.6497
 5369TIP3   OH237521   1.885   2.968  14.022 -0.3295  0.2309 -0.2953
 5369TIP3    H137522   1.901   2.877  13.998 -1.8179 -0.1678  0.1703
 5369TIP3    H237523   1.911   3.018  13.945  1.1100 -0.5109 -0.3321
 5370TIP3   OH237524   2.318   5.123  13.841  0.2046  0.8409 -0.2270
 5370TIP3    H137525   2.325   5.195  13.903 -0.7477 -1.8067  3.2831
 5370TIP3    H237526   2.230   5.131  13.804 -0.2392  1.0046  0.8356
 5371TIP3   OH237527   4.708   1.487   1.005  0.1181 -0.3733  0.0840
 5371TIP3    H137528   4.651   1.545   0.953 -0.0115 -0.5375  0.0397
 5371TIP3    H237529   4.751   1.545   1.067 -2.3096 -0.6045  2.1334
 5372TIP3   OH237530   2.760   6.296   4.862  0.4397  0.1552 -0.6350
 5372TIP3    H137531   2.783   6.299   4.955 -0.3556  0.2289 -0.4292
 5372TIP3    H237532   2.843   6.284   4.817  0.7040 -1.3566  0.1696
 5373TIP3   OH237533   4.722   5.960  16.231 -0.8486  0.0367 -0.0491
 5373TIP3    H137534   4.783   5.992  16.165  1.5542 -1.2194  1.4355
 5373TIP3    H237535   4.667   5.897  16.184  0.2212 -0.1972 -1.0308
 5374TIP3   OH237536   2.492   0.493   4.637  0.0960 -0.5234 -0.2207
 5374TIP3    H137537   2.419   0.444   4.598  0.2203  1.4377 -3.2768
 5374TIP3    H237538   2.530   0.541   4.563  1.7347  1.9394  2.0510
 5375TIP3   OH237539   4.046   2.074   3.661 -0.5093  0.6642 -0.0148
 5375TIP3    H137540   4.020   2.115   3.578  2.0033 -1.1589 -1.8590
 5375TIP3    H237541   4.026   2.140   3.727 -1.1868  2.8545 -2.2455
 5376TIP3   OH237542   1.717   4.671   3.302  0.6509  0.1590 -0.1474
 5376TIP3    H137543   1.676   4.691   3.218  2.0388 -0.4106 -0.9892
 5376TIP3    H237544   1.667   4.597   3.336 -1.1850  1.6280  0.5129
 5377TIP3   OH237545   3.394   2.857   3.273 -0.4332  0.2355  0.7617
 5377TIP3    H137546   3.414   2.767   3.299  0.1798 -0.1674 -0.9133
 5377TIP3    H237547   3.464   2.910   3.313 -0.3144 -0.1617  1.0767
 5378TIP3   OH237548   4.013   5.355  10.478 -0.0801 -0.4249 -0.0480
 5378TIP3    H137549   4.100   5.314  10.476  1.2120  2.1535 -1.6933
 5378TIP3    H237550   3.981   5.347  10.388 -0.5268  0.7034  0.0023
 5379TIP3   OH237551   1.678   2.426   4.118 -0.2039  0.2248  0.4386
 5379TIP3    H137552   1.701   2.467   4.034  2.4732  0.2357  1.0734
 5379TIP3    H237553   1.608   2.481   4.153 -0.8100  0.7101 -1.3980
 5380TIP3   OH237554   0.152   5.382  15.509 -0.0441  0.0208  0.1012
 5380TIP3    H137555   0.212   5.372  15.583 -3.4073 -0.2741  3.1232
 5380TIP3    H237556   0.166   5.471  15.477  1.0549  0.4250  1.6099
 5381TIP3   OH237557   6.192   3.344  13.389  0.3120  0.0174 -0.3186
 5381TIP3    H137558   6.191   3.258  13.430 -1.0517 -0.2755 -0.8837
 5381TIP3    H237559   6.156   3.403  13.455  0.9579  0.1023 -0.0397
 5382TIP3   OH237560   0.317   1.196   5.041 -0.6542 -0.5823  0.3078
 5382TIP3    H137561   0.399   1.202   4.991 -0.6815 -0.4615  0.2763
 5382TIP3    H237562   0.248   1.204   4.975 -0.6941 -1.1073  0.2834
 5383TIP3   OH237563   4.565   0.526  12.860  0.2771  0.3386 -0.3357
 5383TIP3    H137564   4.561   0.518  12.955  1.0207  0.1544 -0.3148
 5383TIP3    H237565   4.657   0.541  12.841  0.7335 -2.9666 -1.2633
 5384TIP3   OH237566   4.744   0.750   4.632 -0.6650 -0.0161 -0.1640
 5384TIP3    H137567   4.658   0.791   4.624  0.5147  2.4179 -1.4102
 5384TIP3    H237568   4.781   0.753   4.544  0.7225 -0.9574  0.3471
 5385TIP3   OH237569   1.938   4.779  13.910  0.1313 -0.3758  0.6318
 5385TIP3    H137570   1.869   4.788  13.974 -1.6110 -0.5315 -1.1329
 5385TIP3    H237571   1.984   4.863  13.911 -0.4727 -0.0503  1.3856
 5386TIP3   OH237572   3.692   5.422  15.327 -0.2886 -0.6509  0.0450
 5386TIP3    H137573   3.713   5.336  15.291 -1.0839 -1.3387  1.1727
 5386TIP3    H237574   3.656   5.404  15.414 -0.9054  0.7885  0.1157
 5387TIP3   OH237575   4.299   1.789   1.929 -0.4538 -0.0199  0.8151
 5387TIP3    H137576   4.319   1.802   1.836 -0.8413 -0.3209  0.6836
 5387TIP3    H237577   4.297   1.877   1.966 -0.7539  0.1322  0.4400
 5388TIP3   OH237578   0.333   1.939  12.555 -0.0675  0.0757 -0.3982
 5388TIP3    H137579   0.284   1.945  12.473 -0.8545  1.9757  0.1529
 5388TIP3    H237580   0.288   1.871  12.605 -1.2033  0.7106 -0.5273
 5389TIP3   OH237581   0.492   1.032   3.530  0.4622 -0.7196  0.2058
 5389TIP3    H137582   0.419   0.974   3.553  0.9911 -1.4456  0.0963
 5389TIP3    H237583   0.534   0.988   3.456  1.0877 -0.3727  0.3514
 5390TIP3   OH237584   2.341   5.857   2.787  0.2808  0.4435  0.4787
 5390TIP3    H137585   2.276   5.848   2.718 -0.4794 -2.1889  1.4365
 5390TIP3    H237586   2.289   5.862   2.868  1.1539 -2.4848  1.3425
 5391TIP3   OH237587   1.928   3.512   3.718  0.3414  0.0548  0.2545
 5391TIP3    H137588   2.008   3.557   3.744  0.8189 -0.2924 -0.5776
 5391TIP3    H237589   1.951   3.466   3.638 -0.6463 -0.1926  0.0961
 5392TIP3   OH237590   5.716   0.438  16.883 -0.3001  0.1952  0.0151
 5392TIP3    H137591   5.704   0.533  16.886  0.5334  0.3966 -1.7156
 5392TIP3    H237592   5.676   0.412  16.800  1.7523 -0.5549 -0.8154
 5393TIP3   OH237593   6.707   4.291   0.537  0.1795  0.3990 -0.3073
 5393TIP3    H137594   6.620   4.329   0.523  0.2508  0.6122 -0.1627
 5393TIP3    H237595   6.730   4.316   0.626  0.3430  0.2476 -0.3076
 5394TIP3   OH237596   3.804   5.192   3.577 -0.2255 -0.7074 -0.5570
 5394TIP3    H137597   3.758   5.273   3.601 -1.3948 -2.1809  2.8929
 5394TIP3    H237598   3.849   5.166   3.658  1.3042 -2.7843 -1.9649
 5395TIP3   OH237599   6.358   0.371   5.268  0.2430 -1.0502 -0.1163
 5395TIP3    H137600   6.319   0.374   5.181 -0.7982 -0.4585  0.3577
 5395TIP3    H237601   6.443   0.414   5.257  1.6352 -3.9083 -1.5457
 5396TIP3   OH237602   3.561   3.775  15.944  0.4122 -0.2256  0.6457
 5396TIP3    H137603   3.500   3.702  15.930  0.2205  0.2880 -1.6199
 5396TIP3    H237604   3.627   3.739  16.003 -0.0217 -2.0417  0.1067
 5397TIP3   OH237605   5.968   5.375  13.357  0.0295  0.2738 -0.7246
 5397TIP3    H137606   5.873   5.385  13.364  0.3135  3.7917  0.0903
 5397TIP3    H237607   5.999   5.384  13.447  1.2076 -0.0717 -1.0846
 5398TIP3   OH237608   4.900   0.908  15.066  0.3083 -0.4104 -0.0745
 5398TIP3    H137609   4.911   0.818  15.096  2.7693  0.1715  0.9810
 5398TIP3    H237610   4.923   0.906  14.973 -0.7800 -1.0204 -0.3546
 5399TIP3   OH237611   6.722   1.430   4.893  0.5577 -0.0617  0.2059
 5399TIP3    H137612   6.677   1.511   4.870  0.4341 -0.0947  0.3356
 5399TIP3    H237613   6.815   1.450   4.878  0.6465  0.4877  1.3784
 5400TIP3   OH237614   4.292   5.142  15.137  0.1030 -0.1610 -0.3125
 5400TIP3    H137615   4.302   5.231  15.103  0.2498 -0.2945 -0.6267
 5400TIP3    H237616   4.366   5.131  15.196  0.8158 -0.5118 -1.2457
 5401TIP3   OH237617   1.813   0.214   1.335  0.1793 -0.0549 -0.2908
 5401TIP3    H137618   1.801   0.119   1.339 -0.8578  0.0978  0.6781
 5401TIP3    H237619   1.802   0.243   1.425 -0.9183  1.1478 -0.7937
 5402TIP3   OH237620   3.302   4.979   1.652 -0.1076 -0.2008  0.0047
 5402TIP3    H137621   3.282   4.896   1.608  0.9107 -0.0969 -0.6915
 5402TIP3    H237622   3.325   4.954   1.741 -2.5157 -0.3865  0.6325
 5403TIP3   OH237623   0.049   4.855   0.072  0.1304  0.4322  0.6092
 5403TIP3    H137624   0.034   4.789   0.005  0.2886  0.6361  0.3709
 5403TIP3    H237625  -0.038   4.890   0.092  0.1723  0.9859 -0.1264
 5404TIP3   OH237626   3.298   1.068  11.010  0.7199  0.2397 -0.2481
 5404TIP3    H137627   3.278   1.069  11.104 -3.8585  0.0484 -0.9831
 5404TIP3    H237628   3.291   1.160  10.984  0.5887  0.1285 -0.6091
 5405TIP3   OH237629   4.684   2.461   0.021  0.0625  0.2258  0.3216
 5405TIP3    H137630   4.602   2.507   0.000  0.1423  0.5715  0.7710
 5405TIP3    H237631   4.738   2.473  -0.057 -0.6116 -0.6917 -0.3061
 5406TIP3   OH237632   6.429   3.426   5.428 -0.0936  0.3453  0.7507
 5406TIP3    H137633   6.408   3.519   5.417 -0.0068  0.2990  0.1688
 5406TIP3    H237634   6.422   3.411   5.522 -0.5873  0.8286  0.7954
 5407TIP3   OH237635   4.831   1.059  11.781  0.6992 -0.7237 -0.9631
 5407TIP3    H137636   4.752   1.102  11.748  0.6123 -0.2583 -0.1796
 5407TIP3    H237637   4.898   1.080  11.717  0.8798  1.3984 -0.1704
 5408TIP3   OH237638   5.416   5.834  13.621 -0.2386  0.0069  0.1268
 5408TIP3    H137639   5.497   5.785  13.609  0.6998  1.3881  0.5611
 5408TIP3    H237640   5.387   5.810  13.709  0.3100  0.3517  0.4094
 5409TIP3   OH237641   2.661   3.100   4.561  0.2427 -0.2520  0.0593
 5409TIP3    H137642   2.691   3.108   4.652 -0.0325 -1.5205  0.2771
 5409TIP3    H237643   2.568   3.080   4.568 -0.1294  1.1062 -0.5611
 5410TIP3   OH237644   0.049   2.464  16.940 -0.5200  0.0466  0.0642
 5410TIP3    H137645   0.079   2.457  17.031 -2.4901 -0.4891  0.7316
 5410TIP3    H237646  -0.033   2.514  16.946 -1.0142 -0.5535 -1.3322
 5411TIP3   OH237647   2.466   1.020   2.567  0.5977 -0.1730 -0.1269
 5411TIP3    H137648   2.477   1.028   2.473 -1.5430  0.5033 -0.3857
 5411TIP3    H237649   2.548   1.050   2.604  0.0955  3.6826 -1.6858
 5412TIP3   OH237650   4.295   2.187  14.735 -0.0196 -0.2585  0.0763
 5412TIP3    H137651   4.245   2.142  14.803 -0.6430 -1.0848 -0.8835
 5412TIP3    H237652   4.372   2.131  14.721  0.5024  0.3069  0.6115
 5413TIP3   OH237653   2.987   1.873   3.680 -0.1099 -0.7186  1.1615
 5413TIP3    H137654   3.082   1.886   3.672 -0.5901  2.5161 -1.5243
 5413TIP3    H237655   2.970   1.790   3.635  1.3985 -1.3019  1.5867
 5414TIP3   OH237656   3.374   1.484   6.791  0.0487  0.1365 -0.0736
 5414TIP3    H137657   3.437   1.553   6.815  0.2506  0.3424 -1.1442
 5414TIP3    H237658   3.311   1.529   6.734 -0.7343 -0.2116  0.4977
 5415TIP3   OH237659   3.811   1.943   4.413  0.4147 -0.0147  0.2820
 5415TIP3    H137660   3.815   1.852   4.441 -1.5712 -0.1302  0.2716
 5415TIP3    H237661   3.893   1.981   4.445  1.2350 -1.7563  0.3708
 5416TIP3   OH237662   1.792   5.047  13.812  0.4254  0.2997 -0.3172
 5416TIP3    H137663   1.883   5.062  13.787  0.7651  0.8562  1.1715
 5416TIP3    H237664   1.785   5.081  13.901 -1.3849  0.7809 -0.5901
 5417TIP3   OH237665   2.397   0.271   2.106  0.1047 -0.4290  0.6367
 5417TIP3    H137666   2.464   0.248   2.170  0.4995  0.3562  0.5164
 5417TIP3    H237667   2.319   0.225   2.136  0.6048 -1.0688  0.9788
 5418TIP3   OH237668   0.729   0.138   5.819  0.5764  0.2946  0.1921
 5418TIP3    H137669   0.687   0.058   5.850  1.1531  0.5956  1.8407
 5418TIP3    H237670   0.802   0.152   5.879  0.4040  2.1389  0.0314
 5419TIP3   OH237671   5.730   3.550   1.962 -0.0539 -0.0686  0.1134
 5419TIP3    H137672   5.682   3.516   1.886 -0.3125 -0.3047  0.3789
 5419TIP3    H237673   5.796   3.482   1.981  0.0024 -0.0156  0.1076
 5420TIP3   OH237674   0.774   3.991   3.150 -0.4127  0.3670 -0.3343
 5420TIP3    H137675   0.785   4.022   3.240 -1.7734  0.4290 -0.1645
 5420TIP3    H237676   0.736   3.904   3.159  2.2747 -0.9554 -0.8385
 5421TIP3   OH237677   4.053   5.521   2.407 -0.0431  0.2425 -0.1194
 5421TIP3    H137678   4.065   5.614   2.427 -0.1630 -0.0330  1.3478
 5421TIP3    H237679   4.082   5.475   2.486  2.8069 -1.1611 -1.8056
 5422TIP3   OH237680   3.997   0.735  15.875 -0.3477  0.1954  0.1891
 5422TIP3    H137681   4.054   0.681  15.930 -0.0524  0.0291 -0.2793
 5422TIP3    H237682   3.994   0.690  15.791  2.6592  2.5747 -1.3990
 5423TIP3   OH237683   6.472   1.549  16.864 -0.8033 -0.3333  0.4829
 5423TIP3    H137684   6.533   1.572  16.934 -0.8541 -1.4055  0.8981
 5423TIP3    H237685   6.389   1.535  16.908 -1.3820  1.1319 -0.0799
 5424TIP3   OH237686   2.716   1.143  14.161 -0.1158  0.0810 -0.1729
 5424TIP3    H137687   2.623   1.165  14.172  0.1738  1.7053 -0.6636
 5424TIP3    H237688   2.759   1.228  14.152  1.2061 -0.6965 -1.5793
 5425TIP3   OH237689   2.441   3.307  15.956  0.1275 -0.4742  0.1745
 5425TIP3    H137690   2.523   3.358  15.956 -0.3570  0.3271  0.2639
 5425TIP3    H237691   2.423   3.290  15.864 -0.1935  0.3459  0.0736
 5426TIP3   OH237692   2.815   5.466   4.373 -0.3567  0.7735  0.1174
 5426TIP3    H137693   2.722   5.444   4.379  0.3253 -2.1773  1.7197
 5426TIP3    H237694   2.837   5.452   4.281 -0.7585 -2.4973  0.3923
 5427TIP3   OH237695   2.064   6.438   5.581  0.2331  1.2307 -0.5610
 5427TIP3    H137696   2.076   6.347   5.556  1.5892  1.9501 -2.8246
 5427TIP3    H237697   2.110   6.446   5.665  1.2415  0.1018 -0.9725
 5428TIP3   OH237698   6.205   2.022  17.039  0.1095  0.1024 -0.2548
 5428TIP3    H137699   6.225   1.946  16.983 -0.7092  0.4360 -1.0358
 5428TIP3    H237700   6.238   1.998  17.125  0.6483 -0.7835 -0.6946
 5429TIP3   OH237701   6.189   0.106   4.904  0.0005 -0.0511 -0.3786
 5429TIP3    H137702   6.163   0.114   4.996 -0.0430  1.8278 -0.5136
 5429TIP3    H237703   6.284   0.123   4.905  0.2277 -1.2166 -0.5651
 5430TIP3   OH237704   2.554   1.172  15.090  0.6793  0.0466  0.5733
 5430TIP3    H137705   2.612   1.180  15.014 -0.1954  0.9689 -0.0214
 5430TIP3    H237706   2.557   1.259  15.130  0.1977 -0.0862  0.8970
 5431TIP3   OH237707   4.559   1.708   4.464 -0.6728  0.0647  0.1383
 5431TIP3    H137708   4.541   1.615   4.450 -0.4799  0.1287 -0.5649
 5431TIP3    H237709   4.566   1.745   4.376  1.7957  0.2435  0.3368
 5432TIP3   OH237710   0.838   1.225   1.545  0.0083 -0.0639 -0.0230
 5432TIP3    H137711   0.911   1.252   1.601  1.2492 -0.5306 -1.3401
 5432TIP3    H237712   0.804   1.307   1.510  1.3395  0.0686 -1.0894
 5433TIP3   OH237713   2.826   2.399   4.449  0.4150  0.7016 -0.8083
 5433TIP3    H137714   2.761   2.442   4.394  0.3921 -1.1076 -2.3170
 5433TIP3    H237715   2.792   2.310   4.460  0.8729  0.7488  1.4484
 5434TIP3   OH237716   3.447   1.261   2.225  0.2286  0.2073  0.4923
 5434TIP3    H137717   3.396   1.189   2.189 -0.7560  0.7587  0.7519
 5434TIP3    H237718   3.536   1.246   2.192 -0.1715 -0.5554 -0.2807
 5435TIP3   OH237719   4.509   5.567  15.001  0.2456 -0.2345  0.2423
 5435TIP3    H137720   4.518   5.620  15.081 -3.2382  1.5072 -0.3254
 5435TIP3    H237721   4.477   5.482  15.032 -0.7128  0.3030  0.7734
 5436TIP3   OH237722   5.489   1.285   5.457  0.3679  0.7635  0.4329
 5436TIP3    H137723   5.551   1.250   5.393 -1.7130 -0.8249 -0.8626
 5436TIP3    H237724   5.543   1.308   5.533  2.4924 -0.7774 -0.5009
 5437TIP3   OH237725   2.899   2.759   0.882  0.0801 -0.3400  0.3593
 5437TIP3    H137726   2.815   2.722   0.909 -0.5926  0.8745 -0.0056
 5437TIP3    H237727   2.888   2.780   0.789 -0.1637  2.2535  0.9018
 5438TIP3   OH237728   4.335   4.541  13.738  0.1429 -0.2342  0.4893
 5438TIP3    H137729   4.258   4.594  13.759 -0.6749 -1.0478 -0.3680
 5438TIP3    H237730   4.370   4.514  13.823 -1.3035 -0.9390  0.8894
 5439TIP3   OH237731   5.494   4.524   4.398  0.0430 -0.2002  1.0260
 5439TIP3    H137732   5.464   4.610   4.367 -0.5204 -0.5328  0.6203
 5439TIP3    H237733   5.529   4.541   4.486  1.1157  0.6619  0.4580
 5440TIP3   OH237734   4.046   4.292   5.833 -0.6038 -0.2433  0.4545
 5440TIP3    H137735   4.014   4.375   5.867  2.0315  0.0186  2.7387
 5440TIP3    H237736   4.069   4.310   5.742 -1.0230  1.2351  0.6101
 5441TIP3   OH237737   5.874   3.732   5.565 -0.1708  0.3685 -0.2098
 5441TIP3    H137738   5.842   3.663   5.623  1.5656 -0.5006 -0.2251
 5441TIP3    H237739   5.797   3.760   5.515 -1.7188  1.0453  2.3479
 5442TIP3   OH237740   6.132   3.661   0.999 -0.0943 -0.1356 -0.1923
 5442TIP3    H137741   6.115   3.573   1.033  1.7409 -0.4174  0.1063
 5442TIP3    H237742   6.226   3.673   1.012 -0.2000  1.6057 -0.8813
 5443TIP3   OH237743   4.924   3.053  13.425  0.4273 -0.1336  0.3125
 5443TIP3    H137744   5.013   3.065  13.460  0.6319 -1.0893  0.1405
 5443TIP3    H237745   4.917   3.117  13.354  1.1337 -0.3376  0.0524
 5444TIP3   OH237746   0.667   1.921  13.271  0.2113 -0.0595  0.3115
 5444TIP3    H137747   0.580   1.893  13.245  0.5135 -0.3535 -0.4319
 5444TIP3    H237748   0.695   1.981  13.201  0.8540 -0.4769  0.1981
 5445TIP3   OH237749   5.463   4.888   4.559  0.2427 -0.4075  0.1340
 5445TIP3    H137750   5.409   4.966   4.565  1.4034  0.3692  0.9123
 5445TIP3    H237751   5.421   4.825   4.618 -1.0048 -0.5971 -0.9087
 5446TIP3   OH237752   1.033   3.147  16.556  0.1722 -0.2718 -0.6721
 5446TIP3    H137753   1.093   3.205  16.510 -0.8291 -1.1012 -3.1979
 5446TIP3    H237754   1.031   3.068  16.503 -0.0992 -1.8271  1.5487
 5447TIP3   OH237755   0.903   0.416   1.061  0.0832  0.1056  0.4587
 5447TIP3    H137756   0.951   0.342   1.026  1.0478  0.8845  0.0754
 5447TIP3    H237757   0.949   0.440   1.141 -0.2206  0.3016  0.5796
 5448TIP3   OH237758   5.030   3.180   4.458 -0.8804  0.0355  0.7306
 5448TIP3    H137759   4.983   3.220   4.532  0.6329 -0.3450  1.9493
 5448TIP3    H237760   5.081   3.251   4.421 -0.6677 -0.0597  0.8432
 5449TIP3   OH237761   3.663   5.145  13.649 -0.1366 -0.3782 -0.1903
 5449TIP3    H137762   3.689   5.064  13.692  2.8721  0.9958  0.8116
 5449TIP3    H237763   3.613   5.193  13.716  2.2161  0.5791  0.9925
 5450TIP3   OH237764   1.107   1.973  16.659  0.0996  0.1471  0.7387
 5450TIP3    H137765   1.021   1.942  16.628 -0.1898 -2.4076  3.5585
 5450TIP3    H237766   1.086   2.029  16.734  0.8651 -0.2490  1.2609
 5451TIP3   OH237767   0.365   4.994   1.286  0.0267 -0.3795  0.0850
 5451TIP3    H137768   0.316   4.957   1.359  0.2274  0.4317  0.6329
 5451TIP3    H237769   0.434   4.929   1.269 -1.4661 -1.7685 -1.0035
 5452TIP3   OH237770   1.818   3.027  13.304  0.2088 -0.0948 -0.1742
 5452TIP3    H137771   1.832   2.986  13.219  1.0746  0.2962 -0.2304
 5452TIP3    H237772   1.827   3.121  13.288 -0.6939  0.0635  0.1571
 5453TIP3   OH237773   3.407   3.745  12.104 -0.4615 -0.2671  0.5887
 5453TIP3    H137774   3.340   3.679  12.118 -0.6806 -0.3934 -0.8465
 5453TIP3    H237775   3.480   3.697  12.065 -0.1095  0.1188  0.7613
 5454TIP3   OH237776   1.641   6.162   1.497  0.4441 -0.5280 -0.0021
 5454TIP3    H137777   1.602   6.075   1.499  0.1769 -0.3968  0.8639
 5454TIP3    H237778   1.573   6.218   1.459  0.4724 -0.6235 -0.1952
 5455TIP3   OH237779   5.758   0.320  12.600 -0.3493 -0.4386 -0.3938
 5455TIP3    H137780   5.679   0.365  12.630 -0.0701  0.5737 -1.1085
 5455TIP3    H237781   5.729   0.268  12.526 -1.1386 -3.3248  1.7852
 5456TIP3   OH237782   3.300   2.721   6.252 -0.1248  0.3201 -0.8721
 5456TIP3    H137783   3.337   2.636   6.273 -0.7392 -0.0064 -1.0917
 5456TIP3    H237784   3.299   2.768   6.335  0.1456  0.0907 -0.7375
 5457TIP3   OH237785   5.344   3.967  16.673  0.3007 -0.0437  0.5001
 5457TIP3    H137786   5.355   3.940  16.764  1.3904 -1.4232 -0.0124
 5457TIP3    H237787   5.310   4.057  16.679 -1.5634 -0.7798  2.2617
 5458TIP3   OH237788   4.595   5.995  14.053  0.5074  0.2851  0.0724
 5458TIP3    H137789   4.576   5.901  14.060 -2.1333  0.7740  0.6121
 5458TIP3    H237790   4.514   6.038  14.082  0.6616  2.7242 -2.6522
 5459TIP3   OH237791   0.685   3.007   1.321  0.0998  0.5950  0.1421
 5459TIP3    H137792   0.739   3.066   1.375  0.5099  1.2443 -0.9376
 5459TIP3    H237793   0.703   2.920   1.356  2.0049  0.7619 -0.2726
 5460TIP3   OH237794   5.094   1.998   0.153  0.0877 -0.4990 -0.5752
 5460TIP3    H137795   5.019   2.055   0.136  1.0501  1.5822  1.6329
 5460TIP3    H237796   5.154   2.015   0.080 -1.0799 -1.3875 -1.7899
 5461TIP3   OH237797   0.625   2.592  11.713  0.0203  0.4114  0.2374
 5461TIP3    H137798   0.605   2.520  11.773 -0.7994 -0.3088 -0.8713
 5461TIP3    H237799   0.644   2.666  11.771 -0.1531 -0.4122  1.3920
 5462TIP3   OH237800   0.804   0.676   1.892 -0.3174  0.1420  0.0294
 5462TIP3    H137801   0.890   0.641   1.870 -0.1732  0.4315  0.1376
 5462TIP3    H237802   0.781   0.731   1.817  0.0067  0.8247  0.4323
 5463TIP3   OH237803   1.552   3.966  11.774  0.2372 -0.1289  0.2635
 5463TIP3    H137804   1.518   3.934  11.691  0.0721 -0.8486  0.6052
 5463TIP3    H237805   1.477   4.007  11.817  0.3339  0.2861  0.0396
 5464TIP3   OH237806   2.270   5.585   2.457 -0.0910  0.6017  0.3115
 5464TIP3    H137807   2.230   5.614   2.539 -0.4606 -0.5243  0.5394
 5464TIP3    H237808   2.315   5.663   2.424 -0.6501  1.3006  1.1486
 5465TIP3   OH237809   6.488   1.566  16.541  0.4600 -0.0860  0.6067
 5465TIP3    H137810   6.467   1.624  16.468  2.9482  0.3938  0.1988
 5465TIP3    H237811   6.492   1.623  16.617 -1.8920 -0.5501  1.1547
 5466TIP3   OH237812   3.321   1.073   3.130 -0.8465  0.2319 -0.5122
 5466TIP3    H137813   3.255   1.061   3.198  0.1810  1.4855  0.7676
 5466TIP3    H237814   3.380   0.998   3.140 -0.1184  0.9298  0.7176
 5467TIP3   OH237815   5.249   6.371   4.992  0.6377 -0.4204  0.2436
 5467TIP3    H137816   5.290   6.430   4.930 -0.0143 -0.5156 -0.2907
 5467TIP3    H237817   5.162   6.355   4.956  0.4081 -0.8271  0.9537
 5468TIP3   OH237818   4.608   5.971   5.262 -0.0599  0.3819 -0.6527
 5468TIP3    H137819   4.654   5.974   5.346 -2.7175  1.2196  0.8725
 5468TIP3    H237820   4.639   5.890   5.221  1.3410 -0.0260  1.0965
 5469TIP3   OH237821   4.759   1.829  17.122 -0.5266  0.1851  0.0984
 5469TIP3    H137822   4.763   1.918  17.156  2.3196  0.3923 -0.5200
 5469TIP3    H237823   4.727   1.776  17.195 -0.0667  1.4181  1.2214
 5470TIP3   OH237824   1.569   0.541   5.426 -0.6769 -0.2699  0.1260
 5470TIP3    H137825   1.551   0.457   5.467  1.0254 -1.1315 -0.8159
 5470TIP3    H237826   1.651   0.571   5.465  0.4776 -0.6516 -1.8386
 5471TIP3   OH237827   1.581   3.391  12.661 -0.4722 -0.5889 -0.1781
 5471TIP3    H137828   1.671   3.410  12.634 -0.2708 -0.9025  0.2505
 5471TIP3    H237829   1.591   3.334  12.737 -1.0460 -1.2610 -0.5990
 5472TIP3   OH237830   1.736   6.632  12.270  0.3081 -0.1676  1.1637
 5472TIP3    H137831   1.697   6.677  12.345  0.2581  0.6167  0.6855
 5472TIP3    H237832   1.817   6.681  12.252 -0.6476  0.9357 -0.4925
 5473TIP3   OH237833   6.583   2.821   4.566  0.0733 -0.1015 -0.1302
 5473TIP3    H137834   6.519   2.890   4.582  2.4172  2.3301 -0.6585
 5473TIP3    H237835   6.600   2.784   4.653 -0.4021  0.7281  0.3249
 5474TIP3   OH237836   6.576   6.564   3.590  0.5071  0.4829  0.2788
 5474TIP3    H137837   6.544   6.485   3.633 -0.4537  0.8654  0.3039
 5474TIP3    H237838   6.642   6.533   3.529 -0.1131 -0.3895  0.0233
 5475TIP3   OH237839   4.999   3.919   2.974 -0.4864  0.1026 -0.0574
 5475TIP3    H137840   5.009   4.001   3.023 -0.2494 -0.8488  1.5899
 5475TIP3    H237841   4.905   3.909   2.963 -0.5627  0.2290  0.4312
 5476TIP3   OH237842   1.320   4.388  13.378  0.1269  0.1158 -0.3645
 5476TIP3    H137843   1.316   4.378  13.283 -0.2214  0.4679 -0.3877
 5476TIP3    H237844   1.340   4.480  13.392  1.4775 -0.1998 -0.1117
 5477TIP3   OH237845   4.684   0.087  14.425  0.6105  0.0505 -0.6811
 5477TIP3    H137846   4.637   0.143  14.363  1.9257  0.4990 -1.2995
 5477TIP3    H237847   4.728   0.147  14.485  0.7978 -0.3537 -0.4076
 5478TIP3   OH237848   2.865   5.265  16.073 -0.0706  0.0868 -0.0130
 5478TIP3    H137849   2.909   5.317  16.006 -0.6281  1.4296  0.6182
 5478TIP3    H237850   2.815   5.330  16.124  1.1426 -0.7470  2.3443
 5479TIP3   OH237851   2.849   0.937  12.171 -0.0119  0.4086 -0.6125
 5479TIP3    H137852   2.934   0.914  12.133 -0.8829 -0.7052 -2.0070
 5479TIP3    H237853   2.817   1.008  12.116  0.2943  1.3489  0.3714
 5480TIP3   OH237854   1.512   4.015   1.634  0.1569  0.0475  0.0335
 5480TIP3    H137855   1.510   3.919   1.643 -1.4366 -0.0196 -0.7708
 5480TIP3    H237856   1.427   4.044   1.666  0.3590  1.1391 -0.3729
 5481TIP3   OH237857   3.650   1.852  13.693 -0.2545  0.0333  0.0758
 5481TIP3    H137858   3.563   1.829  13.662  0.5959  0.2192 -2.7705
 5481TIP3    H237859   3.648   1.947  13.705 -0.0617  0.2952 -1.6451
 5482TIP3   OH237860   6.354   1.154   3.128 -0.0507 -0.5471 -0.0765
 5482TIP3    H137861   6.374   1.094   3.056 -1.1465 -0.3318 -0.5862
 5482TIP3    H237862   6.396   1.236   3.103  0.4341 -0.7515  0.0417
 5483TIP3   OH237863   4.682   2.369   0.544  0.1067 -0.0316  0.4151
 5483TIP3    H137864   4.770   2.360   0.580  0.5441 -0.4350 -0.7193
 5483TIP3    H237865   4.639   2.432   0.601  1.5621  1.2140  0.1919
 5484TIP3   OH237866   4.616   2.968   5.704  0.3029  0.0605 -0.3811
 5484TIP3    H137867   4.710   2.985   5.715  0.3094  0.4174 -0.9380
 5484TIP3    H237868   4.573   3.044   5.744  0.2559 -0.0252 -0.2686
 5485TIP3   OH237869   2.732   3.501  11.760 -0.0805  0.8825 -0.6272
 5485TIP3    H137870   2.810   3.543  11.795  0.2824  0.8744 -1.4134
 5485TIP3    H237871   2.759   3.411  11.743 -0.0034  1.1029 -1.7213
 5486TIP3   OH237872   1.876   3.666   3.074 -0.3151 -0.0794 -0.1994
 5486TIP3    H137873   1.863   3.577   3.107 -1.6864  1.4228  3.9391
 5486TIP3    H237874   1.799   3.682   3.019 -0.9649 -0.9053  0.4298
 5487TIP3   OH237875   4.359   2.873  12.720 -0.1840  0.4373 -0.2642
 5487TIP3    H137876   4.328   2.783  12.709  2.0032 -0.4720  0.2819
 5487TIP3    H237877   4.311   2.924  12.656 -2.3238 -0.8883  0.1867
 5488TIP3   OH237878   2.534   1.642   4.876 -0.4318 -0.5860  0.1679
 5488TIP3    H137879   2.505   1.722   4.920  0.8628  0.0707 -0.1354
 5488TIP3    H237880   2.521   1.573   4.942 -0.9345 -0.0353  0.6670
 5489TIP3   OH237881   1.609   1.231   1.474  0.2406  0.2723  0.2942
 5489TIP3    H137882   1.588   1.231   1.568  0.4267  0.3092  0.3367
 5489TIP3    H237883   1.657   1.313   1.461 -1.2762  1.1198 -0.1693
 5490TIP3   OH237884   6.142   4.386   3.692 -0.0315  0.4664  0.1867
 5490TIP3    H137885   6.162   4.295   3.670 -0.4790  0.1784  0.9489
 5490TIP3    H237886   6.214   4.436   3.652 -0.9168  0.0119 -2.1529
 5491TIP3   OH237887   2.161   2.771   4.528 -0.0823 -0.0328 -0.8535
 5491TIP3    H137888   2.156   2.823   4.448 -1.0522  2.3542  0.6580
 5491TIP3    H237889   2.227   2.814   4.582 -1.4464  0.1527  0.7649
 5492TIP3   OH237890   0.561   3.910  15.760  0.7617  0.6328 -0.4757
 5492TIP3    H137891   0.470   3.937  15.755 -0.0971 -1.5266  1.4839
 5492TIP3    H237892   0.611   3.985  15.728 -1.6583  2.0464 -1.1468
 5493TIP3   OH237893   2.814   4.440   5.292 -0.3787  0.8991  0.2192
 5493TIP3    H137894   2.766   4.372   5.338 -1.4309  1.1230 -0.4993
 5493TIP3    H237895   2.898   4.400   5.269 -0.4624  0.2955  0.9632
 5494TIP3   OH237896   0.107   4.666   1.781  0.4558 -0.1300 -0.2557
 5494TIP3    H137897   0.050   4.665   1.858  0.4153  1.3637 -0.2309
 5494TIP3    H237898   0.157   4.747   1.789  1.9635 -0.9599 -0.7452
 5495TIP3   OH237899   1.851   3.819  11.961  0.0344 -0.4173  0.5255
 5495TIP3    H137900   1.821   3.836  11.872  0.6568  2.5062  0.7808
 5495TIP3    H237901   1.947   3.824  11.955  0.1932 -2.2741  1.0301
 5496TIP3   OH237902   4.363   4.616   6.006 -0.1017  0.1117 -0.3809
 5496TIP3    H137903   4.431   4.674   5.971  2.6244 -2.0382  0.9761
 5496TIP3    H237904   4.309   4.594   5.930  1.3663  1.0704 -1.7683
 5497TIP3   OH237905   0.523   1.577  13.833 -0.0056  0.1698 -0.1165
 5497TIP3    H137906   0.533   1.483  13.843 -0.2909  0.0689 -0.7246
 5497TIP3    H237907   0.589   1.615  13.890 -0.9309 -0.3749  1.3635
 5498TIP3   OH237908   0.934   4.980  13.035  0.1633 -0.0139 -0.6420
 5498TIP3    H137909   0.902   4.892  13.020  0.9451 -0.3442 -0.4284
 5498TIP3    H237910   0.993   4.972  13.111 -0.4970  0.8580 -0.0024
 5499TIP3   OH237911   1.520   1.310   0.431  0.2321 -0.3089 -0.1695
 5499TIP3    H137912   1.524   1.215   0.424 -0.9630 -0.2915 -1.4506
 5499TIP3    H237913   1.497   1.341   0.344  0.0232  1.1231  0.3522
 5500TIP3   OH237914   3.289   3.425   4.793  0.2477  0.3849  0.2734
 5500TIP3    H137915   3.200   3.409   4.825  1.2588 -1.6477  2.3355
 5500TIP3    H237916   3.286   3.515   4.760 -2.4645  0.4914  0.5446
 5501TIP3   OH237917   0.204   3.400   5.119 -0.0897 -0.1481  0.6289
 5501TIP3    H137918   0.277   3.406   5.181  2.1984  2.9401 -2.0278
 5501TIP3    H237919   0.128   3.430   5.169  1.0401 -0.4860  2.6668
 5502TIP3   OH237920   1.649   6.273  12.186  0.2774 -0.4595 -0.2673
 5502TIP3    H137921   1.710   6.199  12.180 -0.0747 -0.8589  0.8803
 5502TIP3    H237922   1.677   6.320  12.264 -1.0186 -0.7880  0.4228
 5503TIP3   OH237923   2.639   1.899  11.814 -0.1507 -0.1984  0.4625
 5503TIP3    H137924   2.590   1.962  11.761 -0.2539 -0.4395  0.2703
 5503TIP3    H237925   2.713   1.949  11.848  0.2536 -0.1949 -0.3955
 5504TIP3   OH237926   5.692   5.070  16.528 -0.3165 -0.2064 -0.6753
 5504TIP3    H137927   5.747   5.030  16.461 -0.1440 -0.7471 -0.2206
 5504TIP3    H237928   5.695   5.164  16.509  1.6056 -0.1034 -0.0412
 5505TIP3   OH237929   5.428   0.159   0.719  0.0785 -0.1493  0.1774
 5505TIP3    H137930   5.343   0.177   0.678 -0.0991 -0.2801  0.4834
 5505TIP3    H237931   5.485   0.229   0.687 -0.5639  0.9013  1.2405
 5506TIP3   OH237932   0.489   4.067   2.893 -0.1045 -0.0929  0.7885
 5506TIP3    H137933   0.546   4.019   2.832 -0.3655  1.7955 -1.0595
 5506TIP3    H237934   0.455   3.999   2.952  3.0770 -1.4568  1.2533
 5507TIP3   OH237935   0.821   1.517  13.510 -0.4853  0.6109 -0.7863
 5507TIP3    H137936   0.838   1.589  13.570  0.0154 -0.0475 -0.1240
 5507TIP3    H237937   0.735   1.484  13.535 -0.2372  0.2793 -0.3719
 5508TIP3   OH237938   0.263   2.204   3.003  0.0162 -0.6062 -0.3420
 5508TIP3    H137939   0.352   2.237   3.012 -0.1297 -0.2385 -0.2062
 5508TIP3    H237940   0.268   2.140   2.931  0.1152  0.4770 -1.3385
 5509TIP3   OH237941   6.430   2.529   0.666 -0.0651 -0.7418  0.6713
 5509TIP3    H137942   6.507   2.513   0.721 -0.9155 -1.3681  1.7294
 5509TIP3    H237943   6.418   2.447   0.618  1.3057  0.1453 -1.3532
 5510TIP3   OH237944   5.585   3.169  13.425  0.1199  0.7381  0.8068
 5510TIP3    H137945   5.511   3.179  13.484 -0.8191  0.5179 -0.2934
 5510TIP3    H237946   5.639   3.102  13.465 -2.0615 -1.6886 -0.0454
 5511TIP3   OH237947   6.061   6.086   2.177 -0.3512 -0.2190 -0.1076
 5511TIP3    H137948   6.041   6.149   2.108  0.8421 -0.9180 -1.1322
 5511TIP3    H237949   6.081   6.141   2.253  0.8506  0.6824 -1.0279
 5512TIP3   OH237950   5.766   4.117   5.146  0.0453  0.2752  0.4160
 5512TIP3    H137951   5.741   4.072   5.065 -0.9401  1.1983  0.1866
 5512TIP3    H237952   5.698   4.093   5.209  0.0704  0.6223  0.5792
 5513TIP3   OH237953   1.067   5.648   1.384  0.2140  0.6036 -0.3480
 5513TIP3    H137954   0.975   5.670   1.373  0.5105  1.6614 -0.8893
 5513TIP3    H237955   1.096   5.700   1.459  0.6325  1.1715 -0.8888
 5514TIP3   OH237956   6.355   3.970  11.191 -0.0716  0.6176 -0.2219
 5514TIP3    H137957   6.323   3.965  11.281 -0.8551 -2.6743 -0.5366
 5514TIP3    H237958   6.358   3.879  11.162 -2.5508  1.6102 -4.4365
 5515TIP3   OH237959   6.535   3.756   2.079 -0.0823  0.1630 -0.2533
 5515TIP3    H137960   6.609   3.767   2.019  2.2130  1.5895  2.5411
 5515TIP3    H237961   6.513   3.846   2.105 -1.2094 -0.3908  0.7534
 5516TIP3   OH237962   2.324   2.901   6.344 -0.3639 -0.0946 -0.5006
 5516TIP3    H137963   2.343   2.981   6.295  1.8439  0.4133  1.0345
 5516TIP3    H237964   2.235   2.913   6.375 -1.6151 -0.1335 -3.6730
 5517TIP3   OH237965   4.527   1.069  15.464 -0.2399 -0.1021  0.3051
 5517TIP3    H137966   4.454   1.007  15.469 -1.1677  0.7568 -1.5019
 5517TIP3    H237967   4.488   1.153  15.489  0.6339  0.0463  1.2338
 5518TIP3   OH237968   1.246   5.669   0.236 -0.1772 -0.4578  0.1291
 5518TIP3    H137969   1.338   5.695   0.236 -0.3188  0.0699  0.8228
 5518TIP3    H237970   1.214   5.693   0.323 -1.5084  1.3134 -0.7919
 5519TIP3   OH237971   6.700   0.979   2.071 -0.1484  0.0059 -0.0615
 5519TIP3    H137972   6.612   0.943   2.084 -0.0671 -0.0916  0.2268
 5519TIP3    H237973   6.745   0.961   2.153  1.4828 -3.7413 -1.5295
 5520TIP3   OH237974   2.758   5.512  15.501 -0.4255 -0.6476  0.0716
 5520TIP3    H137975   2.680   5.468  15.466 -0.8905  1.7031 -2.1025
 5520TIP3    H237976   2.827   5.445  15.497 -1.7196 -2.0107 -0.3917
 5521TIP3   OH237977   2.247   2.031   5.619  0.0282  0.6149  0.4979
 5521TIP3    H137978   2.336   1.998   5.608  0.0084  0.0463  1.8980
 5521TIP3    H237979   2.250   2.120   5.584  0.8244  0.1800 -0.6009
 5522TIP3   OH237980   2.440   4.536  11.608 -0.4674 -0.2680 -0.8445
 5522TIP3    H137981   2.398   4.452  11.631 -1.1437  0.3152  0.1493
 5522TIP3    H237982   2.390   4.601  11.657 -0.6827  0.8605 -2.5106
 5523TIP3   OH237983   5.724   4.133  13.559 -0.0960 -0.5400 -0.1130
 5523TIP3    H137984   5.741   4.135  13.653 -0.1458 -0.2702 -0.1100
 5523TIP3    H237985   5.807   4.158  13.519  0.1799 -1.4977 -0.1706
 5524TIP3   OH237986   1.801   2.289  16.568  0.5258 -0.0581  0.1059
 5524TIP3    H137987   1.807   2.201  16.531  0.8106 -0.0794  0.1965
 5524TIP3    H237988   1.884   2.331  16.544  1.4036 -0.5727  1.9662
 5525TIP3   OH237989   0.231   6.581  14.102  0.5718  0.2081  0.1398
 5525TIP3    H137990   0.138   6.598  14.113  0.3954 -0.3948 -0.3894
 5525TIP3    H237991   0.252   6.518  14.171  0.5482  0.2045  0.1438
 5526TIP3   OH237992   2.164   2.909  13.902 -0.1040 -0.7522 -0.2775
 5526TIP3    H137993   2.080   2.862  13.909 -0.4464 -0.0119  0.8281
 5526TIP3    H237994   2.139   2.999  13.882  0.3652 -0.3400  0.8836
 5527TIP3   OH237995   3.789   6.395   4.898 -0.6088  0.3055  0.1293
 5527TIP3    H137996   3.744   6.336   4.837  0.3225  0.2272 -0.5108
 5527TIP3    H237997   3.738   6.476   4.895 -1.4851 -0.2233  0.4677
 5528TIP3   OH237998   5.464   0.109   0.107 -0.2356  0.2965 -0.2001
 5528TIP3    H137999   5.518   0.038   0.070  0.4581  0.8929 -0.3474
 5528TIP3    H238000   5.458   0.088   0.200  1.2445  0.8339  0.0511
 5529TIP3   OH238001   3.288   4.080   4.222  0.2112  0.0460  0.9099
 5529TIP3    H138002   3.232   4.125   4.285 -0.2030 -0.0862  0.6410
 5529TIP3    H238003   3.360   4.140   4.207 -1.0043  1.2408 -0.4559
 5530TIP3   OH238004   3.931   0.157  15.248 -0.3149 -0.3993 -0.1180
 5530TIP3    H138005   3.921   0.249  15.272  0.1571 -0.4618  0.3446
 5530TIP3    H238006   3.869   0.111  15.305 -1.7898 -0.2372 -1.5023
 5531TIP3   OH238007   0.420   1.948   2.398 -0.1042  0.3974 -0.5626
 5531TIP3    H138008   0.361   2.004   2.348  0.4315  0.3407 -1.2829
 5531TIP3    H238009   0.441   1.876   2.339  1.0196  0.6435 -0.4807
 5532TIP3   OH238010   6.426   0.597   6.440 -0.8107  0.3227 -0.0467
 5532TIP3    H138011   6.441   0.687   6.412  0.8789 -0.1911 -0.9694
 5532TIP3    H238012   6.343   0.599   6.487 -0.4848  2.4860  0.5359
 5533TIP3   OH238013   1.684   6.142  14.963 -0.2299 -0.3447 -0.2737
 5533TIP3    H138014   1.735   6.176  14.889  1.0080 -2.0107 -0.2558
 5533TIP3    H238015   1.594   6.166  14.944  0.3035  0.9025 -1.3599
 5534TIP3   OH238016   6.495   6.200  13.518  0.0011 -0.1919 -0.3607
 5534TIP3    H138017   6.520   6.153  13.439 -1.5368 -0.5818 -0.6458
 5534TIP3    H238018   6.523   6.291  13.502 -1.1100 -0.0619 -1.7607
 5535TIP3   OH238019   0.509   5.288   5.694 -0.3737  0.0220 -0.4775
 5535TIP3    H138020   0.505   5.383   5.702 -2.0318 -0.1203  1.1802
 5535TIP3    H238021   0.486   5.271   5.602  0.3385  1.2201 -0.8958
 5536TIP3   OH238022   4.533   6.691  17.245 -0.3573 -0.1745  0.0731
 5536TIP3    H138023   4.498   6.624  17.304 -0.7616 -0.2845 -0.2881
 5536TIP3    H238024   4.497   6.773  17.278  1.4393  0.1054  1.5272
 5537TIP3   OH238025   3.144   2.313   4.843  0.6528 -0.0826 -0.0952
 5537TIP3    H138026   3.169   2.346   4.929  1.6717 -1.5568  0.2317
 5537TIP3    H238027   3.134   2.218   4.856  1.5073 -0.4514 -1.7141
 5538TIP3   OH238028   3.256   3.611  15.267 -0.1177  0.2268  0.2618
 5538TIP3    H138029   3.252   3.639  15.175 -1.1033  0.5801  0.3972
 5538TIP3    H238030   3.188   3.662  15.310 -0.2761 -0.5989  1.0112
 5539TIP3   OH238031   0.228   4.978  16.478 -0.2299  0.7204 -0.2007
 5539TIP3    H138032   0.168   5.001  16.549  1.2949 -0.2477  1.4795
 5539TIP3    H238033   0.221   4.883  16.470 -0.3294  0.8042 -1.3453
 5540TIP3   OH238034   2.872   0.638  12.753  0.6880 -0.4233  0.1343
 5540TIP3    H138035   2.835   0.580  12.820  3.3884 -0.1362  2.0166
 5540TIP3    H238036   2.899   0.578  12.683 -0.7858 -0.8852 -0.0838
 5541TIP3   OH238037   1.690   1.917   0.692  0.0076 -0.3125  0.5120
 5541TIP3    H138038   1.633   1.931   0.616 -0.0214  0.8606  0.7247
 5541TIP3    H238039   1.642   1.856   0.747 -0.8351  0.2814  0.4582
 5542TIP3   OH238040   1.997   4.883   0.372  0.5155  0.0309 -0.5444
 5542TIP3    H138041   1.968   4.946   0.306  0.3533  1.9052  1.2265
 5542TIP3    H238042   1.918   4.861   0.421  0.8799 -0.2551 -0.0768
 5543TIP3   OH238043   6.213   1.769   3.882 -0.1511 -0.2645  0.0623
 5543TIP3    H138044   6.265   1.790   3.960 -0.2769 -0.1305  0.1114
 5543TIP3    H238045   6.207   1.674   3.882  0.5690 -0.3233 -0.2504
 5544TIP3   OH238046   2.488   2.996  16.375 -0.1615  0.1519 -0.4442
 5544TIP3    H138047   2.490   3.086  16.408 -0.0647 -0.2373  0.6734
 5544TIP3    H238048   2.541   2.998  16.295 -0.7856  1.2317 -0.8515
 5545TIP3   OH238049   4.198   5.754  15.775 -0.1977  0.3222 -0.2403
 5545TIP3    H138050   4.143   5.677  15.786  1.4351 -0.8824 -0.2359
 5545TIP3    H238051   4.245   5.762  15.858 -0.5623  1.5123 -0.1307
 5546TIP3   OH238052   3.425   4.785  13.000  0.6991  0.1639  0.2263
 5546TIP3    H138053   3.381   4.767  12.917  0.0064 -0.8037  0.7887
 5546TIP3    H238054   3.389   4.869  13.028 -0.8010 -0.5865  0.6507
 5547TIP3   OH238055   6.190   1.854  12.697  0.2936  0.3668 -0.0292
 5547TIP3    H138056   6.173   1.891  12.610 -1.0598  1.3136  0.6137
 5547TIP3    H238057   6.194   1.929  12.755 -1.3849 -0.3819  1.1233
 5548TIP3   OH238058   4.436   4.814   3.112  0.8400 -0.3200  0.4113
 5548TIP3    H138059   4.505   4.876   3.087  0.7439 -1.1201 -2.0721
 5548TIP3    H238060   4.359   4.845   3.066 -0.0045 -0.5768  1.6061
 5549TIP3   OH238061   3.565   4.418   5.187  0.3312 -1.1520 -0.1569
 5549TIP3    H138062   3.609   4.484   5.240 -1.2914 -0.5419  0.4764
 5549TIP3    H238063   3.636   4.372   5.143  1.5194  1.0417 -0.6777
 5550TIP3   OH238064   4.907   0.074  15.633 -0.0412  0.1724  0.4076
 5550TIP3    H138065   4.859   0.106  15.709  0.5275 -1.2791  1.4219
 5550TIP3    H238066   4.929  -0.016  15.655 -0.2095 -0.4251 -1.6633
 5551TIP3   OH238067   1.654   0.796   1.126 -0.0976 -0.6197  0.4685
 5551TIP3    H138068   1.718   0.755   1.184  0.3831 -0.0068  0.3794
 5551TIP3    H238069   1.631   0.727   1.063 -0.3411 -1.1712  1.1522
 5552TIP3   OH238070   0.701   0.784  16.635  0.0245 -0.3130  0.2445
 5552TIP3    H138071   0.750   0.744  16.707 -1.5062 -1.0807  0.9000
 5552TIP3    H238072   0.708   0.878  16.650  1.4359 -0.3917  0.2078
 5553TIP3   OH238073   4.839   4.924  13.416  0.0570  0.0159  0.0022
 5553TIP3    H138074   4.883   4.839  13.425 -0.8329 -0.5654 -0.9873
 5553TIP3    H238075   4.909   4.985  13.396  0.7848 -0.3713  1.2369
 5554TIP3   OH238076   3.444   4.879   0.603  0.7630  0.0308 -0.2095
 5554TIP3    H138077   3.401   4.794   0.592  0.8246  0.1365 -1.4062
 5554TIP3    H238078   3.536   4.857   0.621  0.7374 -0.1520 -0.2971
 5555TIP3   OH238079   0.880   0.262   4.068 -0.0830 -0.2762  0.0985
 5555TIP3    H138080   0.836   0.262   3.983  3.0473  0.1094 -1.7199
 5555TIP3    H238081   0.865   0.350   4.103 -0.7745 -0.1813 -0.4227
 5556TIP3   OH238082   3.110   1.670  13.380 -0.5004 -0.7000 -0.1603
 5556TIP3    H138083   3.151   1.585  13.362 -1.4414 -1.0228 -0.9491
 5556TIP3    H238084   3.092   1.706  13.293  0.4696  0.6193  0.1657
 5557TIP3   OH238085   5.789   6.260  13.043 -0.0814  0.0177  0.4064
 5557TIP3    H138086   5.723   6.329  13.039  0.4127  0.5620  1.2895
 5557TIP3    H238087   5.861   6.298  13.093  1.1317 -0.3872 -0.9459
 5558TIP3   OH238088   2.960   5.003   1.008 -1.2791  0.2679  0.0740
 5558TIP3    H138089   2.900   4.931   1.028 -2.0415  0.7376 -0.4478
 5558TIP3    H238090   2.940   5.070   1.074 -2.5417  1.1002 -1.0951
 5559TIP3   OH238091   1.112   4.883   2.008  0.5437 -0.0980 -0.4535
 5559TIP3    H138092   1.158   4.882   2.092  0.4933  0.1808 -0.4213
 5559TIP3    H238093   1.028   4.841   2.026 -0.0444  1.1981 -0.0250
 5560TIP3   OH238094   4.686   2.686   0.735 -0.2734  0.5167  0.0565
 5560TIP3    H138095   4.744   2.753   0.698  0.2446 -0.6013 -1.2613
 5560TIP3    H238096   4.603   2.698   0.689  0.3154 -0.7543 -1.4400
 5561TIP3   OH238097   1.285   5.479   5.549  0.1598  0.0661 -0.2112
 5561TIP3    H138098   1.271   5.439   5.463  0.2396 -1.4565  0.4658
 5561TIP3    H238099   1.336   5.414   5.598  3.2680  2.3298 -0.1491
 5562TIP3   OH238100   2.329   4.258   1.181  0.3786 -0.0813  0.3258
 5562TIP3    H138101   2.335   4.353   1.192 -1.7910 -0.0697  2.0202
 5562TIP3    H238102   2.418   4.227   1.198  0.7548  1.4972  1.5313
 5563TIP3   OH238103   2.356   4.276  11.652  0.3679 -0.0972  0.1693
 5563TIP3    H138104   2.368   4.313  11.739 -1.2581 -0.5882  0.6494
 5563TIP3    H238105   2.443   4.277  11.612  1.0139  0.7365  1.5488
 5564TIP3   OH238106   3.309   6.743  14.715  0.1260 -0.5474  0.1886
 5564TIP3    H138107   3.372   6.801  14.672  1.3286 -1.0869  1.1942
 5564TIP3    H238108   3.227   6.760  14.669  0.9382  0.3376 -0.9946
 5565TIP3   OH238109   0.276   1.306  11.397 -0.1354 -0.0841 -0.4464
 5565TIP3    H138110   0.268   1.252  11.476 -0.5717 -0.9861 -1.0897
 5565TIP3    H238111   0.307   1.245  11.330 -3.5243 -0.3199 -1.9823
 5566TIP3   OH238112   3.038   0.518   0.666 -0.2896 -0.1754  0.3756
 5566TIP3    H138113   2.976   0.468   0.613  0.3323 -0.8177  0.2443
 5566TIP3    H238114   3.117   0.524   0.612  0.3101 -0.7384  1.1532
 5567TIP3   OH238115   4.282   4.284  17.259 -0.6958  0.7062  0.1332
 5567TIP3    H138116   4.376   4.296  17.275 -0.5503  0.4957 -0.5325
 5567TIP3    H238117   4.244   4.369  17.280 -0.4221  0.6594  0.8552
 5568TIP3   OH238118   2.279   5.017   5.764 -0.2391 -0.7164 -0.5643
 5568TIP3    H138119   2.323   5.048   5.843  1.3504 -0.8034 -1.3731
 5568TIP3    H238120   2.186   5.020   5.786 -0.0023  1.5238  0.5052
 5569TIP3   OH238121   0.105   0.195  10.467 -0.5097  0.0990  0.0374
 5569TIP3    H138122   0.129   0.204  10.559  0.3011 -1.9229  0.0823
 5569TIP3    H238123   0.114   0.283  10.431  1.0115  0.5945  1.4811
 5570TIP3   OH238124   4.982   3.864  14.570  0.3262  0.4834  0.3343
 5570TIP3    H138125   4.980   3.926  14.643 -0.8078 -0.8474  1.4891
 5570TIP3    H238126   5.064   3.817  14.580 -0.7591 -1.1746  2.1085
 5571TIP3   OH238127   3.973   6.091  14.498 -0.3242 -0.1575 -0.1363
 5571TIP3    H138128   3.907   6.031  14.464 -1.0451  0.4291  0.2158
 5571TIP3    H238129   3.975   6.163  14.435  0.1442 -0.2830 -0.2676
 5572TIP3   OH238130   6.698   5.152   3.129 -0.7750 -0.3032 -0.5613
 5572TIP3    H138131   6.675   5.196   3.211  0.8306  0.3008 -0.4110
 5572TIP3    H238132   6.750   5.216   3.081 -2.8552 -0.0958 -2.7346
 5573TIP3   OH238133   3.099   4.435  17.190 -0.5021 -0.1590  0.2464
 5573TIP3    H138134   3.152   4.406  17.264  0.9039 -1.0882 -1.0763
 5573TIP3    H238135   3.143   4.514  17.159 -0.5055 -0.3321 -0.2040
 5574TIP3   OH238136   3.806   6.203   5.835 -0.4803  0.8475 -0.2217
 5574TIP3    H138137   3.842   6.115   5.846 -0.4764  0.7060 -1.2366
 5574TIP3    H238138   3.875   6.262   5.865 -1.2525  0.5045  2.5153
 5575TIP3   OH238139   0.385   4.513   1.448  0.2577  0.1097  0.3056
 5575TIP3    H138140   0.383   4.573   1.524 -2.1036  0.1336  0.3039
 5575TIP3    H238141   0.419   4.431   1.484 -0.4233  0.2439  1.3164
 5576TIP3   OH238142   5.920   3.543   3.047  0.1848  0.8381 -0.2201
 5576TIP3    H138143   5.858   3.472   3.028 -0.5114  1.6617 -1.1139
 5576TIP3    H238144   5.875   3.596   3.113  1.0764 -0.0011  1.1179
 5577TIP3   OH238145   2.542   5.954   3.414  0.1261  0.5086 -0.6771
 5577TIP3    H138146   2.537   5.933   3.507 -0.7959  1.5598 -0.4675
 5577TIP3    H238147   2.607   6.025   3.409  0.9179 -0.2178 -0.9803
 5578TIP3   OH238148   3.257   0.254   1.446  0.0254 -0.0648 -0.5892
 5578TIP3    H138149   3.196   0.234   1.375  0.5455 -0.1663 -1.0123
 5578TIP3    H238150   3.269   0.349   1.441 -1.5039  0.2350  0.6551
 5579TIP3   OH238151   4.726   4.110  16.758  0.8118 -0.9692  0.1937
 5579TIP3    H138152   4.759   4.104  16.668  0.4356 -0.5187  0.0178
 5579TIP3    H238153   4.803   4.127  16.811  1.3125 -3.0414  0.2045
 5580TIP3   OH238154   2.457   6.453  15.003  0.0455 -0.4367 -0.5481
 5580TIP3    H138155   2.435   6.483  15.091  1.1714 -1.0836 -0.0208
 5580TIP3    H238156   2.526   6.514  14.974 -1.2681  0.6369 -1.5669
 5581TIP3   OH238157   3.329   2.436  11.327  0.2561  0.4661  0.1355
 5581TIP3    H138158   3.366   2.494  11.260  1.5265 -0.3327  0.1213
 5581TIP3    H238159   3.246   2.406  11.290  0.5966  0.6097 -0.7524
 5582TIP3   OH238160   3.963   3.999   5.379 -0.1821  0.5538 -0.2740
 5582TIP3    H138161   3.936   3.964   5.464  2.3111  0.4993  0.5786
 5582TIP3    H238162   3.945   3.928   5.317  0.9172 -0.6821  0.7583
 5583TIP3   OH238163   0.525   4.635  14.401 -0.2097  0.6075  0.0473
 5583TIP3    H138164   0.515   4.706  14.465  1.2665  2.6732 -1.8715
 5583TIP3    H238165   0.616   4.609  14.408 -0.4156 -0.1980 -0.1947
 5584TIP3   OH238166   4.061   4.148   4.485  0.2006 -0.0848  0.1077
 5584TIP3    H138167   4.068   4.090   4.561 -0.0990  0.0409  0.2352
 5584TIP3    H238168   4.128   4.116   4.424 -0.1498 -0.7464  0.0534
 5585TIP3   OH238169   5.063   3.383   0.817 -0.2166 -0.3669  0.8176
 5585TIP3    H138170   5.158   3.375   0.826 -0.3708 -2.2020  1.0720
 5585TIP3    H238171   5.038   3.309   0.761 -1.6180 -0.5535  1.6562
 5586TIP3   OH238172   5.650   0.575   0.417  0.4722 -0.3911 -0.3184
 5586TIP3    H138173   5.665   0.507   0.351 -2.1548 -3.1441  1.6449
 5586TIP3    H238174   5.733   0.580   0.465  1.1846 -1.1466 -1.4335
 5587TIP3   OH238175   6.044   4.920   2.479 -0.2987 -0.0931  0.1603
 5587TIP3    H138176   6.138   4.913   2.465 -0.1605  0.0412  0.9979
 5587TIP3    H238177   6.013   4.830   2.486 -0.8290 -0.3979 -3.6194
 5588TIP3   OH238178   3.656   6.717  12.618  0.8295  0.6508 -0.2308
 5588TIP3    H138179   3.735   6.718  12.672  0.6013 -0.2037  0.1402
 5588TIP3    H238180   3.626   6.626  12.621 -1.1920  1.3030  1.1626
 5589TIP3   OH238181   0.107   5.679   5.276  0.2128 -0.2470 -0.2457
 5589TIP3    H138182   0.091   5.740   5.348  0.0347  0.5637 -0.9636
 5589TIP3    H238183   0.198   5.693   5.251 -0.3971  1.2386 -1.7781
 5590TIP3   OH238184   5.163   6.410   3.802  0.2104 -0.0785 -0.3583
 5590TIP3    H138185   5.076   6.401   3.764 -0.1416 -1.2039  0.6549
 5590TIP3    H238186   5.202   6.484   3.756 -1.0369  0.0341 -1.2748
 5591TIP3   OH238187   5.949   0.357  15.350  0.3906 -0.5937  0.0992
 5591TIP3    H138188   6.021   0.393  15.402 -1.5239  1.8810  1.2390
 5591TIP3    H238189   5.974   0.374  15.259  1.6883 -0.7556  0.4076
 5592TIP3   OH238190   5.470   4.631   1.215  0.1929 -0.1702 -0.0323
 5592TIP3    H138191   5.527   4.582   1.274 -0.4889 -0.2902  0.5306
 5592TIP3    H238192   5.437   4.565   1.154 -0.8170 -0.4580  0.7966
 5593TIP3   OH238193   3.016   5.558  14.809 -0.5169  0.2229 -0.6650
 5593TIP3    H138194   2.988   5.604  14.729 -0.6774  0.5812 -0.4078
 5593TIP3    H238195   2.953   5.487  14.819 -1.5494  1.1977  0.0694
 5594TIP3   OH238196   3.336   2.502   5.322  0.7507 -0.8197  0.7218
 5594TIP3    H138197   3.300   2.582   5.284 -0.4457 -2.0213 -0.8390
 5594TIP3    H238198   3.331   2.516   5.417  2.7746  1.8393  0.5606
 5595TIP3   OH238199   3.610   1.648  11.360 -0.5443 -0.0990 -0.2860
 5595TIP3    H138200   3.547   1.620  11.293 -1.5377  0.1986  0.4941
 5595TIP3    H238201   3.565   1.717  11.408  0.5309  0.3804  0.0704
 5596TIP3   OH238202   3.664   0.207   2.267  0.3674  0.6431  0.2394
 5596TIP3    H138203   3.719   0.239   2.339  0.2930 -1.2945  1.2179
 5596TIP3    H238204   3.586   0.172   2.310 -2.0728  3.8376 -1.1353
 5597TIP3   OH238205   5.987   5.703  11.640 -0.1578  0.0494 -0.0725
 5597TIP3    H138206   6.002   5.691  11.734 -1.3373  0.8623  0.2358
 5597TIP3    H238207   6.074   5.720  11.604  0.2581  0.0858  0.9214
 5598TIP3   OH238208   4.423   6.476  12.966  0.0816 -0.2289 -0.1147
 5598TIP3    H138209   4.424   6.518  12.880  2.0133  0.5395  0.2306
 5598TIP3    H238210   4.502   6.509  13.010 -2.4281  1.9607  3.2153
 5599TIP3   OH238211   3.170   5.330   2.631  0.4019  0.5010  0.0927
 5599TIP3    H138212   3.192   5.297   2.719 -1.1397  0.2055  0.3905
 5599TIP3    H238213   3.150   5.423   2.645  1.6079  0.8203 -0.2127
 5600TIP3   OH238214   4.276   3.861  17.223 -0.2689  0.0406 -1.1070
 5600TIP3    H138215   4.232   3.810  17.291 -1.2729  1.0568 -0.9725
 5600TIP3    H238216   4.214   3.863  17.150 -0.7671  2.0244 -0.6836
 5601TIP3   OH238217   4.525   4.148   2.481  0.1802 -0.6384  0.0095
 5601TIP3    H138218   4.435   4.119   2.470  0.3643 -1.3626  0.3631
 5601TIP3    H238219   4.528   4.234   2.438 -1.2237  0.4134  1.8516
 5602TIP3   OH238220   2.770   4.538   6.460 -0.1753 -0.1051  0.0282
 5602TIP3    H138221   2.822   4.601   6.509 -1.5337  0.7227  0.4616
 5602TIP3    H238222   2.824   4.459   6.457  2.1624  1.4175 -1.6821
 5603TIP3   OH238223   2.015   4.650   1.882 -0.1971 -0.1718  0.0567
 5603TIP3    H138224   1.953   4.603   1.938 -0.3573  1.3381  1.2079
 5603TIP3    H238225   2.037   4.587   1.813 -2.3935 -1.0399  0.0574
 5604TIP3   OH238226   5.448   4.157  11.522  0.0088 -0.8475  0.2820
 5604TIP3    H138227   5.514   4.114  11.468  0.2742  1.3581 -1.2797
 5604TIP3    H238228   5.436   4.098  11.597  3.1466 -1.7346  0.2322
 5605TIP3   OH238229   3.945   0.589  15.636  0.0820  0.8505 -0.4764
 5605TIP3    H138230   3.983   0.502  15.650 -0.8675  0.8627  3.2881
 5605TIP3    H238231   3.856   0.572  15.606  0.2483  0.5516 -0.8027
 5606TIP3   OH238232   3.519   1.440  16.247 -0.5093 -0.1372 -0.0361
 5606TIP3    H138233   3.556   1.475  16.166  0.8344 -0.7929  0.2727
 5606TIP3    H238234   3.535   1.509  16.312 -1.6816  0.4343 -0.3160
 5607TIP3   OH238235   1.428   6.091   1.936 -0.3316 -0.3237 -0.5279
 5607TIP3    H138236   1.499   6.029   1.950  1.1344  0.9488 -1.8819
 5607TIP3    H238237   1.358   6.040   1.894  0.5778 -1.1832 -1.0262
 5608TIP3   OH238238   4.792   3.336   5.329  0.1850 -0.2736 -0.3380
 5608TIP3    H138239   4.865   3.315   5.388 -0.2678 -0.3146  0.2146
 5608TIP3    H238240   4.820   3.415   5.283  0.4183 -0.0726  0.1469
 5609TIP3   OH238241   6.296   6.082  11.789 -0.4826  0.0104 -0.1906
 5609TIP3    H138242   6.221   6.023  11.793  0.5761 -1.6724 -2.7322
 5609TIP3    H238243   6.263   6.161  11.745 -0.9668 -0.3215 -0.4285
 5610TIP3   OH238244   6.346   2.865  17.075 -0.2135 -0.4824  0.6001
 5610TIP3    H138245   6.327   2.824  16.991  0.0685 -0.5570  0.5691
 5610TIP3    H238246   6.438   2.892  17.067 -0.5692  0.7321  0.3746
 5611TIP3   OH238247   3.511   3.168  12.378  0.1126 -0.4890  0.7506
 5611TIP3    H138248   3.531   3.181  12.471  0.4413  1.5537  0.4480
 5611TIP3    H238249   3.421   3.138  12.377 -0.4502  1.0338  1.7132
 5612TIP3   OH238250   5.435   3.800  12.455  0.2096 -0.2845  0.5540
 5612TIP3    H138251   5.497   3.805  12.383 -0.4206  0.0420  0.0258
 5612TIP3    H238252   5.488   3.774  12.531  0.7421 -1.3843 -0.1791
 5613TIP3   OH238253   4.512   5.512   5.640 -0.4779 -0.4533 -0.5968
 5613TIP3    H138254   4.458   5.442   5.604 -1.6375  0.3569 -0.5052
 5613TIP3    H238255   4.503   5.584   5.578 -1.5404  0.5479  0.6391
 5614TIP3   OH238256   3.690   6.159   5.329  0.2481  0.1939  0.2529
 5614TIP3    H138257   3.693   6.222   5.401  0.0795 -0.0310  0.4561
 5614TIP3    H238258   3.701   6.074   5.371  0.3283  0.0753 -0.0060
 5615TIP3   OH238259   5.702   4.803   0.004  0.3123  0.2362  0.4519
 5615TIP3    H138260   5.785   4.841   0.033  0.2976 -0.4074  1.4039
 5615TIP3    H238261   5.725   4.750  -0.072  0.7236  0.3001  0.5308
 5616TIP3   OH238262   5.405   3.429  12.569 -0.0142  0.2893 -0.1103
 5616TIP3    H138263   5.454   3.506  12.599 -2.0850  1.6308 -0.0071
 5616TIP3    H238264   5.445   3.407  12.485  0.6801  1.4324 -0.1005
 5617TIP3   OH238265   4.718   2.615  11.545  0.1953  0.7573  0.6625
 5617TIP3    H138266   4.728   2.637  11.452 -2.1047 -0.5407  0.0471
 5617TIP3    H238267   4.719   2.700  11.589  1.3419  1.3991 -0.5069
 5618TIP3   OH238268   2.981   6.215   4.688 -0.2502  0.1259 -0.0217
 5618TIP3    H138269   2.969   6.265   4.608  2.0985  3.5470  1.4999
 5618TIP3    H238270   3.076   6.217   4.704 -0.4266 -1.9960  1.9621
 5619TIP3   OH238271   3.503   2.114  17.194  0.0422  0.1979 -0.2384
 5619TIP3    H138272   3.546   2.199  17.202  1.0833 -0.3854  0.5482
 5619TIP3    H238273   3.429   2.118  17.255 -0.0974  0.6369 -0.4331
 5620TIP3   OH238274   4.252   0.139   2.024 -0.4629 -0.1976 -0.3262
 5620TIP3    H138275   4.205   0.056   2.027  0.2812 -0.7408 -2.1778
 5620TIP3    H238276   4.187   0.204   2.050 -1.0853 -1.3225  1.0619
 5621TIP3   OH238277   4.268   0.157  14.482 -0.1994 -0.6384  0.1560
 5621TIP3    H138278   4.336   0.093  14.461  0.4192  1.0516 -3.8629
 5621TIP3    H238279   4.186   0.107  14.477  0.4345 -1.8094  0.9043
 5622TIP3   OH238280   5.357   3.538   1.819  0.0106  0.3194  0.7502
 5622TIP3    H138281   5.427   3.491   1.775 -0.3971 -0.5320  0.9897
 5622TIP3    H238282   5.375   3.528   1.912 -0.9550 -0.7622  0.8405
 5623TIP3   OH238283   0.044   4.674  15.331 -0.0545 -0.4337  0.5479
 5623TIP3    H138284   0.041   4.759  15.288 -1.1187 -0.9787 -0.5367
 5623TIP3    H238285   0.066   4.612  15.261 -0.4860 -1.1813  1.0503
 5624TIP3   OH238286   3.803   1.785   0.629 -0.0899 -0.0019  0.1111
 5624TIP3    H138287   3.802   1.878   0.607  1.3512 -0.4673 -2.3066
 5624TIP3    H238288   3.714   1.755   0.612 -0.1147  0.6113 -0.9566
 5625TIP3   OH238289   5.534   6.091  15.698  0.4746  0.0667  0.0127
 5625TIP3    H138290   5.566   6.055  15.780  2.2561  0.4225 -0.4782
 5625TIP3    H238291   5.490   6.172  15.723  2.5083  1.0868  0.5129
 5626TIP3   OH238292   1.785   1.687  12.002  0.3711  0.1065  0.5323
 5626TIP3    H138293   1.739   1.731  11.930 -0.7412 -0.9010  0.5924
 5626TIP3    H238294   1.846   1.628  11.958  0.0096 -0.1817  0.4098
 5627TIP3   OH238295   2.753   2.749   5.202 -0.4844 -0.1453  0.1724
 5627TIP3    H138296   2.829   2.803   5.225 -0.5551 -0.4083  1.0991
 5627TIP3    H238297   2.792   2.667   5.171 -0.3873  0.1314 -0.4594
 5628TIP3   OH238298   5.448   3.215  11.552  0.1351  0.2910 -0.2319
 5628TIP3    H138299   5.501   3.288  11.520  1.3354 -0.6308 -0.3981
 5628TIP3    H238300   5.482   3.138  11.507 -1.1901 -0.3703 -0.1473
 5629TIP3   OH238301   2.233   5.271   1.657 -0.7808 -0.2235  0.1618
 5629TIP3    H138302   2.224   5.366   1.649 -1.3951 -0.1757  1.1885
 5629TIP3    H238303   2.150   5.236   1.626 -0.2353 -0.4913 -1.0372
 5630TIP3   OH238304   5.688   1.106  15.701 -0.4225 -0.5859 -0.6177
 5630TIP3    H138305   5.702   1.201  15.700  0.2036 -0.6643 -2.5028
 5630TIP3    H238306   5.593   1.096  15.705 -0.4752  0.1005  0.1748
 5631TIP3   OH238307   1.223   6.526   3.087  0.2763  0.4629 -0.3846
 5631TIP3    H138308   1.256   6.518   3.177  0.7550  0.4411 -0.5610
 5631TIP3    H238309   1.128   6.520   3.096  0.3957 -2.5459 -0.1991
 5632TIP3   OH238310   3.772   0.753   4.466  0.0499 -0.0777 -0.4160
 5632TIP3    H138311   3.846   0.694   4.481 -1.2886 -1.8083 -0.3861
 5632TIP3    H238312   3.704   0.721   4.524 -1.3512  0.3582 -1.7637
 5633TIP3   OH238313   5.166   0.146   0.618  0.2238 -0.0626  0.0178
 5633TIP3    H138314   5.115   0.204   0.675  0.0072  0.4729 -0.7020
 5633TIP3    H238315   5.145   0.175   0.529 -0.1671 -1.4908 -0.3758
 5634TIP3   OH238316   1.810   4.751  12.707 -0.0867  0.2024  0.5805
 5634TIP3    H138317   1.825   4.657  12.705  2.8869  0.5583  0.9796
 5634TIP3    H238318   1.789   4.770  12.798 -0.3228 -0.0349  0.5744
 5635TIP3   OH238319   5.344   6.112   6.083 -0.3748 -0.2029  0.1454
 5635TIP3    H138320   5.323   6.057   6.159  2.2147 -1.6328 -0.0414
 5635TIP3    H238321   5.316   6.061   6.008 -1.9172  0.7223  0.0532
 5636TIP3   OH238322   0.111   1.492  11.161  0.0052  0.3817  0.0712
 5636TIP3    H138323   0.076   1.427  11.223  0.0146  0.7147  0.4337
 5636TIP3    H238324   0.034   1.521  11.111 -0.3100  1.2918  1.0346
 5637TIP3   OH238325   1.184   1.244   1.937  0.2193 -0.0221  0.8352
 5637TIP3    H138326   1.093   1.272   1.931  0.8707  2.2935  0.6129
 5637TIP3    H238327   1.216   1.284   2.017  1.9207  2.2859 -0.8461
 5638TIP3   OH238328   3.030   5.702   3.148 -0.6673 -0.0478 -0.3906
 5638TIP3    H138329   2.935   5.713   3.139 -0.7234 -0.6316 -0.5751
 5638TIP3    H238330   3.047   5.709   3.242 -0.7000  1.4661 -0.4753
 5639TIP3   OH238331   3.330   2.662  13.363  0.1592  0.2577 -0.4493
 5639TIP3    H138332   3.293   2.579  13.331 -0.6749  0.5855 -0.3702
 5639TIP3    H238333   3.310   2.662  13.457 -0.4675  0.8500 -0.5719
 5640TIP3   OH238334   1.099   6.768  13.762  0.0112  0.1115 -0.3318
 5640TIP3    H138335   1.045   6.704  13.810  1.6963 -0.8826  0.3133
 5640TIP3    H238336   1.038   6.809  13.701 -2.0739  0.8626  2.0751
 5641TIP3   OH238337   4.600   6.504  10.907 -0.4499 -0.1027 -0.1076
 5641TIP3    H138338   4.691   6.523  10.882 -1.0686  0.8162 -1.7853
 5641TIP3    H238339   4.550   6.578  10.873 -2.0647 -1.4607 -0.8342
 5642TIP3   OH238340   3.233   6.219   2.587  0.2943  0.0096 -0.7643
 5642TIP3    H138341   3.294   6.290   2.609 -0.0567  0.1914 -0.3547
 5642TIP3    H238342   3.270   6.142   2.631  0.4985  0.0102 -0.9336
 5643TIP3   OH238343   6.539   1.045  15.494  0.5135 -0.3019  0.2902
 5643TIP3    H138344   6.491   0.966  15.468  0.3938 -0.5084  1.1148
 5643TIP3    H238345   6.628   1.015  15.510  0.1973 -0.5157  1.7761
 5644TIP3   OH238346   3.629   0.273  11.092  0.5378 -0.3666  0.0732
 5644TIP3    H138347   3.680   0.284  11.012  1.3859 -2.9091  0.1674
 5644TIP3    H238348   3.538   0.279  11.063  0.8404  0.8035 -0.6956
 5645TIP3   OH238349   0.286   2.342  15.217 -0.2861 -0.2002  0.2346
 5645TIP3    H138350   0.192   2.359  15.217 -0.4901 -1.1928  1.5780
 5645TIP3    H238351   0.315   2.365  15.128 -1.9143 -0.5575 -0.4123
 5646TIP3   OH238352   0.319   5.246   1.250  0.2601  0.6624 -0.4109
 5646TIP3    H138353   0.398   5.287   1.285  0.1679  1.2507 -0.8715
 5646TIP3    H238354   0.323   5.156   1.282  0.2719  1.1234  0.9375
 5647TIP3   OH238355   1.698   4.739  14.406  0.4052 -0.5792  0.1211
 5647TIP3    H138356   1.709   4.741  14.501  0.4069 -1.0338  0.1321
 5647TIP3    H238357   1.611   4.700  14.392 -0.3467  1.0812 -0.0204
 5648TIP3   OH238358   6.262   6.241  11.515 -0.4417  0.1457  0.7282
 5648TIP3    H138359   6.355   6.221  11.525 -0.5496 -0.7245  0.1760
 5648TIP3    H238360   6.246   6.315  11.574  1.2757  2.4521 -1.5304
 5649TIP3   OH238361   1.713   0.845  15.694 -0.0037  0.3045 -0.3765
 5649TIP3    H138362   1.787   0.818  15.640 -0.0658 -1.0938  0.1766
 5649TIP3    H238363   1.733   0.935  15.719  1.7021 -0.1414  0.0360
 5650TIP3   OH238364   6.305   1.751   2.244 -0.0461 -0.4508  0.6168
 5650TIP3    H138365   6.248   1.827   2.256 -0.6308 -0.9525  1.0917
 5650TIP3    H238366   6.388   1.788   2.212 -0.7140  0.2560 -0.3290
 5651TIP3   OH238367   2.005   4.828   3.600 -0.4350 -0.1058  0.4521
 5651TIP3    H138368   2.058   4.793   3.529 -1.3698 -1.2925  0.3005
 5651TIP3    H238369   1.957   4.752   3.634 -1.8636  0.8648  0.7117
 5652TIP3   OH238370   1.491   1.387  15.975 -0.0361 -0.0072  0.1941
 5652TIP3    H138371   1.451   1.319  15.921 -0.2250  0.6257 -0.4873
 5652TIP3    H238372   1.516   1.455  15.913  0.1249  0.5579  0.8643
 5653TIP3   OH238373   1.031   0.325   6.874 -0.5675 -0.0494  0.2091
 5653TIP3    H138374   1.043   0.251   6.814  0.2409 -0.0748  0.3962
 5653TIP3    H238375   0.939   0.320   6.900 -0.1643 -1.9679  1.4627
 5654TIP3   OH238376   3.771   6.053   2.397  0.3089 -0.0518 -0.2715
 5654TIP3    H138377   3.756   6.077   2.305 -2.0639  0.8046  0.2663
 5654TIP3    H238378   3.767   5.957   2.397 -0.0195 -0.0510 -1.0243
 5655TIP3   OH238379   3.588   5.083   3.869 -0.1797  0.3792 -0.5656
 5655TIP3    H138380   3.652   5.154   3.860  1.0876 -0.6271  0.1556
 5655TIP3    H238381   3.517   5.108   3.810  0.1048  2.3691 -0.1570
 5656TIP3   OH238382   2.790   1.426  12.894 -0.6747 -0.4221 -0.7493
 5656TIP3    H138383   2.753   1.447  12.980 -4.0123  0.5730 -2.2680
 5656TIP3    H238384   2.826   1.510  12.864  0.1144 -0.6750 -0.5400
 5657TIP3   OH238385   5.973   2.186  16.929 -0.3214  0.2580 -0.5102
 5657TIP3    H138386   6.024   2.209  16.852  0.8650 -0.8018 -0.0643
 5657TIP3    H238387   6.037   2.150  16.990 -1.4689 -0.2457  0.4213
 5658TIP3   OH238388   0.006   2.705  15.437 -0.1381  0.5140 -0.3980
 5658TIP3    H138389  -0.028   2.780  15.484 -0.8542 -0.7178  1.1587
 5658TIP3    H238390  -0.066   2.642  15.436  0.9749 -0.8230 -0.0801
 5659TIP3   OH238391   5.144   1.274  16.093  0.4587  0.3556  0.2098
 5659TIP3    H138392   5.107   1.190  16.066 -1.2094  1.4386 -1.0604
 5659TIP3    H238393   5.228   1.279  16.047  0.2074 -0.2663 -0.3281
 5660TIP3   OH238394   6.123   1.528   2.949  0.1955  0.2651  0.0029
 5660TIP3    H138395   6.149   1.617   2.972  0.6992 -0.2609  1.6378
 5660TIP3    H238396   6.198   1.474   2.977 -1.8114 -1.1295  3.2771
 5661TIP3   OH238397   3.265   3.255   5.527 -0.4410 -0.0905  0.6636
 5661TIP3    H138398   3.253   3.335   5.578 -1.1381  1.7318 -2.1233
 5661TIP3    H238399   3.259   3.284   5.436  0.4323 -3.1787 -0.4917
 5662TIP3   OH238400   4.848   3.899  14.340 -0.4855  0.1692 -0.4146
 5662TIP3    H138401   4.887   3.974  14.296  0.3432  0.9059  1.4632
 5662TIP3    H238402   4.903   3.885  14.418  0.3191 -3.2962 -1.4045
 5663TIP3   OH238403   1.076   2.370  11.698  0.2561 -0.6954 -0.2483
 5663TIP3    H138404   1.094   2.399  11.609  1.4925  0.2111  0.2724
 5663TIP3    H238405   1.145   2.307  11.718  1.2596  0.6823  0.7792
 5664TIP3   OH238406   3.767   2.649  16.428 -0.0487  0.3278  0.0556
 5664TIP3    H138407   3.700   2.588  16.459  0.1472 -0.1172 -0.3962
 5664TIP3    H238408   3.844   2.595  16.412  0.6714  0.9517  1.3134
 5665TIP3   OH238409   2.370   0.178  15.046 -0.0298  0.5027  0.0576
 5665TIP3    H138410   2.396   0.172  15.138  0.9855 -1.0429 -0.3001
 5665TIP3    H238411   2.434   0.237  15.007  2.1852 -2.0463 -0.4748
 5666TIP3   OH238412   0.714   1.941  15.350  0.0934  0.3125 -0.2501
 5666TIP3    H138413   0.740   1.908  15.264  1.0175  1.2798 -0.3554
 5666TIP3    H238414   0.722   2.036  15.343 -1.8664  0.5664  0.2595
 5667TIP3   OH238415   3.422   3.595  12.355 -0.0678  0.0709  0.5793
 5667TIP3    H138416   3.459   3.629  12.437  0.4141  0.4960  0.1988
 5667TIP3    H238417   3.448   3.660  12.289  2.6798 -1.9689 -0.5637
 5668TIP3   OH238418   6.186   6.575  13.415 -0.4860 -0.0359  0.1577
 5668TIP3    H138419   6.267   6.624  13.429 -0.6364  0.1433  0.4172
 5668TIP3    H238420   6.175   6.575  13.320 -1.4873  2.1336  0.2006
 5669TIP3   OH238421   3.767   2.937   1.124  0.9407  0.5575 -0.5226
 5669TIP3    H138422   3.786   3.008   1.186 -0.5402 -0.2393  0.9123
 5669TIP3    H238423   3.800   2.858   1.167  1.8616  0.2408 -1.7549
 5670TIP3   OH238424   2.967   5.385   1.473 -0.3771 -0.0236 -0.1512
 5670TIP3    H138425   3.008   5.303   1.499  0.3910  0.1328 -0.8060
 5670TIP3    H238426   2.982   5.444   1.547  2.1899  0.5567 -1.0187
 5671TIP3   OH238427   1.183   0.720  12.959 -0.0767  0.5462 -0.0641
 5671TIP3    H138428   1.247   0.746  12.892 -0.4185  1.8830  0.0994
 5671TIP3    H238429   1.235   0.694  13.034  0.3392  3.0427  0.6032
 5672TIP3   OH238430   5.415   4.296  15.582 -0.0855 -0.1824 -0.0386
 5672TIP3    H138431   5.424   4.375  15.636  1.0425 -1.5276  1.8346
 5672TIP3    H238432   5.473   4.312  15.507  1.3109  0.1829  1.0746
 5673TIP3   OH238433   6.576   6.513  14.778 -0.0745  0.0521 -0.0797
 5673TIP3    H138434   6.643   6.581  14.772  0.3826 -0.5192 -1.7843
 5673TIP3    H238435   6.501   6.557  14.819  0.9361  0.9930  0.8294
 5674TIP3   OH238436   2.918   3.913  12.351  0.1094  0.2525  0.3274
 5674TIP3    H138437   2.880   3.988  12.305  0.6791  0.6243  0.4508
 5674TIP3    H238438   3.005   3.903  12.312  0.4661  0.3619  1.0779
 5675TIP3   OH238439   6.161   4.499  11.311  0.4844 -0.7910 -0.1120
 5675TIP3    H138440   6.182   4.406  11.299  0.2266 -0.8585 -0.0544
 5675TIP3    H238441   6.241   4.545  11.286  0.2685 -0.9740 -1.1966
 5676TIP3   OH238442   5.148   6.113   0.197 -0.1443  0.1202  0.4247
 5676TIP3    H138443   5.183   6.202   0.192 -0.6393  0.3946  1.4727
 5676TIP3    H238444   5.053   6.124   0.185 -0.1196 -0.3576 -0.2244
 5677TIP3   OH238445   3.820   5.936   5.721  0.1742 -0.7962  0.4847
 5677TIP3    H138446   3.727   5.918   5.736 -0.5688  1.9980 -0.1752
 5677TIP3    H238447   3.829   5.936   5.626  1.0660 -1.8316  0.5541
 5678TIP3   OH238448   6.143   4.778  14.880  0.3735  0.0720  0.1740
 5678TIP3    H138449   6.189   4.695  14.866  0.9366  0.2656  0.8472
 5678TIP3    H238450   6.190   4.841  14.826  0.5132  0.1379  0.3711
 5679TIP3   OH238451   1.957   2.442  11.077 -0.5793 -0.2640  0.2639
 5679TIP3    H138452   1.888   2.501  11.046  0.2780 -0.1635 -1.5846
 5679TIP3    H238453   1.977   2.386  11.002  1.5229 -0.1047  0.6302
 5680TIP3   OH238454   6.332   0.277  13.915 -0.3841  0.0203 -0.5203
 5680TIP3    H138455   6.384   0.353  13.892 -0.6903  0.4990  0.3212
 5680TIP3    H238456   6.354   0.260  14.007 -0.6847 -0.6024 -0.5585
 5681TIP3   OH238457   4.620   1.041   6.490  0.3679  0.0126  0.0944
 5681TIP3    H138458   4.712   1.038   6.514 -0.0521 -1.6116  1.7822
 5681TIP3    H238459   4.577   1.083   6.565 -0.2017  1.5323 -1.0296
 5682TIP3   OH238460   3.527   2.768  14.707  0.1209 -0.3689 -0.3728
 5682TIP3    H138461   3.609   2.724  14.728  0.4050  0.9082  1.4421
 5682TIP3    H238462   3.543   2.811  14.623  1.9819  1.3018  0.7605
 5683TIP3   OH238463   0.962   2.827  13.463 -0.0987  0.4673 -0.2848
 5683TIP3    H138464   1.054   2.802  13.471 -0.0073  1.3124  2.3086
 5683TIP3    H238465   0.919   2.748  13.431  1.0814 -1.0446  1.5993
 5684TIP3   OH238466   4.956   0.220  11.873  0.1879  0.2457  0.2433
 5684TIP3    H138467   4.874   0.224  11.922  0.0863  0.9174  0.0210
 5684TIP3    H238468   4.933   0.249  11.785  1.1550  3.1018  0.8230
 5685TIP3   OH238469   5.987   6.474   0.317 -0.0479  0.7847 -0.2149
 5685TIP3    H138470   5.905   6.522   0.307 -0.1231  0.6148 -0.4196
 5685TIP3    H238471   5.961   6.382   0.316  0.1475  0.7300 -0.2894
 5686TIP3   OH238472   6.499   3.111  13.428 -0.2681  0.1462  0.1982
 5686TIP3    H138473   6.527   3.136  13.340  0.7746 -0.5064  0.3259
 5686TIP3    H238474   6.405   3.128  13.429 -0.2517  0.3863 -0.9668
 5687TIP3   OH238475   1.964   3.812   4.710 -0.1983 -0.1461 -0.5673
 5687TIP3    H138476   2.011   3.786   4.631 -0.4843  1.2181 -1.2141
 5687TIP3    H238477   1.886   3.857   4.678  0.2890  1.5174  0.4679
 5688TIP3   OH238478   5.610   4.276  15.374 -0.1003  0.6027  0.1770
 5688TIP3    H138479   5.628   4.182  15.375  0.2113  0.5086 -3.0142
 5688TIP3    H238480   5.679   4.314  15.427  1.4931 -0.8178 -0.7711
 5689TIP3   OH238481   5.609   1.834   3.109 -0.9024  0.9363 -0.2803
 5689TIP3    H138482   5.698   1.801   3.119 -1.1275  0.4976  0.3096
 5689TIP3    H238483   5.620   1.925   3.081 -0.2758  0.7370 -0.7112
 5690TIP3   OH238484   5.532   4.879  11.855  0.5723 -0.1500 -0.1483
 5690TIP3    H138485   5.582   4.864  11.774  0.9993  3.6973 -0.8045
 5690TIP3    H238486   5.445   4.845  11.835  0.3053  1.6983 -2.8658
 5691TIP3   OH238487   3.059   1.813  13.634  0.8462  0.4338  0.2098
 5691TIP3    H138488   3.142   1.860  13.624  1.3126 -0.2348  0.8257
 5691TIP3    H238489   3.079   1.724  13.605 -0.7387  1.1710 -3.6869
 5692TIP3   OH238490   0.272   4.191   5.318  0.0931 -0.1863  0.6740
 5692TIP3    H138491   0.326   4.233   5.385  1.6794 -2.0778  0.6900
 5692TIP3    H238492   0.316   4.211   5.235 -2.1585  2.6081 -0.0042
 5693TIP3   OH238493   5.192   5.465  11.629  0.4055 -0.2825 -0.7942
 5693TIP3    H138494   5.152   5.549  11.607  0.2952  0.1585  0.9545
 5693TIP3    H238495   5.246   5.444  11.552 -1.1422  0.3595 -2.1109
 5694TIP3   OH238496   0.774   0.561   3.515 -1.0496 -0.4975  0.0770
 5694TIP3    H138497   0.775   0.493   3.447 -1.3240  1.4892 -2.0330
 5694TIP3    H238498   0.861   0.556   3.554 -0.7683 -1.4766 -0.6203
 5695TIP3   OH238499   6.104   1.757  14.337  0.4414  0.0640  0.3195
 5695TIP3    H138500   6.117   1.712  14.421  1.1208  0.5188  0.4724
 5695TIP3    H238501   6.057   1.694  14.283  3.8080 -2.0579 -0.4587
 5696TIP3   OH238502   3.009   3.463  16.257 -0.4507 -0.1371  0.1034
 5696TIP3    H138503   2.993   3.369  16.254 -0.2490 -0.1856  0.5854
 5696TIP3    H238504   3.043   3.480  16.345 -2.5654  0.6982  0.8346
 5697TIP3   OH238505   1.316   5.936  14.093  0.0076 -0.0235  0.8204
 5697TIP3    H138506   1.353   5.850  14.114 -1.4152 -0.4015  1.9209
 5697TIP3    H238507   1.391   5.995  14.096  1.0454 -1.2206 -0.1089
 5698TIP3   OH238508   1.547   5.510  16.763 -0.6273 -0.0722  0.3041
 5698TIP3    H138509   1.559   5.605  16.762 -1.8787  0.1120 -0.1854
 5698TIP3    H238510   1.566   5.484  16.853  3.5150  0.0339 -0.3522
 5699TIP3   OH238511   5.448   5.125  11.762  0.3969  0.2704 -0.0719
 5699TIP3    H138512   5.507   5.150  11.691  0.0503  0.7153 -0.2122
 5699TIP3    H238513   5.493   5.054  11.808  0.0445 -0.9865 -1.5660
 5700TIP3   OH238514   1.833   2.124   5.130 -0.0322  0.3116  0.4960
 5700TIP3    H138515   1.904   2.062   5.145 -1.3815 -1.3523  0.3163
 5700TIP3    H238516   1.810   2.112   5.038  1.5561  3.2223 -0.4228
 5701TIP3   OH238517   1.741   5.000   0.777  0.0112 -0.2485 -0.3605
 5701TIP3    H138518   1.690   4.977   0.855  1.3510 -1.0941  0.2898
 5701TIP3    H238519   1.774   5.088   0.794  1.6721 -1.0668  0.7780
 5702TIP3   OH238520   5.565   2.854   3.664  0.1523 -0.4292 -0.2473
 5702TIP3    H138521   5.541   2.769   3.626  0.2807 -1.7156  2.3113
 5702TIP3    H238522   5.660   2.855   3.662  0.1412 -0.1445 -0.6665
 5703TIP3   OH238523   3.473   4.606   0.520 -0.6308 -0.5187  0.2850
 5703TIP3    H138524   3.433   4.548   0.584  0.4909  2.1214  3.6573
 5703TIP3    H238525   3.567   4.601   0.537 -0.3406  0.7143 -0.7416
 5704TIP3   OH238526   0.972   5.909   0.319  0.0068  0.3207 -0.3992
 5704TIP3    H138527   1.030   5.983   0.301 -0.8345  1.2951  0.7575
 5704TIP3    H238528   1.024   5.851   0.375  0.8975 -0.3345 -1.8354
 5705TIP3   OH238529   5.373   0.784   1.672  0.3177  0.1527 -0.3733
 5705TIP3    H138530   5.432   0.714   1.644  0.2521 -0.4958  1.0047
 5705TIP3    H238531   5.348   0.759   1.761 -1.0632  1.0606 -0.4808
 5706TIP3   OH238532   4.614   2.137  12.246 -0.0932  0.3262 -0.4140
 5706TIP3    H138533   4.580   2.050  12.264 -3.6896  1.6572  0.0873
 5706TIP3    H238534   4.706   2.123  12.223 -0.0322 -3.3515  1.3794
 5707TIP3   OH238535   1.757   6.051  15.851 -0.6745  0.1765  0.3533
 5707TIP3    H138536   1.806   5.976  15.886 -1.0947 -0.7413 -0.9618
 5707TIP3    H238537   1.668   6.039  15.884 -0.9781 -0.4748 -0.6639
 5708TIP3   OH238538   4.847   0.158   2.519  0.7720 -0.0302 -0.2638
 5708TIP3    H138539   4.882   0.164   2.608 -0.4354 -0.4087  0.2619
 5708TIP3    H238540   4.916   0.194   2.463  0.6320  2.4168  1.0356
 5709TIP3   OH238541   4.537   3.760  15.536  0.5775  0.1403  0.2221
 5709TIP3    H138542   4.489   3.843  15.528  1.2103  0.4482 -0.5122
 5709TIP3    H238543   4.574   3.762  15.625  0.7802  0.7555  0.1273
 5710TIP3   OH238544   3.962   3.394   5.999  0.0580 -0.2071 -0.1431
 5710TIP3    H138545   3.966   3.489   6.004  2.8538 -0.1987 -0.7149
 5710TIP3    H238546   3.975   3.365   6.089  0.1407 -0.0568 -0.1063
 5711TIP3   OH238547   1.278   2.058  11.543 -0.7462 -0.4348  0.6497
 5711TIP3    H138548   1.293   2.113  11.620 -1.5586 -0.1819  0.6414
 5711TIP3    H238549   1.227   1.984  11.577  1.1375 -1.7034  0.8453
 5712TIP3   OH238550   1.717   0.442  12.632  0.2895  0.1110 -0.4588
 5712TIP3    H138551   1.762   0.524  12.653  1.9719 -1.3967  2.3203
 5712TIP3    H238552   1.763   0.409  12.555  0.5154  1.0893 -0.7565
 5713TIP3   OH238553   2.813   4.327  11.164  0.0997  0.6073  0.4830
 5713TIP3    H138554   2.796   4.256  11.102 -0.0927  1.3445 -0.3338
 5713TIP3    H238555   2.727   4.358  11.189  0.1834  0.5286  0.8660
 5714TIP3   OH238556   3.673   5.929  13.110  0.0705  0.7361 -0.1388
 5714TIP3    H138557   3.729   5.860  13.146  0.6942  1.7120  0.8332
 5714TIP3    H238558   3.733   5.987  13.063 -0.3762  0.8883 -0.5337
 5715TIP3   OH238559   0.903   0.743  16.188 -0.2747 -0.9337  0.6797
 5715TIP3    H138560   0.880   0.784  16.104  2.5905 -1.2145 -0.3367
 5715TIP3    H238561   0.958   0.808  16.232  0.1218 -1.6824  1.3100
 5716TIP3   OH238562   0.430   3.624  13.591  0.1134  0.1091  0.3387
 5716TIP3    H138563   0.436   3.679  13.669 -1.5952 -0.2281  0.7521
 5716TIP3    H238564   0.377   3.675  13.530  0.9798  0.1396 -0.3945
 5717TIP3   OH238565   1.541   5.173   0.684 -0.1776  0.0206 -0.0677
 5717TIP3    H138566   1.620   5.220   0.659 -0.3809  1.4792  1.7569
 5717TIP3    H238567   1.569   5.082   0.695  0.6104 -0.0236 -2.0576
 5718TIP3   OH238568   6.735   0.675  13.154  0.3181 -0.4686  0.6230
 5718TIP3    H138569   6.820   0.647  13.121 -0.3978 -0.9788 -0.8793
 5718TIP3    H238570   6.748   0.766  13.180  1.0032 -0.1323 -0.8236
 5719TIP3   OH238571   0.711   3.876   0.227 -0.2610  0.0456  0.4883
 5719TIP3    H138572   0.799   3.889   0.194 -0.5431 -1.5154 -1.0667
 5719TIP3    H238573   0.721   3.868   0.322  1.1755  0.4333  0.3827
 5720TIP3   OH238574   3.977   1.475   6.552 -0.0796  0.0805  0.6917
 5720TIP3    H138575   4.027   1.490   6.472  0.6212  0.2614  1.1649
 5720TIP3    H238576   3.898   1.430   6.521  0.5517 -0.5897 -0.0110
 5721TIP3   OH238577   6.236   5.485  11.907 -0.1108  0.3093  0.5524
 5721TIP3    H138578   6.216   5.436  11.827  0.1240 -0.1653  0.7821
 5721TIP3    H238579   6.247   5.418  11.974 -0.4328  0.7118  1.0151
 5722TIP3   OH238580   5.051   2.913  13.112 -0.4051 -0.4369  0.0480
 5722TIP3    H138581   5.040   2.997  13.068 -1.8149  0.8678  2.6168
 5722TIP3    H238582   4.980   2.858  13.077  0.2174 -0.4226 -1.2814
 5723TIP3   OH238583   3.760   3.625  12.814  0.0097 -0.2424  0.8522
 5723TIP3    H138584   3.785   3.612  12.906  0.6741  0.1470  0.7360
 5723TIP3    H238585   3.784   3.715  12.795 -0.4392 -0.2162  0.3891
 5724TIP3   OH238586   6.563   6.530   3.203  0.3061  0.0966 -0.3378
 5724TIP3    H138587   6.525   6.442   3.201  0.6848 -0.0705 -0.3113
 5724TIP3    H238588   6.638   6.523   3.261 -0.2042  0.6668  0.4090
 5725TIP3   OH238589   1.230   4.742  14.020 -0.3563  0.3578 -0.1591
 5725TIP3    H138590   1.295   4.680  13.989 -0.3367  0.9168 -1.2889
 5725TIP3    H238591   1.160   4.688  14.057  0.1343 -0.2870 -0.1798
 5726TIP3   OH238592   2.963   2.819   0.256 -0.1933  0.0654 -0.8689
 5726TIP3    H138593   2.993   2.902   0.292  0.1541  0.4616 -2.0386
 5726TIP3    H238594   3.043   2.765   0.250 -0.5801 -0.7718  0.9059
 5727TIP3   OH238595   1.949   4.382   2.639 -0.5553  0.5252  0.1514
 5727TIP3    H138596   1.987   4.434   2.568  0.7985 -0.8042 -0.1562
 5727TIP3    H238597   1.983   4.422   2.719  0.6179  0.0291 -0.0860
 5728TIP3   OH238598   4.407   3.306   5.222 -0.1719  0.7841  0.0441
 5728TIP3    H138599   4.382   3.301   5.130 -0.9637 -0.0711  0.2969
 5728TIP3    H238600   4.324   3.315   5.269  0.3064  2.7667  0.5953
 5729TIP3   OH238601   3.539   0.279   5.955  0.1443  0.3836 -0.2281
 5729TIP3    H138602   3.619   0.252   5.909 -0.2896 -1.3135 -0.0589
 5729TIP3    H238603   3.548   0.240   6.043 -0.9902 -0.0935 -0.3068
 5730TIP3   OH238604   4.036   6.573   0.243 -0.6690  0.3081  0.5619
 5730TIP3    H138605   4.089   6.565   0.323 -0.7511  0.9451  0.6821
 5730TIP3    H238606   4.075   6.510   0.183 -1.3390 -1.0666  1.4988
 5731TIP3   OH238607   5.023   1.699   1.714 -0.1211 -0.5986 -0.4426
 5731TIP3    H138608   5.040   1.626   1.653  3.0005 -0.4299  0.0602
 5731TIP3    H238609   5.077   1.770   1.681 -2.6791  1.4331 -0.5888
 5732TIP3   OH238610   5.708   3.294  11.293 -0.3334 -0.2489  0.1391
 5732TIP3    H138611   5.801   3.291  11.317 -0.4505 -0.6827  0.5477
 5732TIP3    H238612   5.703   3.361  11.225  0.6150 -1.6440 -1.3733
 5733TIP3   OH238613   3.160   5.532  15.241 -0.3817 -0.6485 -0.0113
 5733TIP3    H138614   3.241   5.484  15.257  0.4085  1.2318  1.9455
 5733TIP3    H238615   3.173   5.573  15.155  0.8093 -0.2628  0.3396
 5734TIP3   OH238616   2.412   5.394  16.721 -0.5748 -0.7651  0.4239
 5734TIP3    H138617   2.364   5.342  16.656 -0.7290  0.1855 -0.2378
 5734TIP3    H238618   2.371   5.480  16.719  0.6244 -0.1666  0.4291
 5735TIP3   OH238619   1.821   4.579  16.740  0.0584  0.0173  0.7347
 5735TIP3    H138620   1.902   4.623  16.768 -0.4345  1.3187  0.2151
 5735TIP3    H238621   1.812   4.602  16.648 -0.4539 -0.8426  0.5647
 5736TIP3   OH238622   2.212   5.344  12.958  0.4099 -0.2547  0.3817
 5736TIP3    H138623   2.228   5.308  13.046 -0.4650  1.4076  1.2671
 5736TIP3    H238624   2.166   5.426  12.974  0.1449  0.0393 -1.6627
 5737TIP3   OH238625   5.501   2.401   4.949  0.3003 -0.1912  0.9073
 5737TIP3    H138626   5.505   2.314   4.988  1.2864 -0.7360 -0.3338
 5737TIP3    H238627   5.592   2.424   4.930  0.0079  0.8618  0.6763
 5738TIP3   OH238628   6.739   2.055  11.360 -0.1256  0.1570 -0.2455
 5738TIP3    H138629   6.654   2.012  11.376 -0.1228 -0.7793 -2.3449
 5738TIP3    H238630   6.800   1.983  11.346  0.5644  0.8409 -0.8309
 5739TIP3   OH238631   0.484   6.635  14.706 -0.7606  0.3334  0.5703
 5739TIP3    H138632   0.492   6.674  14.619 -1.7636  0.3837  0.4937
 5739TIP3    H238633   0.570   6.595  14.722 -0.0976  1.5350  0.1544
 5740TIP3   OH238634   1.022   5.005   2.937 -0.0616  0.0336  0.3544
 5740TIP3    H138635   0.985   5.027   2.851  0.2051  2.3596  0.7750
 5740TIP3    H238636   0.947   4.975   2.988 -0.2267 -1.3691 -0.6549
 5741TIP3   OH238637   5.913   5.133  17.223 -0.5937  0.2714  0.1981
 5741TIP3    H138638   5.899   5.123  17.317 -3.0262  1.3391  0.0278
 5741TIP3    H238639   5.856   5.206  17.198  0.4263  0.3887 -2.0127
 5742TIP3   OH238640   4.805   0.232   1.608 -0.6837 -0.0581  0.2545
 5742TIP3    H138641   4.779   0.271   1.691 -0.7562  1.1617 -0.3123
 5742TIP3    H238642   4.828   0.307   1.552  4.0865 -0.8523  0.6604
 5743TIP3   OH238643   3.403   0.900  14.486 -0.1571  0.5208  0.1050
 5743TIP3    H138644   3.482   0.845  14.488  0.0360  0.7031 -1.2290
 5743TIP3    H238645   3.344   0.854  14.426 -1.8674 -0.6010  2.5123
 5744TIP3   OH238646   1.343   3.397   2.250 -0.4324  0.3245 -0.6994
 5744TIP3    H138647   1.254   3.384   2.284  0.0290 -0.1226  0.3975
 5744TIP3    H238648   1.387   3.449   2.318  0.3253 -0.0069 -0.9206
 5745TIP3   OH238649   1.060   0.612   1.869  0.4969 -0.1414 -0.7096
 5745TIP3    H138650   1.146   0.623   1.828  0.6939  2.4532  0.2164
 5745TIP3    H238651   1.069   0.534   1.923  1.2293 -1.7433 -2.9997
 5746TIP3   OH238652   1.072   3.445   2.163 -0.0451 -1.2658 -0.0959
 5746TIP3    H138653   1.019   3.410   2.091 -1.1117  0.0308  0.0153
 5746TIP3    H238654   1.107   3.527   2.129 -1.2181 -0.2290  1.0989
 5747TIP3   OH238655   1.611   4.366   2.338 -0.3152 -0.5403 -0.4459
 5747TIP3    H138656   1.575   4.433   2.279 -1.2920 -0.9246 -0.3027
 5747TIP3    H238657   1.663   4.416   2.401 -2.9864  0.4080  1.1629
 5748TIP3   OH238658   3.226   6.677  13.328  0.0768  0.0239  0.0559
 5748TIP3    H138659   3.279   6.690  13.249 -0.2262  2.0141  0.1182
 5748TIP3    H238660   3.176   6.759  13.337  0.3535 -0.0065  2.5059
 5749TIP3   OH238661   1.509   1.827   2.738 -0.3970 -0.6131 -0.7085
 5749TIP3    H138662   1.523   1.765   2.810 -1.5198  0.6722  0.7020
 5749TIP3    H238663   1.439   1.884   2.770  1.2648  2.0207 -1.4890
 5750TIP3   OH238664   0.289   1.994   2.829 -0.3840 -0.1775  0.1876
 5750TIP3    H138665   0.377   1.958   2.829 -0.6104 -0.7690 -0.8076
 5750TIP3    H238666   0.236   1.930   2.875 -0.8879 -1.4652 -2.0378
 5751TIP3   OH238667   2.821   6.261   2.320 -0.0182 -0.1073  0.4533
 5751TIP3    H138668   2.911   6.238   2.341  0.2182  0.1729 -0.2234
 5751TIP3    H238669   2.807   6.227   2.232 -0.2541  0.7230  0.1637
 5752TIP3   OH238670   3.422   6.184   5.536 -0.2932  0.0829  0.3618
 5752TIP3    H138671   3.361   6.256   5.521  0.3803  0.5691 -0.0951
 5752TIP3    H238672   3.506   6.227   5.549  0.4938 -0.6635 -1.7827
 5753TIP3   OH238673   6.474   2.841  15.469  0.2899  0.3994  0.0215
 5753TIP3    H138674   6.380   2.839  15.449  0.2506 -1.5084  0.2545
 5753TIP3    H238675   6.493   2.934  15.483 -1.6865  0.7829  0.5119
 5754TIP3   OH238676   3.984   2.034   5.823  0.0166  0.9676  0.0040
 5754TIP3    H138677   3.923   2.078   5.764 -0.3729  0.6725  0.1863
 5754TIP3    H238678   4.065   2.086   5.816 -0.5977  2.0425  0.6270
 5755TIP3   OH238679   3.564   4.054   0.730  0.7785 -0.2435 -0.2242
 5755TIP3    H138680   3.492   4.117   0.733 -0.4044 -1.5404 -0.8340
 5755TIP3    H238681   3.613   4.079   0.651  0.6898  0.2900 -0.1179
 5756TIP3   OH238682   3.108   0.390  13.829 -0.3443  0.1581 -0.0553
 5756TIP3    H138683   3.190   0.425  13.791 -0.3478 -2.0559 -2.3929
 5756TIP3    H238684   3.103   0.430  13.916  2.5286  1.4159 -0.3413
 5757TIP3   OH238685   1.697   1.521   4.214  0.5009 -0.0403 -0.2820
 5757TIP3    H138686   1.752   1.449   4.184  0.3724 -0.0370 -0.5252
 5757TIP3    H238687   1.629   1.529   4.148 -0.5362 -0.8647  0.6493
 5758TIP3   OH238688   2.370   2.617  14.366 -0.4122  0.0612 -0.2547
 5758TIP3    H138689   2.341   2.609  14.457 -0.4810  2.2227 -0.0401
 5758TIP3    H238690   2.304   2.570  14.315 -1.0417 -0.1298  0.7215
 5759TIP3   OH238691   4.687   4.936   3.827 -0.5667  0.6454 -0.2662
 5759TIP3    H138692   4.622   4.899   3.767  0.2801  0.6956 -1.2427
 5759TIP3    H238693   4.769   4.931   3.779  0.2712  0.0473  1.1706
 5760TIP3   OH238694   6.192   4.224   4.620  0.0886 -0.5732 -0.0694
 5760TIP3    H138695   6.201   4.292   4.553 -1.4600 -0.1124  0.1450
 5760TIP3    H238696   6.114   4.175   4.594  0.6759 -1.7105  0.2731
 5761TIP3   OH238697   0.301   2.604  12.285 -0.0837 -0.0548 -0.0332
 5761TIP3    H138698   0.268   2.560  12.364 -0.3572 -0.4581 -0.3712
 5761TIP3    H238699   0.250   2.567  12.214  0.4928 -0.0320 -0.4629
 5762TIP3   OH238700   5.707   2.729   4.912  0.2085 -0.2377  0.1007
 5762TIP3    H138701   5.731   2.636   4.912 -0.0215 -0.3014 -0.2838
 5762TIP3    H238702   5.650   2.738   4.836  0.0821  0.1820  0.2452
 5763TIP3   OH238703   4.670   3.190   4.726  0.4437  0.0915  0.4918
 5763TIP3    H138704   4.671   3.107   4.678  0.2371  0.3489  0.0337
 5763TIP3    H238705   4.678   3.165   4.818 -1.0213 -0.5266  0.4851
 5764TIP3   OH238706   1.923   4.731   2.352 -0.0493  0.0345 -0.5936
 5764TIP3    H138707   1.969   4.797   2.300 -0.5306  0.4249 -0.5450
 5764TIP3    H238708   1.940   4.756   2.443 -0.0902 -0.0057 -0.5746
 5765TIP3   OH238709   1.064   3.341  11.739  0.2300 -0.1860  0.5438
 5765TIP3    H138710   1.153   3.374  11.731 -0.2761  1.1074  0.0069
 5765TIP3    H238711   1.022   3.401  11.801 -0.5644 -0.1527 -0.0167
 5766TIP3   OH238712   0.834   5.025   3.207 -0.1519  0.3718  0.0062
 5766TIP3    H138713   0.776   4.952   3.226  1.1946 -1.3014 -1.8657
 5766TIP3    H238714   0.805   5.057   3.122  0.5688  0.6544 -0.1386
 5767TIP3   OH238715   4.875   0.379  14.220  0.4140 -0.5342 -0.2193
 5767TIP3    H138716   4.883   0.374  14.125  0.0492 -0.0138 -0.2819
 5767TIP3    H238717   4.791   0.423  14.235  0.3653 -0.8021  0.3473
 5768TIP3   OH238718   5.005   0.709   2.149  0.3748 -0.1126  0.2848
 5768TIP3    H138719   5.062   0.684   2.077 -0.2612  2.0843 -1.0809
 5768TIP3    H238720   4.932   0.648   2.145  0.5743 -0.2953 -0.6168
 5769TIP3   OH238721   4.141   1.781   0.013 -0.2930  0.7437  0.4300
 5769TIP3    H138722   4.104   1.694   0.029 -2.0868  1.5288  0.8442
 5769TIP3    H238723   4.191   1.801   0.092  1.7437 -0.6195 -0.4190
 5770TIP3   OH238724   0.716   2.921   4.086 -0.3884  0.2039 -0.5678
 5770TIP3    H138725   0.691   2.885   4.000 -0.3016  0.7496 -0.8231
 5770TIP3    H238726   0.784   2.861   4.118 -2.0041 -1.3380  0.1633
 5771TIP3   OH238727   2.948   1.290   3.315 -0.2819 -0.2434  0.9114
 5771TIP3    H138728   2.856   1.296   3.289 -0.5495  0.9131  2.0504
 5771TIP3    H238729   2.973   1.200   3.292 -0.9315  0.1595 -1.7899
 5772TIP3   OH238730   0.431   4.994   0.724 -0.2175 -0.1040 -0.2198
 5772TIP3    H138731   0.367   4.986   0.794 -1.4346 -1.1191 -1.3947
 5772TIP3    H238732   0.452   4.904   0.700 -0.1330  0.2134 -1.4204
 5773TIP3   OH238733   3.119   5.975   4.369  0.6911  0.1839  0.3017
 5773TIP3    H138734   3.155   5.891   4.395  2.2480  0.0734 -1.9853
 5773TIP3    H238735   3.191   6.019   4.324 -1.3614  0.8808 -2.5157
 5774TIP3   OH238736   0.037   3.867   0.083  0.5101 -0.3542  0.7164
 5774TIP3    H138737   0.003   3.918   0.156 -2.0148 -2.0925  0.8722
 5774TIP3    H238738   0.066   3.785   0.121 -1.2016 -1.4440 -0.2043
 5775TIP3   OH238739   4.982   4.688   1.722  0.0674 -0.0635 -0.4431
 5775TIP3    H138740   4.904   4.720   1.676  0.3750 -0.5039 -1.2774
 5775TIP3    H238741   5.048   4.755   1.706  0.2951 -0.4159 -0.9975
 5776TIP3   OH238742   6.470   1.576  14.449  0.2041  0.3367 -0.3807
 5776TIP3    H138743   6.380   1.593  14.475  0.0850 -0.6528 -0.1417
 5776TIP3    H238744   6.519   1.574  14.531  0.0280 -1.5751 -0.2860
 5777TIP3   OH238745   0.600   1.645   4.349  0.1147  0.3070  0.0787
 5777TIP3    H138746   0.514   1.677   4.323  0.6052  0.3046 -1.6764
 5777TIP3    H238747   0.582   1.576   4.412 -1.4371 -2.1460 -2.7768
 5778TIP3   OH238748   5.343   4.187   5.792 -0.3454  0.5061  0.5357
 5778TIP3    H138749   5.313   4.107   5.748 -1.7450  0.3159  1.7652
 5778TIP3    H238750   5.304   4.257   5.740  0.6234  0.4128 -0.3591
 5779TIP3   OH238751   4.024   1.768   3.814  0.2054 -0.3370  0.5216
 5779TIP3    H138752   4.097   1.732   3.864  0.5175 -2.4094 -1.2835
 5779TIP3    H238753   4.061   1.844   3.769  0.7961 -0.4079  0.8756
 5780TIP3   OH238754   2.860   2.211  17.166  0.3304  0.1661  0.1490
 5780TIP3    H138755   2.873   2.184  17.075  0.1769  1.4065 -0.2568
 5780TIP3    H238756   2.838   2.304  17.161  1.8143  0.6326  1.5667
 5781TIP3   OH238757   0.935   1.465   3.400 -0.0129  0.5227  0.2194
 5781TIP3    H138758   0.990   1.391   3.375 -1.1449 -0.0949 -0.5753
 5781TIP3    H238759   0.869   1.428   3.458 -2.0049  0.3243 -1.9806
 5782TIP3   OH238760   4.959   1.861  13.390  0.1435  0.1470  0.5266
 5782TIP3    H138761   4.972   1.812  13.309  2.4682  1.0625  0.2929
 5782TIP3    H238762   4.881   1.914  13.374 -0.4563 -0.9647 -0.4191
 5783TIP3   OH238763   5.649   3.462  16.380  0.1916 -0.3475 -0.5875
 5783TIP3    H138764   5.573   3.517  16.363  0.0667 -0.9746 -2.1445
 5783TIP3    H238765   5.647   3.447  16.475  0.2472  2.3299 -0.0892
 5784TIP3   OH238766   0.945   1.259   0.724  0.1179  0.0575 -0.2241
 5784TIP3    H138767   1.039   1.276   0.725  0.2027 -0.3172 -0.9584
 5784TIP3    H238768   0.936   1.166   0.743 -0.0716 -0.0061 -0.6067
 5785TIP3   OH238769   2.877   5.794   2.752  0.5707  0.3192 -0.2384
 5785TIP3    H138770   2.813   5.810   2.682  0.2348  2.2241  0.4431
 5785TIP3    H238771   2.836   5.727   2.807 -0.8647  1.4668  0.1529
 5786TIP3   OH238772   1.874   3.827  17.175  0.7282  0.2520 -0.1220
 5786TIP3    H138773   1.959   3.870  17.163  1.4633 -0.7195  1.2641
 5786TIP3    H238774   1.865   3.819  17.270 -2.1001  2.5822 -0.0860
 5787TIP3   OH238775   1.892   4.865   5.160  0.3124  0.3524 -0.6008
 5787TIP3    H138776   1.905   4.883   5.067 -1.6208 -3.5932 -1.8736
 5787TIP3    H238777   1.972   4.819   5.187  0.8634  1.4760 -0.2795
 5788TIP3   OH238778   6.505   2.439  12.630  0.3594  0.1362  0.1152
 5788TIP3    H138779   6.543   2.492  12.560 -0.0668 -0.0334 -0.2459
 5788TIP3    H238780   6.563   2.454  12.705  1.6401 -0.7663 -0.6489
 5789TIP3   OH238781   4.521   5.453  14.365 -0.0620  0.2446 -0.2466
 5789TIP3    H138782   4.513   5.368  14.408  0.3428  1.1142  1.6196
 5789TIP3    H238783   4.437   5.496  14.380  0.4637  0.9843  0.6846
 5790TIP3   OH238784   4.628   5.672  12.934 -0.1047  0.1126 -0.6400
 5790TIP3    H138785   4.718   5.660  12.904  0.4322  1.7681  0.1988
 5790TIP3    H238786   4.574   5.650  12.858  1.0302 -0.3014 -1.3456
 5791TIP3   OH238787   5.620   5.854  15.520  0.2681  0.6015  0.7566
 5791TIP3    H138788   5.575   5.835  15.438  0.5144  2.1417  0.2167
 5791TIP3    H238789   5.550   5.870  15.583  0.0430 -2.4099  1.3878
 5792TIP3   OH238790   3.237   2.183   2.260 -0.1942  0.2121  0.4404
 5792TIP3    H138791   3.291   2.114   2.221 -0.3261  0.0797  0.4921
 5792TIP3    H238792   3.185   2.139   2.327  0.7736  0.6186  1.4930
 5793TIP3   OH238793   2.305   4.988  12.665  0.7028  0.0949 -0.0496
 5793TIP3    H138794   2.240   5.048  12.701  1.5825  1.1345 -0.1652
 5793TIP3    H238795   2.362   5.042  12.612  1.2026 -0.9392 -0.6067
 5794TIP3   OH238796   4.609   1.088   2.671 -0.3049 -0.1290  0.4180
 5794TIP3    H138797   4.602   0.994   2.654  0.5389 -0.3661  1.2932
 5794TIP3    H238798   4.655   1.094   2.755 -0.3948  1.0681  0.4019
 5795TIP3   OH238799   3.328   2.756  16.243 -0.4765  0.0422  0.3325
 5795TIP3    H138800   3.276   2.696  16.190  0.1305 -1.7310  1.6701
 5795TIP3    H238801   3.370   2.814  16.180 -1.0072 -0.9986 -1.0068
 5796TIP3   OH238802   5.085   5.301   6.112  0.1235 -0.0644  0.0690
 5796TIP3    H138803   5.176   5.332   6.113 -0.2573  1.1434  1.3873
 5796TIP3    H238804   5.034   5.380   6.094 -0.6647 -0.8246 -1.1591
 5797TIP3   OH238805   3.868   4.457   3.511 -0.1985 -0.0658 -0.2625
 5797TIP3    H138806   3.920   4.376   3.507 -1.9258 -1.2253 -0.2385
 5797TIP3    H238807   3.879   4.489   3.601 -1.0314 -1.3726  0.3360
 5798TIP3   OH238808   2.372   2.857  12.535 -0.0007 -0.0709 -0.2404
 5798TIP3    H138809   2.396   2.929  12.593  2.0334  0.1764 -1.3073
 5798TIP3    H238810   2.378   2.779  12.590 -0.7441  0.3994  0.5314
 5799TIP3   OH238811   6.308   2.191   5.748 -0.0747 -0.3381  0.0181
 5799TIP3    H138812   6.215   2.207   5.761 -0.5014 -2.7715  0.4207
 5799TIP3    H238813   6.324   2.212   5.656 -0.9746  0.2478 -0.0090
 5800TIP3   OH238814   1.687   1.739  11.729 -0.0168  0.0122  0.2337
 5800TIP3    H138815   1.689   1.770  11.639 -0.5534  0.8789  0.4977
 5800TIP3    H238816   1.676   1.819  11.781 -1.2816 -0.6124  0.9644
 5801TIP3   OH238817   2.132   4.781  13.608 -0.4127  0.1192  0.4005
 5801TIP3    H138818   2.186   4.732  13.546  0.2440  0.8541  0.3678
 5801TIP3    H238819   2.086   4.715  13.659 -1.1802 -0.5174 -1.0477
 5802TIP3   OH238820   0.861   5.001   5.247 -0.0858  0.8577  0.0556
 5802TIP3    H138821   0.771   4.969   5.253  0.3784 -0.6907 -0.6277
 5802TIP3    H238822   0.874   5.017   5.153  1.1709 -1.6501 -0.2916
 5803TIP3   OH238823   6.726   5.188   0.262 -0.2625  0.2940 -0.5849
 5803TIP3    H138824   6.686   5.143   0.337 -0.0878 -1.0065 -1.2415
 5803TIP3    H238825   6.820   5.179   0.277 -0.2073 -1.0777 -1.5523
 5804TIP3   OH238826   0.266   4.378   0.647  0.0888  0.2649  0.3550
 5804TIP3    H138827   0.291   4.416   0.731 -0.0404 -0.4625  0.7281
 5804TIP3    H238828   0.205   4.307   0.669 -0.6635  0.6507 -0.4078
 5805TIP3   OH238829   3.290   3.374  16.410 -0.4080  0.2192  0.2048
 5805TIP3    H138830   3.210   3.382  16.461  0.0055 -0.0269  0.8989
 5805TIP3    H238831   3.331   3.293  16.441 -0.6598 -0.5039 -1.2544
 5806TIP3   OH238832   5.727   4.719   4.194  0.4197 -0.0638  0.8227
 5806TIP3    H138833   5.640   4.678   4.188  0.6167 -0.9397  2.9475
 5806TIP3    H238834   5.784   4.648   4.224  1.7892  0.6348 -0.0345
 5807TIP3   OH238835   4.980   0.123   4.070 -0.7408  0.1037  0.5222
 5807TIP3    H138836   4.888   0.140   4.050 -0.8675 -0.5597  0.5222
 5807TIP3    H238837   4.978   0.077   4.154 -0.3826  0.4288  0.7102
 5808TIP3   OH238838   6.386   1.967  14.157  0.0632 -0.3502  0.0540
 5808TIP3    H138839   6.402   1.873  14.161  0.3339 -0.2881  0.5105
 5808TIP3    H238840   6.441   2.004  14.226  0.7306  0.2481 -0.7626
 5809TIP3   OH238841   4.064   1.353   1.005 -0.1082 -0.4932  0.0002
 5809TIP3    H138842   4.037   1.400   0.925  0.5602 -0.1168 -0.0154
 5809TIP3    H238843   4.011   1.392   1.074 -0.6594 -0.7877 -0.2498
 5810TIP3   OH238844   3.233   1.025  12.318  0.3769 -0.6579 -0.0201
 5810TIP3    H138845   3.290   0.948  12.316 -0.0289 -0.9522 -0.9671
 5810TIP3    H238846   3.166   1.003  12.382 -0.3961 -1.6120 -1.0937
 5811TIP3   OH238847   4.655   4.198  15.520 -0.4401 -0.2182 -0.2195
 5811TIP3    H138848   4.563   4.224  15.524 -0.7176 -1.2432  2.0644
 5811TIP3    H238849   4.653   4.108  15.486 -0.4078 -0.6211  0.8129
 5812TIP3   OH238850   4.843   6.303   4.036  0.4677  0.1331 -0.5508
 5812TIP3    H138851   4.868   6.229   4.091 -0.0735 -0.6249 -1.3016
 5812TIP3    H238852   4.923   6.355   4.028  1.2907 -1.1635 -1.2291
 5813TIP3   OH238853   0.344   4.263   5.980 -0.4026 -0.1356  0.0459
 5813TIP3    H138854   0.432   4.284   6.011 -0.7881 -0.5873  1.5208
 5813TIP3    H238855   0.337   4.309   5.896  0.4209  1.7758  0.9624
 5814TIP3   OH238856   3.322   0.478  15.921  0.1760 -0.1075  0.1472
 5814TIP3    H138857   3.342   0.569  15.945 -2.7373  0.7450 -0.3410
 5814TIP3    H238858   3.408   0.436  15.913  1.6798  2.8512 -0.6247
 5815TIP3   OH238859   4.614   2.928  15.950 -0.4881  0.1247  0.4461
 5815TIP3    H138860   4.662   2.915  16.032 -0.0026  2.6910  0.6811
 5815TIP3    H238861   4.666   2.881  15.885 -0.1143 -0.8210  1.3982
 5816TIP3   OH238862   2.416   2.659   0.595  0.9020 -0.3165 -0.5092
 5816TIP3    H138863   2.347   2.711   0.637  1.1530 -1.4974  1.4475
 5816TIP3    H238864   2.476   2.725   0.559  1.0889  0.8081  1.6957
 5817TIP3   OH238865   5.243   2.787  13.590 -0.6569 -0.2531  0.2866
 5817TIP3    H138866   5.196   2.803  13.672 -2.0641  0.1676 -0.5524
 5817TIP3    H238867   5.178   2.807  13.522  1.2492  2.0669 -0.9967
 5818TIP3   OH238868   5.503   2.885  13.664 -0.1803 -0.5958  0.2001
 5818TIP3    H138869   5.496   2.868  13.758 -1.7663 -0.6488  0.0953
 5818TIP3    H238870   5.423   2.848  13.626  0.1464 -0.0448 -1.0949
 5819TIP3   OH238871   1.489   5.848   3.820  0.7631 -0.2058 -0.1445
 5819TIP3    H138872   1.522   5.782   3.882  0.1166  0.3121  0.7706
 5819TIP3    H238873   1.568   5.883   3.778  1.0657 -2.3161 -1.4757
 5820TIP3   OH238874   2.918   0.873  11.597 -0.5852 -0.2125  0.0283
 5820TIP3    H138875   2.896   0.894  11.688  0.4477  0.9433  0.0233
 5820TIP3    H238876   2.957   0.953  11.562 -1.1005 -0.5885 -1.4914
 5821TIP3   OH238877   2.853   0.893  13.268 -0.6079  0.3691  0.1501
 5821TIP3    H138878   2.860   0.833  13.194  0.7617 -1.2749  1.5317
 5821TIP3    H238879   2.922   0.865  13.328 -2.4246  0.8560  2.5922
 5822TIP3   OH238880   0.670   5.168   5.034 -0.1303 -0.1941 -0.2215
 5822TIP3    H138881   0.752   5.125   5.058 -0.1341  0.1682  0.4597
 5822TIP3    H238882   0.693   5.226   4.962  0.0970 -0.5097 -0.4032
 5823TIP3   OH238883   5.835   5.510   3.170 -0.2159 -0.4359  0.6863
 5823TIP3    H138884   5.789   5.566   3.232  0.7780  1.0653  0.1240
 5823TIP3    H238885   5.911   5.478   3.219  0.3962  0.4915  0.3598
 5824TIP3   OH238886   2.042   4.038  15.525 -0.0302 -0.2373  0.9209
 5824TIP3    H138887   2.106   3.990  15.578 -0.1820 -0.0886  1.2378
 5824TIP3    H238888   2.050   3.999  15.438 -0.6069 -1.2798  1.3172
 5825TIP3   OH238889   3.528   4.405   0.074 -0.0634 -0.4630 -0.3416
 5825TIP3    H138890   3.596   4.381   0.137 -1.3039  0.4369  1.4572
 5825TIP3    H238891   3.455   4.346   0.095 -0.6402  0.1310 -0.6514
 5826TIP3   OH238892   3.733   1.371   0.881 -0.4245  0.0327  0.1156
 5826TIP3    H138893   3.768   1.378   0.970  0.6320 -0.3616 -0.2636
 5826TIP3    H238894   3.663   1.436   0.878 -0.1150  0.4210  1.0706
 5827TIP3   OH238895   4.033   1.211   3.898  0.1618 -0.1300 -0.7366
 5827TIP3    H138896   4.012   1.245   3.984  0.8235  0.4213 -0.7898
 5827TIP3    H238897   4.048   1.117   3.912 -0.0469 -0.1001 -0.3156
 5828TIP3   OH238898   3.789   6.637  15.041 -0.0452 -0.0756  0.3434
 5828TIP3    H138899   3.791   6.551  15.082  1.9128 -0.8065 -1.0791
 5828TIP3    H238900   3.876   6.673  15.057 -0.8870  1.7565  1.0617
 5829TIP3   OH238901   4.499   0.106  15.051  0.1044  0.1324  0.2764
 5829TIP3    H138902   4.562   0.078  14.984 -0.8747 -0.0145 -0.6102
 5829TIP3    H238903   4.498   0.201  15.044  0.4884  0.1567  0.5371
 5830TIP3   OH238904   4.446   5.198  11.793  0.1136  0.3506 -0.0633
 5830TIP3    H138905   4.363   5.246  11.791 -0.1161  0.0507  1.3663
 5830TIP3    H238906   4.435   5.127  11.729 -0.3521  0.8886 -0.5922
 5831TIP3   OH238907   3.708   0.599  15.491 -0.6647 -0.0604  0.2311
 5831TIP3    H138908   3.703   0.692  15.465 -0.5302 -0.3664 -0.9541
 5831TIP3    H238909   3.617   0.576  15.513 -0.8385  0.1472 -0.2454
 5832TIP3   OH238910   4.558   3.718   1.435 -0.1636  0.0531  0.1886
 5832TIP3    H138911   4.617   3.704   1.361 -0.2323  1.3181 -0.1423
 5832TIP3    H238912   4.567   3.812   1.455  0.3424 -0.3812  2.2196
 5833TIP3   OH238913   4.130   6.697   5.031 -0.1488 -0.4207  0.0040
 5833TIP3    H138914   4.206   6.695   5.089 -0.8168  1.1256  0.9819
 5833TIP3    H238915   4.157   6.753   4.958 -0.3704  0.2139  0.4030
 5834TIP3   OH238916   5.212   3.713   4.575  0.0425  0.1787  0.1221
 5834TIP3    H138917   5.243   3.801   4.593 -2.6229  0.8466  2.0434
 5834TIP3    H238918   5.182   3.716   4.484  0.1720  1.1841  0.1009
 5835TIP3   OH238919   4.457   0.500  13.171 -0.2470 -0.1006 -0.2310
 5835TIP3    H138920   4.411   0.531  13.093  0.6759  1.3168 -0.2561
 5835TIP3    H238921   4.399   0.522  13.243  0.4590  1.9670 -0.2364
 5836TIP3   OH238922   1.553   1.186   4.282 -0.2720 -0.6132 -0.9835
 5836TIP3    H138923   1.591   1.239   4.352 -1.4606 -0.5785 -0.3365
 5836TIP3    H238924   1.460   1.210   4.281 -0.4695 -1.3398 -1.9067
 5837TIP3   OH238925   2.188   0.354   0.724 -0.0922  0.3734 -0.5874
 5837TIP3    H138926   2.229   0.304   0.794  1.5807  0.3587 -1.5090
 5837TIP3    H238927   2.192   0.295   0.648 -2.7718 -0.0015 -0.5178
 5838TIP3   OH238928   2.031   0.496   2.173 -0.0449 -0.0976 -0.1276
 5838TIP3    H138929   2.089   0.476   2.246 -1.5368 -0.9630  0.8742
 5838TIP3    H238930   2.079   0.561   2.120  1.2270  0.2398  1.3889
 5839TIP3   OH238931   1.716   3.171   0.117 -0.0144  0.5026 -0.1874
 5839TIP3    H138932   1.770   3.216   0.182 -0.9683  0.9047  0.3524
 5839TIP3    H238933   1.695   3.087   0.159 -1.1080  0.9970  0.2917
 5840TIP3   OH238934   3.245   2.398   3.810 -0.7323 -0.2326  0.2865
 5840TIP3    H138935   3.281   2.476   3.851  0.3887 -2.0346  3.0400
 5840TIP3    H238936   3.198   2.353   3.881 -1.5607 -1.9389 -1.2520
 5841TIP3   OH238937   2.819   5.389   5.060  0.1912 -0.0810 -0.2179
 5841TIP3    H138938   2.744   5.432   5.100  1.6338  1.2535  1.2140
 5841TIP3    H238939   2.832   5.433   4.977  0.7939  1.3705  0.6108
 5842TIP3   OH238940   0.572   3.348  13.125 -0.1985 -1.1272 -0.0063
 5842TIP3    H138941   0.505   3.401  13.081 -1.3508 -2.3927  0.1716
 5842TIP3    H238942   0.618   3.410  13.182 -1.5981 -0.3196  0.2916
 5843TIP3   OH238943   1.890   1.266  11.320  0.3947  0.2004  0.3174
 5843TIP3    H138944   1.955   1.326  11.282  0.9814 -0.0622  0.8892
 5843TIP3    H238945   1.864   1.211  11.246 -2.0238  2.6940 -0.8713
 5844TIP3   OH238946   0.011   2.079   0.021 -0.5042 -0.3823  0.4087
 5844TIP3    H138947  -0.009   2.059   0.113  0.6839  0.3594  0.8376
 5844TIP3    H238948   0.080   2.145   0.024 -0.6968 -0.0743 -1.0265
 5845TIP3   OH238949   6.264   0.865  17.089 -0.0564 -0.2573 -0.6981
 5845TIP3    H138950   6.264   0.876  16.994  0.3191 -0.1504 -0.6863
 5845TIP3    H238951   6.222   0.780  17.103 -1.5026  0.3869 -0.8797
 5846TIP3   OH238952   6.460   3.851  13.249 -0.6763  0.4520  0.5098
 5846TIP3    H138953   6.435   3.890  13.166  0.5550 -0.7113 -0.4505
 5846TIP3    H238954   6.413   3.768  13.252  1.3812 -0.8229 -0.3924
 5847TIP3   OH238955   0.556   4.084   3.606 -0.1675  0.1782  0.3572
 5847TIP3    H138956   0.566   4.027   3.530 -1.0796  0.8444 -0.2872
 5847TIP3    H238957   0.642   4.123   3.618 -0.0534  0.2016 -0.4570
 5848TIP3   OH238958   2.582   5.941   0.201 -0.4558 -0.9472 -0.0306
 5848TIP3    H138959   2.572   5.859   0.250  2.4293 -0.8433  0.9167
 5848TIP3    H238960   2.493   5.966   0.178 -1.4771 -4.0022  0.1978
 5849TIP3   OH238961   0.178   4.492  15.645 -0.1443 -0.1862  0.4376
 5849TIP3    H138962   0.089   4.505  15.611  0.3943  0.8877 -0.6458
 5849TIP3    H238963   0.230   4.561  15.604  0.9839 -0.0926  1.9126
 5850TIP3   OH238964   3.066   5.757   2.098 -0.4322  0.5954 -0.2777
 5850TIP3    H138965   3.127   5.827   2.124 -0.6741  0.3324  1.1190
 5850TIP3    H238966   2.994   5.764   2.161 -1.5474  0.4837 -1.4996
 5851TIP3   OH238967   4.260   2.593   1.127  0.2173  0.0223  0.3546
 5851TIP3    H138968   4.316   2.611   1.052 -0.4969 -0.3610 -0.2843
 5851TIP3    H238969   4.252   2.677   1.172  1.7698 -0.0398  0.8044
 5852TIP3   OH238970   4.901   3.317   2.166 -0.5093  0.4146  0.2085
 5852TIP3    H138971   4.971   3.354   2.112  0.7957 -1.5731  0.4644
 5852TIP3    H238972   4.946   3.277   2.240 -1.8876 -0.9653  0.3525
 5853TIP3   OH238973   3.154   6.593   5.749  0.0577 -0.0286  0.5704
 5853TIP3    H138974   3.083   6.551   5.797 -0.6799  1.7172  1.0928
 5853TIP3    H238975   3.130   6.686   5.747  0.3488  0.0999 -2.6467
 5854TIP3   OH238976   4.640   0.955   3.996 -0.1032  0.1230 -0.8859
 5854TIP3    H138977   4.632   0.871   4.040 -0.2503  0.3430 -0.4867
 5854TIP3    H238978   4.734   0.971   3.989 -0.0864  0.5608  0.2605
 5855TIP3   OH238979   4.314   0.390   0.186  0.0834  0.3015 -0.0357
 5855TIP3    H138980   4.258   0.453   0.141  0.4775  0.0154 -0.9536
 5855TIP3    H238981   4.254   0.337   0.238 -0.3006  1.1283  0.3901
 5856TIP3   OH238982   5.816   2.084   5.032  0.0016  0.3547  0.0687
 5856TIP3    H138983   5.903   2.110   5.061 -0.1214  0.6743  0.1688
 5856TIP3    H238984   5.803   2.130   4.949 -0.0684  0.3068  0.0524
 5857TIP3   OH238985   1.560   4.585  16.282 -0.5586  0.0978  0.3748
 5857TIP3    H138986   1.537   4.646  16.212  0.6797 -1.1710 -1.2197
 5857TIP3    H238987   1.561   4.499  16.240  2.3239 -0.4793  1.3643
 5858TIP3   OH238988   1.264   0.791  13.646 -0.5399 -0.1140 -0.2634
 5858TIP3    H138989   1.336   0.795  13.583  1.7303 -0.4820  2.1307
 5858TIP3    H238990   1.238   0.699  13.648  1.9383 -0.8928  1.8419
 5859TIP3   OH238991   1.396   2.625  13.894 -0.6829 -0.6490  0.2006
 5859TIP3    H138992   1.384   2.720  13.892  0.5485 -0.4594  0.6529
 5859TIP3    H238993   1.412   2.604  13.986  0.0349 -1.1408 -0.0162
 5860TIP3   OH238994   1.063   2.252  16.821 -0.0247 -0.2415 -0.3860
 5860TIP3    H138995   1.091   2.343  16.829 -0.2945 -0.0120 -1.8162
 5860TIP3    H238996   0.972   2.253  16.852  0.0476 -0.0867 -0.1702
 5861TIP3   OH238997   1.410   6.329   6.426  0.1190  0.1009  0.2589
 5861TIP3    H138998   1.319   6.355   6.412 -0.7077 -1.6988  1.8552
 5861TIP3    H238999   1.427   6.351   6.518  1.6288  1.2403 -0.2496
 5862TIP3   OH239000   4.831   6.707   2.727 -0.8757  0.2190 -0.1117
 5862TIP3    H139001   4.773   6.772   2.766 -0.8928 -0.4467  1.0280
 5862TIP3    H239002   4.782   6.625   2.731  0.0919 -0.3429  0.8279
 5863TIP3   OH239003   3.969   4.911  17.238 -0.5598  0.3123  0.3572
 5863TIP3    H139004   4.038   4.929  17.175 -1.0636 -0.5834 -0.4652
 5863TIP3    H239005   3.890   4.947  17.198 -1.0847 -1.2509 -0.0619
 5864TIP3   OH239006   5.384   1.862   4.320 -0.1614 -0.4933 -0.8900
 5864TIP3    H139007   5.324   1.890   4.251 -1.7623  0.2389  0.6911
 5864TIP3    H239008   5.471   1.885   4.288 -0.8757  0.0976 -2.5189
 5865TIP3   OH239009   0.717   3.463   0.789 -0.7678  0.3754 -0.1276
 5865TIP3    H139010   0.809   3.449   0.769 -0.6389 -2.8729  2.0097
 5865TIP3    H239011   0.673   3.466   0.704  0.8188 -2.7038 -1.1780
 5866TIP3   OH239012   6.208   3.836  17.133  0.7170  0.6797 -0.0188
 5866TIP3    H139013   6.215   3.899  17.061  0.8626  1.5337  0.7338
 5866TIP3    H239014   6.299   3.813  17.154  0.6581 -0.1061 -0.5496
 5867TIP3   OH239015   0.336   5.338  15.226 -0.1575 -0.0731 -0.0499
 5867TIP3    H139016   0.420   5.335  15.181  0.0905 -1.8265  0.4414
 5867TIP3    H239017   0.275   5.372  15.161  0.6607 -0.1983 -0.9033
 5868TIP3   OH239018   2.093   6.752  12.718  0.0526  0.1451 -0.3258
 5868TIP3    H139019   2.065   6.793  12.800  0.7376 -0.8354  0.4304
 5868TIP3    H239020   2.131   6.823  12.667  0.2174  0.6589  0.4879
 5869TIP3   OH239021   0.920   6.600  17.057  0.1094 -0.2267  0.2659
 5869TIP3    H139022   0.883   6.668  17.001 -0.1609 -0.2566  0.4073
 5869TIP3    H239023   0.878   6.519  17.029  1.1104 -0.4918 -0.5265
 5870TIP3   OH239024   0.692   0.049   4.187  0.2507 -0.2998  0.0911
 5870TIP3    H139025   0.740   0.016   4.262 -0.5779 -0.6772  0.4751
 5870TIP3    H239026   0.748   0.117   4.150  0.2819  0.5115  1.5819
 5871TIP3   OH239027   4.677   3.826   0.559 -0.1706 -0.1121  0.1123
 5871TIP3    H139028   4.659   3.797   0.469  1.0881  3.8412 -1.6123
 5871TIP3    H239029   4.771   3.843   0.560 -0.4460  1.5366  1.6291
 5872TIP3   OH239030   4.385   0.620   0.462  0.3722 -0.3463 -0.5675
 5872TIP3    H139031   4.474   0.654   0.467  0.4622 -0.6087 -0.3203
 5872TIP3    H239032   4.390   0.535   0.506  0.4682 -1.3094 -2.3353
 5873TIP3   OH239033   2.726   3.037  11.013  0.3812 -0.3187 -0.0240
 5873TIP3    H139034   2.703   3.128  11.033  1.4774 -0.1532  0.5948
 5873TIP3    H239035   2.652   3.003  10.963 -0.5785  0.5593  0.7638
 5874TIP3   OH239036   0.576   3.228   3.046 -0.2643  0.5491 -0.3530
 5874TIP3    H139037   0.618   3.253   2.964 -1.3000 -0.1804 -1.1288
 5874TIP3    H239038   0.636   3.165   3.086  0.1900  0.8185 -0.6001
 5875TIP3   OH239039   1.999   5.672   4.265  0.1667  0.1990  0.0226
 5875TIP3    H139040   1.936   5.722   4.316 -0.1161 -1.2145  1.1046
 5875TIP3    H239041   2.061   5.638   4.330  0.8870 -0.0931 -0.7967
 5876TIP3   OH239042   4.760   0.415  12.394  0.0079  0.0991  0.1240
 5876TIP3    H139043   4.749   0.323  12.369  1.7460 -0.3936  0.9577
 5876TIP3    H239044   4.746   0.415  12.489  1.8907  0.3063  0.4308
 5877TIP3   OH239045   5.076   1.166  13.127 -0.0096  0.0579 -0.2606
 5877TIP3    H139046   5.015   1.106  13.085  0.4784  0.6308 -1.8697
 5877TIP3    H239047   5.160   1.149  13.084  1.2275 -1.2520  2.4164
 5878TIP3   OH239048   5.335   0.174  13.761  0.4432 -0.1903 -0.5975
 5878TIP3    H139049   5.404   0.191  13.697  1.2191 -0.1795  0.2085
 5878TIP3    H239050   5.271   0.120  13.715  0.6303  0.4066 -1.5770
 5879TIP3   OH239051   3.797   0.690   5.479  0.0568  0.4948 -0.5102
 5879TIP3    H139052   3.722   0.740   5.446 -0.6269 -0.1670 -0.0080
 5879TIP3    H239053   3.758   0.612   5.520  0.8795  1.0325  1.4001
 5880TIP3   OH239054   6.632   0.659  15.762 -0.3034 -0.3295  0.2106
 5880TIP3    H139055   6.702   0.595  15.771  1.5245  1.5859  0.4338
 5880TIP3    H239056   6.645   0.719  15.835 -2.0720  0.2051  0.1248
 5881TIP3   OH239057   5.145   2.655   5.104  0.2883  0.2740  0.2846
 5881TIP3    H139058   5.049   2.653   5.108 -0.1510 -1.8813 -4.2163
 5881TIP3    H239059   5.168   2.577   5.053  4.2465  1.9006 -0.8311
 5882TIP3   OH239060   5.767   1.209   4.277  0.0450 -0.1691 -0.4436
 5882TIP3    H139061   5.789   1.302   4.286 -1.6983  0.1831  0.7696
 5882TIP3    H239062   5.816   1.167   4.348 -0.2165  0.0506 -0.1245
 5883TIP3   OH239063   3.018   4.572  13.782 -0.2646 -0.1751 -0.4497
 5883TIP3    H139064   3.056   4.534  13.860 -2.9049  0.7086  1.4224
 5883TIP3    H239065   2.983   4.656  13.811 -2.2606 -0.2714 -2.3082
 5884TIP3   OH239066   6.611   2.255  12.015  0.3014 -0.2655  0.5031
 5884TIP3    H139067   6.561   2.250  11.934 -0.5800 -0.7081  1.0531
 5884TIP3    H239068   6.701   2.235  11.990  0.7704  3.0331 -0.9814
 5885TIP3   OH239069   5.935   4.771  16.380  0.4757  0.4173  0.5323
 5885TIP3    H139070   5.917   4.864  16.366 -0.0624  0.3925  1.0274
 5885TIP3    H239071   5.951   4.765  16.474  0.0756 -0.0624  0.5710
 5886TIP3   OH239072   2.071   3.857   0.921  0.1570  0.6127  0.8481
 5886TIP3    H139073   2.042   3.945   0.898  0.2116  0.8100  1.5170
 5886TIP3    H239074   2.140   3.837   0.857 -1.5738  0.0170 -0.9619
 5887TIP3   OH239075   1.679   4.016  12.516 -0.4108  0.1439  0.3899
 5887TIP3    H139076   1.770   4.044  12.508  0.1050 -1.4694  0.1932
 5887TIP3    H239077   1.662   4.014  12.610 -0.6971  1.7696  0.3875
 5888TIP3   OH239078   1.643   5.098   1.041  0.4148  0.8347  0.9189
 5888TIP3    H139079   1.566   5.042   1.053 -1.1436  2.6996  0.2173
 5888TIP3    H239080   1.707   5.066   1.104 -0.7977 -1.0158  1.2660
 5889TIP3   OH239081   6.531   2.502  15.821  0.0282 -0.4349 -0.1641
 5889TIP3    H139082   6.588   2.532  15.892 -1.9756 -1.2458  1.9439
 5889TIP3    H239083   6.497   2.582  15.781  0.9572  0.0400 -0.0184
 5890TIP3   OH239084   1.588   2.262  11.728  0.1057 -0.5178 -0.0309
 5890TIP3    H139085   1.631   2.259  11.814 -0.9479 -0.2144  0.5297
 5890TIP3    H239086   1.579   2.356  11.710  2.1958 -0.5384 -1.4709
 5891TIP3   OH239087   1.337   3.286  16.948 -0.2322  0.3173 -0.0413
 5891TIP3    H139088   1.405   3.325  17.004  0.7213  1.6362 -2.0153
 5891TIP3    H239089   1.255   3.309  16.992  0.4915 -0.7157  2.0250
 5892TIP3   OH239090   3.204   4.499   4.282 -0.2376  0.5560  0.2120
 5892TIP3    H139091   3.157   4.437   4.337 -0.8151  0.8299  0.0283
 5892TIP3    H239092   3.182   4.473   4.192  1.0798 -0.1931  0.0671
 5893TIP3   OH239093   1.826   4.214   4.734 -0.5335  0.0120  0.0854
 5893TIP3    H139094   1.855   4.199   4.824  0.4605  0.0060 -0.2288
 5893TIP3    H239095   1.897   4.263   4.693 -0.2157 -1.3795 -1.1458
 5894TIP3   OH239096   3.645   5.794  10.774 -0.2279 -0.6381  0.0423
 5894TIP3    H139097   3.591   5.824  10.701 -0.0055 -1.1129 -0.3197
 5894TIP3    H239098   3.711   5.738  10.734  1.1726  0.7463  0.3455
 5895TIP3   OH239099   0.571   4.700   2.157  0.2710  0.1213  0.2438
 5895TIP3    H139100   0.513   4.707   2.081 -0.7752 -2.1550  0.7508
 5895TIP3    H239101   0.560   4.610   2.187  2.9018  0.0952  1.3419
 5896TIP3   OH239102   1.702   5.223   4.973 -0.2365  0.5769 -0.2056
 5896TIP3    H139103   1.630   5.163   4.954 -0.4730  0.8987 -0.3404
 5896TIP3    H239104   1.696   5.238   5.067  0.8477 -0.9073  0.1436
 5897TIP3   OH239105   1.106   0.955   3.420  0.1765 -0.3252 -0.6426
 5897TIP3    H139106   1.110   1.050   3.410  2.0149 -0.4217 -1.3184
 5897TIP3    H239107   1.135   0.939   3.510 -2.9965 -0.1686  0.5441
 5898TIP3   OH239108   1.307   4.348   6.049 -0.0374 -0.2337 -0.0633
 5898TIP3    H139109   1.251   4.324   6.123 -1.2212  0.7410 -0.6087
 5898TIP3    H239110   1.302   4.443   6.045 -0.2330 -0.2842 -1.5849
 5899TIP3   OH239111   5.720   6.298  14.599 -0.3120  0.1159 -0.1921
 5899TIP3    H139112   5.741   6.283  14.691 -0.2587  1.2622 -0.0004
 5899TIP3    H239113   5.644   6.356  14.601 -0.3874  0.0489 -0.8737
 5900TIP3   OH239114   0.697   3.210   2.789  0.1230 -0.3245  0.5641
 5900TIP3    H139115   0.694   3.131   2.736 -0.5978 -0.2489  0.4883
 5900TIP3    H239116   0.773   3.258   2.757 -0.0973 -0.4508 -0.1578
 5901TIP3   OH239117   5.150   4.723  16.986  0.9066  0.4927 -0.0890
 5901TIP3    H139118   5.068   4.740  16.940 -0.1743 -2.5981  0.4479
 5901TIP3    H239119   5.144   4.773  17.067 -1.2726 -0.8822  0.6926
 5902TIP3   OH239120   6.568   4.547  13.486  0.1439  0.3991  0.4230
 5902TIP3    H139121   6.653   4.578  13.518 -0.6967  2.0418  1.1771
 5902TIP3    H239122   6.523   4.517  13.565 -0.5397  0.9366  0.2407
 5903TIP3   OH239123   6.018   5.538  15.580 -0.6790 -0.2195  0.1811
 5903TIP3    H139124   5.960   5.562  15.507 -1.8897  1.5168  1.6260
 5903TIP3    H239125   5.992   5.450  15.604 -0.9613 -0.4175 -0.8231
 5904TIP3   OH239126   6.265   0.680  11.843  0.3668 -0.6882  0.2100
 5904TIP3    H139127   6.320   0.669  11.920  0.0696  0.1017  0.5500
 5904TIP3    H239128   6.306   0.752  11.794  1.1998 -1.9240 -0.9719
 5905TIP3   OH239129   4.130   4.641   4.301 -0.0940 -0.3727 -0.2988
 5905TIP3    H139130   4.058   4.697   4.271  0.1675  0.5694  0.7446
 5905TIP3    H239131   4.187   4.632   4.224 -0.2105  0.7092 -0.5297
 5906TIP3   OH239132   0.108   0.455   0.818  0.2328 -0.2823  0.3816
 5906TIP3    H139133   0.175   0.454   0.749  1.2228 -0.0602  1.3179
 5906TIP3    H239134   0.106   0.546   0.848 -0.9275 -0.1545 -0.0351
 5907TIP3   OH239135   3.305   2.945  15.192 -0.4069  0.4229 -0.5518
 5907TIP3    H139136   3.266   3.031  15.174 -1.4070  0.0603 -0.2236
 5907TIP3    H239137   3.341   2.918  15.108 -0.9696  0.7387 -0.9097
 5908TIP3   OH239138   4.690   2.223   3.303 -0.1018 -0.2227 -0.3356
 5908TIP3    H139139   4.608   2.260   3.337  0.4984  1.0259 -0.1992
 5908TIP3    H239140   4.671   2.130   3.293 -1.0964 -0.2051  1.0349
 5909TIP3   OH239141   2.158   6.700   3.635  0.0589  0.0553 -0.1775
 5909TIP3    H139142   2.106   6.619   3.633 -0.8610  0.4076  3.2771
 5909TIP3    H239143   2.094   6.770   3.647  0.9880  1.2050 -1.4887
 5910TIP3   OH239144   4.058   5.162  13.586  0.2603  0.5705 -0.0639
 5910TIP3    H139145   4.010   5.145  13.667 -0.4111  0.4153 -0.4904
 5910TIP3    H239146   3.994   5.204  13.529  0.6785  0.5040 -0.5858
 5911TIP3   OH239147   1.116   1.823  11.636  0.1517  0.2532 -0.1706
 5911TIP3    H139148   1.197   1.773  11.637  0.6465  1.0087 -0.7853
 5911TIP3    H239149   1.049   1.762  11.665  0.8086 -0.6318 -0.4841
 5912TIP3   OH239150   2.384   0.626   1.918  0.5796  0.0589  0.1018
 5912TIP3    H139151   2.374   0.667   2.004  1.2136  0.2495  0.0892
 5912TIP3    H239152   2.415   0.537   1.936  2.8055  0.7470  0.0421
 5913TIP3   OH239153   0.052   2.481  15.249  0.2356 -0.4119 -0.2518
 5913TIP3    H139154   0.032   2.526  15.167 -0.2696  0.0427  0.1139
 5913TIP3    H239155   0.048   2.550  15.316 -3.2095 -1.3670  0.7212
 5914TIP3   OH239156   6.211   2.885  11.046  0.2960  0.6637 -0.5668
 5914TIP3    H139157   6.276   2.917  11.108  2.0997 -3.1215 -0.1927
 5914TIP3    H239158   6.127   2.895  11.091  1.3232  0.1463  1.5606
 5915TIP3   OH239159   0.781   4.210  12.499  0.1652  0.2414  0.6927
 5915TIP3    H139160   0.809   4.154  12.572 -2.5414 -0.7185  1.1505
 5915TIP3    H239161   0.699   4.250  12.530 -1.7720 -1.1505 -2.1366
 5916TIP3   OH239162   0.521   0.796  16.213 -0.3263 -0.8171 -0.5772
 5916TIP3    H139163   0.562   0.772  16.296  1.0257 -0.1383 -1.0045
 5916TIP3    H239164   0.430   0.812  16.234 -0.1945 -1.5058  0.6032
 5917TIP3   OH239165   2.863   1.713  16.774 -0.2218 -0.1229 -0.2631
 5917TIP3    H139166   2.792   1.749  16.827  1.0528 -0.1216  1.5575
 5917TIP3    H239167   2.941   1.758  16.805  0.5086  0.6024 -2.8885
 5918TIP3   OH239168   0.917   0.735  17.224  0.0594  0.2917 -0.2699
 5918TIP3    H139169   0.843   0.677  17.205  1.6035 -1.5172 -1.1603
 5918TIP3    H239170   0.993   0.690  17.187  1.9395  1.1226  2.2586
 5919TIP3   OH239171   6.037   4.342  17.222 -0.2130 -0.4088 -0.0302
 5919TIP3    H139172   5.978   4.266  17.223  0.9914 -1.3673  0.1819
 5919TIP3    H239173   6.019   4.387  17.305 -0.0403 -1.1785  0.4331
 5920TIP3   OH239174   2.632   2.588  12.649 -0.6549  0.1446 -0.3643
 5920TIP3    H139175   2.538   2.576  12.665 -0.3769  0.1313  1.5649
 5920TIP3    H239176   2.668   2.607  12.736  0.8867  1.8189 -1.2971
 5921TIP3   OH239177   2.088   2.737  10.639 -0.8103 -0.0334  0.4407
 5921TIP3    H139178   2.176   2.699  10.642 -1.1169 -0.7147  2.0259
 5921TIP3    H239179   2.031   2.666  10.667 -1.5587  1.1308  2.0710
 5922TIP3   OH239180   0.765   5.084  12.525 -0.1765  0.7373  0.1975
 5922TIP3    H139181   0.851   5.073  12.483 -0.4551 -0.3525 -0.1163
 5922TIP3    H239182   0.783   5.081  12.618  0.0289 -0.5043  0.1349
 5923TIP3   OH239183   3.890   2.176  12.052 -0.1861  0.2835  0.0902
 5923TIP3    H139184   3.868   2.112  11.985 -1.4910 -1.5291  2.0983
 5923TIP3    H239185   3.916   2.124  12.128  0.5662  2.1999  1.2259
 5924TIP3   OH239186   5.386   3.297  11.811  0.4351 -0.8717 -0.9552
 5924TIP3    H139187   5.296   3.313  11.782  0.6665  0.7117 -0.8787
 5924TIP3    H239188   5.429   3.256  11.736 -0.3027 -1.4794 -1.0509
 5925TIP3   OH239189   0.379   2.315  11.816  0.1669 -0.3750  0.2436
 5925TIP3    H139190   0.401   2.290  11.905  1.3615  0.1159  0.1022
 5925TIP3    H239191   0.365   2.232  11.770 -1.1901 -0.6188  1.0347
 5926TIP3   OH239192   4.158   3.471   2.379 -0.5442  0.0891 -0.0782
 5926TIP3    H139193   4.115   3.535   2.322 -1.9433 -0.0335  0.7686
 5926TIP3    H239194   4.120   3.487   2.466  0.3579 -0.7580  0.5053
 5927TIP3   OH239195   2.447   6.250   2.340 -0.0622 -0.0288 -0.3314
 5927TIP3    H139196   2.539   6.224   2.335  0.2138  0.2424  2.0642
 5927TIP3    H239197   2.449   6.336   2.383 -1.3446  1.0745 -2.2973
 5928TIP3   OH239198   4.936   4.404   1.490  0.4630  0.3458 -0.1958
 5928TIP3    H139199   4.842   4.419   1.485  0.6359  2.0733  0.8499
 5928TIP3    H239200   4.973   4.460   1.423  0.7569 -0.3637 -0.6370
 5929TIP3   OH239201   6.587   0.381  15.738 -0.0901  0.4747 -0.1868
 5929TIP3    H139202   6.671   0.418  15.762  0.2791  0.4717 -1.4388
 5929TIP3    H239203   6.524   0.427  15.794  0.7771  0.0110  1.2382
 5930TIP3   OH239204   5.595   5.498  15.145 -0.2406 -0.3106 -0.2761
 5930TIP3    H139205   5.596   5.593  15.161 -0.3641 -0.5225  1.1555
 5930TIP3    H239206   5.503   5.478  15.128 -0.8875 -0.6376  2.9499
 5931TIP3   OH239207   4.160   4.731  12.345  0.0795 -0.0878  0.2420
 5931TIP3    H139208   4.107   4.771  12.276  0.6305  0.8639  0.3493
 5931TIP3    H239209   4.169   4.640  12.319 -2.5654 -0.5911  0.7927
 5932TIP3   OH239210   1.827   2.217   3.841  0.7824 -0.5650 -0.2833
 5932TIP3    H139211   1.742   2.216   3.797 -0.8996 -1.4927  2.7155
 5932TIP3    H239212   1.829   2.300   3.889  1.2080 -0.8775  0.2591
 5933TIP3   OH239213   6.448   2.010  16.490  0.9983  0.8860 -0.8704
 5933TIP3    H139214   6.422   2.103  16.496 -1.1516  0.3562 -0.9382
 5933TIP3    H239215   6.519   2.001  16.553 -0.2589  2.1180  0.8311
 5934TIP3   OH239216   6.437   6.499   0.228  0.3714 -0.1398  0.0596
 5934TIP3    H139217   6.465   6.495   0.319 -0.3855  0.2357  0.3163
 5934TIP3    H239218   6.518   6.515   0.179  0.8020 -0.5042  0.6470
 5935TIP3   OH239219   6.191   6.398  17.010 -0.2536 -0.7231  0.1732
 5935TIP3    H139220   6.107   6.368  16.975 -0.2468 -0.6019  0.0490
 5935TIP3    H239221   6.202   6.485  16.972 -0.9279  0.0248  1.6122
 5936TIP3   OH239222   6.262   4.304  14.402  0.0042  0.2024  0.3210
 5936TIP3    H139223   6.285   4.303  14.309 -1.2079  1.7490 -0.0273
 5936TIP3    H239224   6.346   4.305  14.447  0.6068 -0.3977 -0.7440
 5937TIP3   OH239225   1.879   0.143  13.258 -0.2233  0.0107  0.4493
 5937TIP3    H139226   1.844   0.055  13.241 -1.0421  0.5668 -0.9592
 5937TIP3    H239227   1.972   0.136  13.239 -0.4524 -0.3461 -0.6481
 5938TIP3   OH239228   5.071   3.728   0.140 -1.1961 -0.0456  0.5546
 5938TIP3    H139229   5.166   3.716   0.152 -1.2250 -2.7426 -1.0911
 5938TIP3    H239230   5.036   3.726   0.229  0.2295  0.2095  1.1517
 5939TIP3   OH239231   3.515   0.360  14.742  0.1793  0.4047 -0.1725
 5939TIP3    H139232   3.515   0.300  14.667 -2.1943 -0.3669  0.3554
 5939TIP3    H239233   3.467   0.312  14.810 -0.5555  2.3373  0.7316
 5940TIP3   OH239234   4.279   5.013  11.283  0.0802 -0.0909 -0.3963
 5940TIP3    H139235   4.208   5.071  11.257  0.9514  0.9147 -0.6115
 5940TIP3    H239236   4.237   4.928  11.297 -0.8933  0.0467 -2.1786
 5941TIP3   OH239237   5.219   4.982  12.820 -0.8439 -0.0643 -0.0537
 5941TIP3    H139238   5.298   4.965  12.770 -0.2009  0.6675  0.6792
 5941TIP3    H239239   5.248   4.982  12.911 -1.9656 -1.2513  0.3371
 5942TIP3   OH239240   2.035   1.161  15.830 -0.2239 -0.1196  0.0465
 5942TIP3    H139241   2.010   1.245  15.869 -1.0475 -1.2810  2.2657
 5942TIP3    H239242   1.961   1.103  15.851  0.7783 -1.6477 -0.4929
 5943TIP3   OH239243   4.096   5.222   4.019  0.6042 -0.7990 -0.3190
 5943TIP3    H139244   4.034   5.278   4.067  2.0817  0.8726 -0.2738
 5943TIP3    H239245   4.131   5.163   4.086  0.4370 -0.4965  0.0409
 5944TIP3   OH239246   6.357   6.099   3.665  0.0235  0.5442  0.0737
 5944TIP3    H139247   6.298   6.086   3.591 -1.2140  1.6858  0.8077
 5944TIP3    H239248   6.310   6.060   3.740  1.0374 -0.1701  0.3616
 5945TIP3   OH239249   5.918   0.622  13.656  0.5679 -0.3403 -0.0094
 5945TIP3    H139250   5.993   0.573  13.689  1.6871  2.3714  1.8853
 5945TIP3    H239251   5.953   0.673  13.583  0.4939  0.5929  0.5923
 5946TIP3   OH239252   0.065   3.791  16.678  0.4610 -0.2708 -0.0754
 5946TIP3    H139253   0.137   3.728  16.673  1.4110  0.7273  0.5753
 5946TIP3    H239254   0.090   3.860  16.617  0.8113  0.8054  1.2424
 5947TIP3   OH239255   3.811   3.837  11.980  0.2190 -0.3733 -0.6077
 5947TIP3    H139256   3.734   3.781  11.969  0.7741 -1.1310 -0.7171
 5947TIP3    H239257   3.856   3.800  12.057  0.2983  0.2676 -0.3433
 5948TIP3   OH239258   3.195   5.289   0.453  0.6818  0.0760 -0.3461
 5948TIP3    H139259   3.236   5.224   0.510  0.3607  1.3059  1.3864
 5948TIP3    H239260   3.264   5.351   0.434  0.5469  0.1876 -0.4726
 5949TIP3   OH239261   5.505   3.483  15.509 -0.4961  0.1935 -0.2586
 5949TIP3    H139262   5.472   3.414  15.567 -1.0633  0.7580  0.1149
 5949TIP3    H239263   5.447   3.558  15.526 -2.5256 -0.4215 -3.5328
 5950TIP3   OH239264   5.235   6.423  12.524 -0.2039 -0.1360 -0.1031
 5950TIP3    H139265   5.260   6.357  12.588  0.7264  0.0776 -0.2428
 5950TIP3    H239266   5.247   6.506  12.570 -1.0842 -0.0364 -0.0285
 5951TIP3   OH239267   4.767   3.672   5.534  0.2939 -0.3735  0.4083
 5951TIP3    H139268   4.745   3.763   5.554 -0.5405 -0.9524  2.3890
 5951TIP3    H239269   4.683   3.629   5.518  0.8212 -0.2806 -3.4523
 5952TIP3   OH239270   2.355   0.384  13.246  0.3377  0.2393  0.2829
 5952TIP3    H139271   2.330   0.386  13.153  1.0107 -0.2482  0.0820
 5952TIP3    H239272   2.281   0.342  13.290 -0.8279  2.1872  0.2598
 5953TIP3   OH239273   1.859   2.034   1.091 -0.9499 -0.3394 -0.1441
 5953TIP3    H139274   1.777   2.077   1.117  0.1915  1.3556  0.8703
 5953TIP3    H239275   1.919   2.107   1.073  0.7280 -1.5288  0.4672
 5954TIP3   OH239276   0.234   3.067   0.677  0.5001 -0.2341 -0.1689
 5954TIP3    H139277   0.219   3.093   0.586 -2.1518 -1.0263 -0.0368
 5954TIP3    H239278   0.191   3.135   0.729 -0.6733 -1.3494  0.3630
 5955TIP3   OH239279   2.642   3.624   4.690  0.5227  0.5356  0.2469
 5955TIP3    H139280   2.661   3.679   4.614  0.1970 -0.1489 -0.3437
 5955TIP3    H239281   2.571   3.669   4.735 -0.3721  0.1425 -0.7397
 5956TIP3   OH239282   5.230   5.649   4.247  0.6346  0.0213  0.0622
 5956TIP3    H139283   5.188   5.640   4.161  0.5352 -1.2690  0.2188
 5956TIP3    H239284   5.166   5.613   4.309  1.7716 -1.6508  0.3424
 5957TIP3   OH239285   3.102   6.455  16.363  0.0776 -0.3836 -0.4083
 5957TIP3    H139286   3.032   6.442  16.427 -0.1319 -1.4763 -0.8221
 5957TIP3    H239287   3.085   6.388  16.297  2.1377 -1.4164  0.0305
 5958TIP3   OH239288   2.290   4.221  12.408  0.2835  0.0501 -0.7981
 5958TIP3    H139289   2.245   4.217  12.323 -0.1083 -0.5970 -0.5591
 5958TIP3    H239290   2.274   4.310  12.439 -0.3532  0.0062 -0.9812
 5959TIP3   OH239291   5.431   3.798   4.032 -0.0052 -0.2875  0.2739
 5959TIP3    H139292   5.407   3.755   3.950 -0.6561  1.7298 -0.6312
 5959TIP3    H239293   5.388   3.883   4.029 -0.4414 -0.3371  2.9420
 5960TIP3   OH239294   2.671   0.095   0.930 -0.4072  0.6404  0.0891
 5960TIP3    H139295   2.598   0.032   0.935 -0.6296  0.9332  0.7284
 5960TIP3    H239296   2.704   0.099   1.020  0.1289  0.8342 -0.1146
 5961TIP3   OH239297   4.156   2.823   4.549  0.2130  0.3948  0.3795
 5961TIP3    H139298   4.140   2.917   4.540 -0.3349  0.2117 -0.7300
 5961TIP3    H239299   4.220   2.816   4.620 -0.2712  1.5519  0.9602
 5962TIP3   OH239300   4.292   0.839   2.179 -0.3469 -0.6942  0.5405
 5962TIP3    H139301   4.333   0.828   2.265  1.7201 -1.2490 -0.4546
 5962TIP3    H239302   4.229   0.767   2.173 -1.8868  0.4140  2.2675
 5963TIP3   OH239303   6.359   0.818  12.246 -0.8268 -0.6352 -0.0673
 5963TIP3    H139304   6.296   0.841  12.177 -0.7006 -1.5125 -0.4854
 5963TIP3    H239305   6.344   0.725  12.261 -0.5343 -0.5479  0.7700
 5964TIP3   OH239306   3.461   1.127   3.994 -0.4361  0.3699 -0.1849
 5964TIP3    H139307   3.395   1.184   3.955 -0.3507  0.4062 -0.2796
 5964TIP3    H239308   3.429   1.038   3.981 -0.0570  0.3449 -1.0007
 5965TIP3   OH239309   6.754   2.232  13.645  0.9792  0.4621 -0.5344
 5965TIP3    H139310   6.757   2.323  13.615  0.9273  0.6282 -0.0390
 5965TIP3    H239311   6.801   2.232  13.728  0.8784  0.0591 -0.4749
 5966TIP3   OH239312   3.448   0.189  10.720  0.0679  0.1525  0.3733
 5966TIP3    H139313   3.488   0.106  10.695  0.5380  0.8359 -1.2397
 5966TIP3    H239314   3.511   0.256  10.694 -1.2951  1.1393 -0.5536
 5967TIP3   OH239315   2.002   2.023   1.396  0.0607  0.1475  0.1017
 5967TIP3    H139316   1.957   1.958   1.343  0.3560  0.0246  0.0017
 5967TIP3    H239317   1.933   2.064   1.448 -0.3186  0.7334 -0.8582
 5968TIP3   OH239318   3.034   4.051   2.461  0.3080  0.2031  0.0495
 5968TIP3    H139319   3.043   3.968   2.508 -1.5958  1.1122  2.1943
 5968TIP3    H239320   3.120   4.092   2.470  1.1501 -1.3183 -0.6950
 5969TIP3   OH239321   5.722   4.305  11.155 -0.2556  0.2421 -0.0151
 5969TIP3    H139322   5.713   4.342  11.068 -0.3575  2.0157  0.7192
 5969TIP3    H239323   5.632   4.290  11.185 -0.2288 -0.0452 -0.0734
 5970TIP3   OH239324   1.014   6.738  12.192 -1.0561  0.1058  0.7576
 5970TIP3    H139325   0.993   6.683  12.268 -0.1247 -0.5694  0.5575
 5970TIP3    H239326   1.109   6.727  12.181 -1.4793 -1.8915 -2.0498
 5971TIP3   OH239327   3.980   2.787   1.711 -0.3676 -0.1359  0.4717
 5971TIP3    H139328   4.050   2.850   1.729  0.0396 -0.1311 -1.0569
 5971TIP3    H239329   4.025   2.705   1.692 -0.8619 -0.6182  1.2968
 5972TIP3   OH239330   6.358   4.174   1.985  0.2727  0.2356 -0.8658
 5972TIP3    H139331   6.447   4.145   2.006  0.0608  0.2698  0.1426
 5972TIP3    H239332   6.304   4.097   2.004 -0.0584  0.6343 -0.1696
 5973TIP3   OH239333   5.016   6.105   1.542 -0.0061  0.2850  0.4836
 5973TIP3    H139334   4.924   6.093   1.517 -1.2201  4.6975  1.9610
 5973TIP3    H239335   5.016   6.096   1.637  0.7641  1.6438  0.6333
 5974TIP3   OH239336   0.203   5.672  12.227  0.5756  0.0364 -0.2543
 5974TIP3    H139337   0.117   5.681  12.268 -1.3411  2.1093 -4.1220
 5974TIP3    H239338   0.199   5.586  12.183  0.3913  0.1833 -0.5315
 5975TIP3   OH239339   6.548   4.274   1.741 -0.2058 -0.3669  0.5843
 5975TIP3    H139340   6.495   4.199   1.714 -1.3131  1.1303 -1.7378
 5975TIP3    H239341   6.589   4.304   1.660  1.7339  0.4327  1.7984
 5976TIP3   OH239342   1.765   2.159   4.464  0.4231 -0.2726 -0.1506
 5976TIP3    H139343   1.820   2.121   4.533 -1.0373 -2.3397 -0.0373
 5976TIP3    H239344   1.694   2.096   4.452  0.3856  0.2015 -3.2885
 5977TIP3   OH239345   3.229   5.301  14.590 -0.6291 -0.0960 -0.1264
 5977TIP3    H139346   3.183   5.293  14.673 -1.0788  1.2799 -0.2163
 5977TIP3    H239347   3.322   5.296  14.614 -0.7641 -0.2151  0.3866
 5978TIP3   OH239348   2.491   5.432  13.350 -0.4550 -0.5550  0.4699
 5978TIP3    H139349   2.572   5.386  13.373 -0.4008  0.1818  1.8234
 5978TIP3    H239350   2.481   5.416  13.256  2.6890  1.4872 -0.3714
 5979TIP3   OH239351   2.496   1.228  16.644  0.5431  0.9465 -0.6267
 5979TIP3    H139352   2.469   1.136  16.646 -1.6861  1.5468  0.8124
 5979TIP3    H239353   2.554   1.237  16.720  1.7903  0.4796 -1.5041
 5980TIP3   OH239354   3.375   2.847  14.930  0.2884 -0.4181 -0.3825
 5980TIP3    H139355   3.292   2.826  14.888  0.3456  0.7692 -1.1310
 5980TIP3    H239356   3.438   2.852  14.858  0.6496  0.3901 -0.0186
 5981TIP3   OH239357   4.284   0.954  15.661 -0.4961  0.4607  0.2469
 5981TIP3    H139358   4.269   0.864  15.689  0.1022  0.3573  0.2474
 5981TIP3    H239359   4.349   0.988  15.724 -1.6833  1.3106  1.0583
 5982TIP3   OH239360   2.407   5.998  11.257  0.3593  0.5895  0.4012
 5982TIP3    H139361   2.433   5.929  11.318 -1.2561  0.0311  0.5270
 5982TIP3    H239362   2.337   6.045  11.303 -1.4526 -0.3286 -1.2500
 5983TIP3   OH239363   3.217   0.931  10.783  0.0212 -0.5571 -0.0963
 5983TIP3    H139364   3.122   0.922  10.790 -0.1652  0.7988 -0.5883
 5983TIP3    H239365   3.244   0.971  10.866  0.0587 -0.2639 -0.2475
 5984TIP3   OH239366   5.880   4.554  15.227  0.8673  0.0354  0.0002
 5984TIP3    H139367   5.864   4.459  15.227 -2.1572  0.4162  0.9369
 5984TIP3    H239368   5.899   4.575  15.135 -1.3371 -1.1404 -0.8049
 5985TIP3   OH239369   5.050   3.741  16.580 -0.6381 -0.0552  0.3999
 5985TIP3    H139370   5.048   3.837  16.579  2.0001  0.0906  0.1840
 5985TIP3    H239371   5.012   3.717  16.665 -0.0440  1.2940  1.0820
 5986TIP3   OH239372   6.292   2.267   4.523  0.1947  0.4376  0.1702
 5986TIP3    H139373   6.368   2.209   4.529  1.9105  2.5693  0.5547
 5986TIP3    H239374   6.303   2.313   4.440 -1.7428 -0.5126 -0.6769
 5987TIP3   OH239375   1.696   1.260  12.771 -0.0607  0.2259  0.9136
 5987TIP3    H139376   1.637   1.260  12.847 -1.1275 -0.6746  0.1176
 5987TIP3    H239377   1.783   1.252  12.809 -0.5336  0.3354  2.0760
 5988TIP3   OH239378   1.874   5.220  15.247 -0.1740 -0.1633 -0.0949
 5988TIP3    H139379   1.891   5.247  15.157 -1.7772  0.3412 -0.2818
 5988TIP3    H239380   1.851   5.127  15.240 -1.7530  0.2144 -0.4527
 5989TIP3   OH239381   2.823   5.052  15.175 -0.1316 -0.0800  0.0733
 5989TIP3    H139382   2.767   5.113  15.224 -0.9044 -1.5553  1.1067
 5989TIP3    H239383   2.908   5.096  15.170 -0.0475  0.2007  2.6669
 5990TIP3   OH239384   0.711   6.744   3.125  0.4289 -0.3873  0.5962
 5990TIP3    H139385   0.772   6.706   3.062  1.2240 -2.7504  2.6017
 5990TIP3    H239386   0.654   6.670   3.150  0.9876  0.0506  3.5308
 5991TIP3   OH239387   0.150   5.430  11.464 -0.2710 -0.2282  0.3399
 5991TIP3    H139388   0.191   5.348  11.437 -0.1776 -0.2028  0.4028
 5991TIP3    H239389   0.056   5.413  11.459 -0.2796 -1.0212  2.3926
 5992TIP3   OH239390   3.564   1.514  16.787 -0.4887 -0.6110  0.0663
 5992TIP3    H139391   3.636   1.451  16.786  1.1909  1.1928 -0.2973
 5992TIP3    H239392   3.533   1.513  16.877  1.3893 -0.0175  0.7823
 5993TIP3   OH239393   4.503   3.520  11.570 -0.1672 -0.4683  0.3757
 5993TIP3    H139394   4.524   3.603  11.612  0.0469 -1.0952  1.5273
 5993TIP3    H239395   4.580   3.500  11.517 -0.8067  0.7777 -1.1116
 5994TIP3   OH239396   4.108   1.841   1.675  0.1455 -0.2498  0.8902
 5994TIP3    H139397   4.018   1.857   1.703  0.4132 -0.4291  1.8980
 5994TIP3    H239398   4.123   1.748   1.696  0.2245 -0.5114 -0.2645
 5995TIP3   OH239399   0.928   5.974   5.351  0.4514 -0.1078  0.2767
 5995TIP3    H139400   0.926   6.043   5.418  1.0055  0.8704 -0.6655
 5995TIP3    H239401   0.858   5.914   5.376  0.6687  0.2034  1.7458
 5996TIP3   OH239402   0.676   6.630  14.368  0.2046  0.0728 -0.0036
 5996TIP3    H139403   0.685   6.669  14.281 -1.1187  0.9235  0.2270
 5996TIP3    H239404   0.628   6.695  14.420 -2.2376 -1.8496  0.3417
 5997TIP3   OH239405   0.694   2.080   5.227  0.2650 -0.2952  0.1525
 5997TIP3    H139406   0.617   2.095   5.172  0.0513 -2.7245 -0.3364
 5997TIP3    H239407   0.759   2.142   5.196 -0.6432  0.0175 -1.2108
 5998TIP3   OH239408   3.821   3.050   5.591 -0.0658 -0.3658 -0.2716
 5998TIP3    H139409   3.890   3.097   5.637  0.4341 -1.0748 -0.2939
 5998TIP3    H239410   3.791   3.112   5.524 -0.5171  0.5146  0.7175
 5999TIP3   OH239411   4.458   3.911  13.518 -0.0834  0.2967 -0.0924
 5999TIP3    H139412   4.394   3.851  13.478 -1.2987  1.8213 -0.5543
 5999TIP3    H239413   4.454   3.989  13.463  0.0141  1.5407  1.6157
 6000TIP3   OH239414   1.713   0.945   3.933 -0.6437  0.0474 -0.6809
 6000TIP3    H139415   1.723   0.928   3.840 -0.4515  0.6983 -0.7807
 6000TIP3    H239416   1.800   0.973   3.962 -0.8541  0.4665 -0.4369
 6001TIP3   OH239417   6.396   3.028  15.712 -0.2938  0.1091 -0.7545
 6001TIP3    H139418   6.314   3.074  15.730 -1.5287 -1.4971 -2.0078
 6001TIP3    H239419   6.453   3.094  15.672 -0.5753  1.4904  0.9700
 6002TIP3   OH239420   0.207   5.681  17.003  0.0141  0.4082 -0.2658
 6002TIP3    H139421   0.300   5.699  17.003  0.0631  0.1979  0.4456
 6002TIP3    H239422   0.191   5.632  16.922  1.2005 -2.8173  1.2898
 6003TIP3   OH239423   3.564   1.317   2.795 -0.3511 -0.1847  0.5397
 6003TIP3    H139424   3.626   1.337   2.725 -1.4904 -0.7521 -0.6873
 6003TIP3    H239425   3.534   1.402   2.826 -1.6482  0.1426 -1.3848
 6004TIP3   OH239426   5.972   3.082  13.352  0.1536 -0.2151 -0.0725
 6004TIP3    H139427   5.974   2.988  13.332  2.2875 -0.0766 -0.6549
 6004TIP3    H239428   5.973   3.125  13.267  0.0490  0.3544  0.2098
 6005TIP3   OH239429   2.463   3.923  14.743 -0.3599 -0.1367  0.1049
 6005TIP3    H139430   2.388   3.924  14.683 -0.4059  1.6525  0.1313
 6005TIP3    H239431   2.539   3.912  14.685 -0.6437 -3.6920  0.2073
 6006TIP3   OH239432   2.055   3.308   0.871  1.0853  0.1977 -0.1620
 6006TIP3    H139433   2.003   3.373   0.920 -0.8756 -0.8620 -0.7176
 6006TIP3    H239434   2.081   3.354   0.791 -0.0282  0.4293 -0.4112
 6007TIP3   OH239435   4.691   2.461  13.659  0.1672  0.4727  0.0473
 6007TIP3    H139436   4.756   2.523  13.695  0.8029 -0.1014 -0.0884
 6007TIP3    H239437   4.725   2.438  13.573 -0.0756 -0.0498  0.0870
 6008TIP3   OH239438   0.186   0.949  12.885  0.1621  0.7056  0.2446
 6008TIP3    H139439   0.237   0.910  12.956 -0.4645 -0.2916  0.1758
 6008TIP3    H239440   0.097   0.954  12.920 -0.5844 -1.6690 -1.1010
 6009TIP3   OH239441   3.187   6.016   5.808  0.4890  0.4873 -0.1439
 6009TIP3    H139442   3.112   6.049   5.857  2.6230  1.4462  2.7820
 6009TIP3    H239443   3.154   6.003   5.719 -2.8355  1.8002  0.7440
 6010TIP3   OH239444   6.243   3.552  12.831  0.5277  0.4486 -0.1469
 6010TIP3    H139445   6.272   3.492  12.900 -0.5376  0.6251  0.4676
 6010TIP3    H239446   6.208   3.494  12.763 -1.6565  0.3454  0.9694
 6011TIP3   OH239447   6.467   5.024  12.179  0.0396 -0.0603 -0.4021
 6011TIP3    H139448   6.477   5.079  12.102 -2.4898  0.2841 -0.5606
 6011TIP3    H239449   6.496   4.938  12.151  0.8246  0.4421 -1.1822
 6012TIP3   OH239450   4.776   1.919   0.213 -0.2462 -0.0482 -0.0492
 6012TIP3    H139451   4.733   1.840   0.180 -1.1678  0.4632 -0.0984
 6012TIP3    H239452   4.765   1.984   0.143 -1.2612  0.7208  0.7857
 6013TIP3   OH239453   1.388   6.645  13.548 -0.0766 -0.1907  0.1010
 6013TIP3    H139454   1.317   6.649  13.485 -0.2733  0.5688  0.3567
 6013TIP3    H239455   1.389   6.731  13.589  0.8821 -0.2430  0.2217
 6014TIP3   OH239456   6.097   2.307  17.187  0.3726 -0.1618  0.1236
 6014TIP3    H139457   6.093   2.371  17.117 -0.5026 -0.8560 -0.4779
 6014TIP3    H239458   6.179   2.327  17.233  0.7888  0.5139 -0.8751
 6015TIP3   OH239459   5.600   1.045  13.800 -0.4053  0.3180  0.0642
 6015TIP3    H139460   5.575   0.977  13.738 -0.2383 -0.3120  0.6737
 6015TIP3    H239461   5.692   1.063  13.782  0.2078 -1.2693  1.3880
 6016TIP3   OH239462   2.929   1.234   0.583  0.6252 -0.4833  0.0258
 6016TIP3    H139463   2.857   1.193   0.631  0.8392 -2.2400 -1.0703
 6016TIP3    H239464   3.006   1.183   0.609  1.3979  1.0151  0.7512
 6017TIP3   OH239465   5.761   1.020  14.076  0.0547  0.1722  1.2568
 6017TIP3    H139466   5.806   0.988  14.154  0.4270 -2.5646  0.0512
 6017TIP3    H239467   5.806   0.977  14.003 -3.0331 -0.9673 -0.1713
 6018TIP3   OH239468   4.610   2.555  16.208 -0.1167 -0.4520  0.3799
 6018TIP3    H139469   4.685   2.614  16.218  1.8391 -2.7936  0.5083
 6018TIP3    H239470   4.536   2.604  16.244  1.9309  0.8095  3.2716
 6019TIP3   OH239471   1.392   3.067  10.935  0.4559  0.6402 -0.3201
 6019TIP3    H139472   1.309   3.102  10.903 -0.8845 -1.0515  1.1618
 6019TIP3    H239473   1.406   2.987  10.884  1.3427  1.0566 -0.7534
 6020TIP3   OH239474   2.853   2.037  11.912 -0.4726  0.2353  0.4976
 6020TIP3    H139475   2.812   2.118  11.940  0.3784  0.5171  0.9705
 6020TIP3    H239476   2.938   2.036  11.956 -1.3790 -2.0625  2.4361
 6021TIP3   OH239477   4.260   4.652  16.865  0.0833 -0.0498 -0.7071
 6021TIP3    H139478   4.184   4.669  16.921  0.8471  0.1313  0.3057
 6021TIP3    H239479   4.335   4.661  16.924  0.9550  0.7857 -1.9011
 6022TIP3   OH239480   1.443   4.614   1.349  0.0746  0.3492  0.6618
 6022TIP3    H139481   1.449   4.704   1.381 -1.1919  0.4215  0.7498
 6022TIP3    H239482   1.452   4.560   1.428  1.4067  0.3555  0.5396
 6023TIP3   OH239483   2.493   1.310  13.921 -0.8937  0.2226 -0.3075
 6023TIP3    H139484   2.428   1.358  13.869 -0.2218  0.1446 -1.2399
 6023TIP3    H239485   2.543   1.379  13.965 -0.4459  0.3748 -1.0224
 6024TIP3   OH239486   4.147   5.269   1.328  0.0798 -0.6492  0.4358
 6024TIP3    H139487   4.071   5.262   1.271 -0.9860  1.3487  1.5074
 6024TIP3    H239488   4.111   5.282   1.416  1.5943  1.5396  0.8056
 6025TIP3   OH239489   0.955   0.627   0.183  0.2812  0.8439 -0.1062
 6025TIP3    H139490   0.951   0.707   0.131  1.2907  0.9879  0.0130
 6025TIP3    H239491   0.869   0.587   0.172  0.1736  1.3240 -1.1488
 6026TIP3   OH239492   3.793   6.329   2.273 -0.0721 -0.2003 -0.3956
 6026TIP3    H139493   3.852   6.294   2.340 -0.0439 -3.5122 -1.9401
 6026TIP3    H239494   3.851   6.352   2.200 -0.1378  3.0477  0.4378
 6027TIP3   OH239495   0.395   4.720  14.675  0.5989  0.3008 -0.7549
 6027TIP3    H139496   0.434   4.659  14.738  0.2795  0.0886 -0.7600
 6027TIP3    H239497   0.314   4.677  14.647  1.3220 -0.1870 -2.2369
 6028TIP3   OH239498   2.659   2.097   4.155  0.2063  0.1810  0.4105
 6028TIP3    H139499   2.653   2.188   4.126  2.1933  0.3733  0.4744
 6028TIP3    H239500   2.740   2.064   4.115 -0.4928 -1.6001  0.3307
 6029TIP3   OH239501   4.451   5.749  11.264  0.2492 -0.4598  0.2890
 6029TIP3    H139502   4.360   5.762  11.291  0.2481  1.2645 -0.3980
 6029TIP3    H239503   4.459   5.654  11.251 -1.2451 -0.7113  1.0173
 6030TIP3   OH239504   6.452   0.042  14.257 -0.4026  0.1173 -0.2316
 6030TIP3    H139505   6.410   0.012  14.337 -2.3687 -1.0144 -1.6116
 6030TIP3    H239506   6.414  -0.011  14.188  2.6301 -0.3076 -1.7686
 6031TIP3   OH239507   5.106   4.498  11.404  0.2123  0.0362 -0.0341
 6031TIP3    H139508   5.175   4.440  11.371  0.8556  1.6211 -1.6294
 6031TIP3    H239509   5.114   4.578  11.351 -1.0471  1.3498  1.6416
 6032TIP3   OH239510   5.829   0.767   3.671 -0.0213  0.5303  1.1405
 6032TIP3    H139511   5.885   0.731   3.740 -1.1167  0.4747  2.0384
 6032TIP3    H239512   5.861   0.855   3.656  1.9114 -0.3341 -0.1970
 6033TIP3   OH239513   0.340   6.460   0.792 -0.0687 -0.5346 -0.2226
 6033TIP3    H139514   0.314   6.398   0.724  0.8836 -0.2553 -0.8684
 6033TIP3    H239515   0.432   6.479   0.772 -0.4860  1.5062 -0.3728
 6034TIP3   OH239516   1.029   5.228   0.277 -0.5137  0.1322  0.2255
 6034TIP3    H139517   1.002   5.315   0.306 -1.0032 -0.6120  2.1472
 6034TIP3    H239518   1.116   5.242   0.240 -0.9217  1.5613 -0.2923
 6035TIP3   OH239519   5.144   1.857  12.636 -0.6256  0.2098  0.0623
 6035TIP3    H139520   5.192   1.855  12.719 -1.0620 -2.3117  0.3463
 6035TIP3    H239521   5.202   1.814  12.573 -0.2268  2.2451 -1.0424
 6036TIP3   OH239522   5.066   3.676  13.445 -0.0916  0.6468 -0.2225
 6036TIP3    H139523   4.974   3.678  13.469 -0.5465 -1.7002 -1.4449
 6036TIP3    H239524   5.066   3.694  13.350  0.3768 -1.9145 -0.7650
 6037TIP3   OH239525   3.032   3.345   4.865 -0.0813  0.1250  0.3645
 6037TIP3    H139526   2.966   3.367   4.799  0.3090  2.4628  0.6758
 6037TIP3    H239527   2.986   3.355   4.949  0.5183  1.3444  0.5668
 6038TIP3   OH239528   6.185   1.410   1.578 -0.2114 -0.0637  0.3485
 6038TIP3    H139529   6.169   1.422   1.671  0.9267  1.2772  0.4041
 6038TIP3    H239530   6.116   1.461   1.535  1.6056  2.8083  0.5549
 6039TIP3   OH239531   5.933   1.193  12.018 -0.1996  0.2764  0.1271
 6039TIP3    H139532   5.901   1.282  12.037  1.7263  1.2248 -0.7699
 6039TIP3    H239533   5.907   1.142  12.094 -2.4333  1.2877  0.1381
 6040TIP3   OH239534   4.773   5.710   1.786 -0.5535  0.4766 -0.1180
 6040TIP3    H139535   4.845   5.653   1.810  1.5651  3.3869  1.0779
 6040TIP3    H239536   4.722   5.721   1.866 -1.3465 -0.2065 -0.5134
 6041TIP3   OH239537   6.359   5.142   5.798  0.1933 -0.3378  0.6159
 6041TIP3    H139538   6.291   5.194   5.756  0.6283  1.0406  1.5365
 6041TIP3    H239539   6.439   5.167   5.752  0.0692 -2.2035 -0.6913
 6042TIP3   OH239540   3.236   5.681   5.590 -0.2148  0.2716  0.4451
 6042TIP3    H139541   3.277   5.612   5.538 -2.3501  1.5861 -3.3895
 6042TIP3    H239542   3.286   5.760   5.568 -0.1034  0.6017  1.8264
 6043TIP3   OH239543   1.925   0.151   0.245  0.1779  0.1767  0.8456
 6043TIP3    H139544   1.976   0.073   0.266  0.8377  0.7375  1.3714
 6043TIP3    H239545   1.850   0.118   0.194  1.5672 -0.5449 -0.8198
 6044TIP3   OH239546   2.494   0.457  15.655 -0.3921  0.7772 -0.0983
 6044TIP3    H139547   2.583   0.457  15.690 -0.6573  0.1873  0.6181
 6044TIP3    H239548   2.456   0.375  15.688 -1.3396  1.2365 -0.0198
 6045TIP3   OH239549   6.345   5.020   4.043  0.2657  0.0418  0.4355
 6045TIP3    H139550   6.267   5.070   4.068  1.2571  1.3475  1.0404
 6045TIP3    H239551   6.418   5.077   4.067  1.4183 -1.2744  0.1338
 6046TIP3   OH239552   3.454   1.474  11.602  0.8433  0.0452 -0.1877
 6046TIP3    H139553   3.440   1.453  11.694  0.1742 -0.8452 -0.4704
 6046TIP3    H239554   3.440   1.569  11.597  0.8485  0.0990  0.6177
 6047TIP3   OH239555   4.314   2.481   2.408  0.0247  0.2029 -0.2902
 6047TIP3    H139556   4.274   2.432   2.479  0.9866  1.7042  1.3848
 6047TIP3    H239557   4.385   2.424   2.376  0.5373  0.0967  0.9878
 6048TIP3   OH239558   1.741   0.064   0.069 -0.3200 -0.0376  0.0719
 6048TIP3    H139559   1.688   0.132   0.028  1.8415  1.8181  0.1545
 6048TIP3    H239560   1.785   0.021  -0.004  1.8741  1.8451  0.1582
 6049TIP3   OH239561   2.593   4.336   1.678  0.2347 -1.1584 -0.0921
 6049TIP3    H139562   2.513   4.293   1.707  0.5432 -1.2506  0.6648
 6049TIP3    H239563   2.662   4.270   1.691  0.9872  0.0107  2.6790
 6050TIP3   OH239564   0.054   6.743   3.296  0.3650 -0.7742 -0.6560
 6050TIP3    H139565   0.146   6.742   3.269  0.6509 -2.1145  0.2341
 6050TIP3    H239566   0.043   6.660   3.344 -0.9670 -0.0402  0.3585
 6051TIP3   OH239567   4.812   1.770   5.695  0.1341 -0.1440  0.3669
 6051TIP3    H139568   4.732   1.808   5.732  0.1255 -1.3154  1.6551
 6051TIP3    H239569   4.848   1.838   5.639 -0.4668  1.3332  1.7089
 6052TIP3   OH239570   1.845   6.519  16.254  0.2876 -0.3147 -0.1228
 6052TIP3    H139571   1.922   6.557  16.297 -1.2815  0.9764  1.7128
 6052TIP3    H239572   1.792   6.485  16.326 -0.3844 -2.1778 -1.4276
 6053TIP3   OH239573   6.040   0.449   5.353  0.5025  0.2797  0.0029
 6053TIP3    H139574   6.051   0.357   5.378 -2.2122 -0.5616 -1.5286
 6053TIP3    H239575   6.098   0.460   5.277  3.4241  0.9048  2.1486
 6054TIP3   OH239576   0.501   5.797  17.057 -0.5056  0.4424 -0.7755
 6054TIP3    H139577   0.513   5.835  16.970  1.1039  1.4722 -0.1623
 6054TIP3    H239578   0.494   5.872  17.115  0.0383 -0.2068  0.1592
 6055TIP3   OH239579   4.677   6.489   5.139  0.1207 -0.0072 -0.3567
 6055TIP3    H139580   4.657   6.481   5.046 -2.3900  0.7114  0.0626
 6055TIP3    H239581   4.673   6.583   5.156 -0.2462 -0.1998  0.6489
 6056TIP3   OH239582   1.583   2.640  11.522 -0.5231 -0.3373  1.1236
 6056TIP3    H139583   1.566   2.686  11.439 -2.9247  3.7671  3.5541
 6056TIP3    H239584   1.672   2.667  11.546 -1.0139  1.2049  1.3335
 6057TIP3   OH239585   0.030   1.932  15.065  0.1208  0.0782  0.1897
 6057TIP3    H139586  -0.012   2.014  15.040  1.6782  0.5940 -0.9289
 6057TIP3    H239587   0.115   1.935  15.021  1.9186 -0.2961  3.3486
 6058TIP3   OH239588   4.300   5.783   1.494 -0.5478 -0.1728  0.0289
 6058TIP3    H139589   4.222   5.832   1.466 -1.1298 -1.0267  0.1303
 6058TIP3    H239590   4.295   5.701   1.446  1.5640  0.6752 -1.7840
 6059TIP3   OH239591   0.372   0.514   5.471 -0.0621 -0.1889 -0.6621
 6059TIP3    H139592   0.385   0.572   5.545  1.2561 -1.0671 -0.1751
 6059TIP3    H239593   0.278   0.517   5.454 -0.1682  1.2063  0.0453
 6060TIP3   OH239594   0.033   6.589   0.216  0.3399  0.2099  0.0191
 6060TIP3    H139595   0.044   6.511   0.269  1.2378 -1.7326 -2.7954
 6060TIP3    H239596  -0.016   6.560   0.139  0.9557  2.3576 -1.2852
 6061TIP3   OH239597   5.127   0.630  13.659 -0.0429 -0.4278  0.4986
 6061TIP3    H139598   5.199   0.596  13.605 -0.3560 -1.2745  0.6002
 6061TIP3    H239599   5.151   0.604  13.748  0.8568  1.6269  0.8980
 6062TIP3   OH239600   2.979   1.029   2.269 -0.0375 -0.8494  0.1657
 6062TIP3    H139601   2.991   1.012   2.362  0.6187 -0.4740  0.1556
 6062TIP3    H239602   3.038   1.102   2.250 -2.8193  1.5640  0.2346
 6063TIP3   OH239603   3.926   4.684  12.496 -0.3151  0.7751  0.2167
 6063TIP3    H139604   3.941   4.707  12.588 -1.2103  0.2544  0.4978
 6063TIP3    H239605   4.014   4.684  12.457  0.1215  0.5002  1.1812
 6064TIP3   OH239606   4.900   0.499   0.427  0.1260  0.0825 -0.1448
 6064TIP3    H139607   4.956   0.555   0.373  0.7315  0.7526  1.1178
 6064TIP3    H239608   4.931   0.410   0.410 -0.7332  0.1055 -2.0563
 6065TIP3   OH239609   0.635   1.410   0.066 -0.1805 -0.0006  0.0559
 6065TIP3    H139610   0.547   1.437   0.041 -0.2177 -0.2756 -0.1051
 6065TIP3    H239611   0.693   1.464   0.012 -0.2608 -1.5201 -1.6153
 6066TIP3   OH239612   4.998   4.289  15.561 -0.4517  0.2681  0.6073
 6066TIP3    H139613   4.913   4.246  15.550 -1.3080  1.8475  0.8903
 6066TIP3    H239614   4.988   4.344  15.638  0.4786  1.2919  0.0271
 6067TIP3   OH239615   0.216   6.396  16.296  0.7043 -0.5761 -0.1400
 6067TIP3    H139616   0.202   6.489  16.274 -0.0016 -1.2142 -2.8103
 6067TIP3    H239617   0.127   6.360  16.301  0.9711 -1.1005  1.0848
 6068TIP3   OH239618   2.001   2.472  12.721 -0.8545  0.1620 -0.4723
 6068TIP3    H139619   1.960   2.558  12.710 -1.3267 -0.3549 -3.6751
 6068TIP3    H239620   2.054   2.461  12.643  0.7851 -1.6864  0.8133
 6069TIP3   OH239621   0.185   0.921   1.589 -0.2010 -0.6377 -0.8733
 6069TIP3    H139622   0.143   0.907   1.674  1.0262 -0.7589 -0.2571
 6069TIP3    H239623   0.159   0.846   1.536  0.2422 -1.3620 -0.0915
 6070TIP3   OH239624   3.625   4.588   3.847 -0.0623  0.7391  0.0615
 6070TIP3    H139625   3.667   4.502   3.842 -0.2144  0.5165  1.7730
 6070TIP3    H239626   3.697   4.651   3.836  0.3957  0.3613  0.7815
 6071TIP3   OH239627   1.686   4.496   6.241  0.0240 -0.5486 -0.1135
 6071TIP3    H139628   1.611   4.441   6.261 -0.7831  0.8802  0.9746
 6071TIP3    H239629   1.753   4.469   6.302  0.4842 -1.9110 -1.1648
 6072TIP3   OH239630   6.744   3.877  13.297  0.0084 -0.4790  0.1979
 6072TIP3    H139631   6.793   3.955  13.275 -0.6528 -0.6786 -2.4006
 6072TIP3    H239632   6.655   3.895  13.265 -0.6983 -1.5028  1.4712
 6073TIP3   OH239633   4.132   2.535  12.480  0.1380  0.2181 -0.3973
 6073TIP3    H139634   4.087   2.609  12.440 -1.6633 -0.3343  0.4989
 6073TIP3    H239635   4.104   2.460  12.428 -3.3579 -0.7359  2.4461
 6074TIP3   OH239636   0.164   2.850  15.659  0.7926  0.7014  0.2323
 6074TIP3    H139637   0.186   2.855  15.566 -3.1035  1.6086 -0.8288
 6074TIP3    H239638   0.153   2.756  15.675  1.9675  0.4964 -0.0118
 6075TIP3   OH239639   2.496   6.391   3.005  0.9428 -0.1312 -0.6702
 6075TIP3    H139640   2.475   6.371   2.913 -0.5877  1.0296 -0.6129
 6075TIP3    H239641   2.477   6.484   3.014  2.7717  0.1768  0.4072
 6076TIP3   OH239642   2.158   1.433   3.951  0.0014  0.5087 -0.4505
 6076TIP3    H139643   2.154   1.445   3.857 -1.1352  0.2067 -0.4600
 6076TIP3    H239644   2.250   1.418   3.970  0.0098 -1.4630 -1.7816
 6077TIP3   OH239645   4.574   5.962  12.734  0.1345 -0.1809  0.1109
 6077TIP3    H139646   4.585   6.056  12.723 -1.8890  0.0852  0.0379
 6077TIP3    H239647   4.663   5.927  12.735  0.9495  1.8092  0.9524
 6078TIP3   OH239648   0.094   5.925   3.063 -0.2758 -0.1675  0.0109
 6078TIP3    H139649   0.093   5.948   3.155 -0.5911 -0.3568  0.0579
 6078TIP3    H239650   0.021   5.864   3.053  0.1820 -0.6850 -0.2254
 6079TIP3   OH239651   5.606   5.694  12.530 -0.8731  0.1660  0.2960
 6079TIP3    H139652   5.644   5.606  12.540  1.5594  0.8326 -1.9109
 6079TIP3    H239653   5.566   5.693  12.443 -0.8560  1.2330  0.2699
 6080TIP3   OH239654   4.435   5.271   1.277 -0.5401  0.1837 -0.2648
 6080TIP3    H139655   4.339   5.267   1.271 -0.5711  0.6561 -0.1660
 6080TIP3    H239656   4.453   5.260   1.370 -0.5866  1.3712 -0.0924
 6081TIP3   OH239657   6.351   2.287   4.783 -0.7288  0.0810 -0.1552
 6081TIP3    H139658   6.332   2.285   4.689 -0.4236 -0.1587 -0.2126
 6081TIP3    H239659   6.423   2.225   4.794 -0.9571 -0.1066  0.2819
 6082TIP3   OH239660   1.961   0.705   1.770  0.8815 -0.4323  0.4745
 6082TIP3    H139661   2.021   0.701   1.845 -0.3012 -0.0121  1.4853
 6082TIP3    H239662   1.957   0.615   1.738  1.5585 -0.5824  0.7883
 6083TIP3   OH239663   6.502   2.382   5.034 -0.2384  0.0623  0.2466
 6083TIP3    H139664   6.448   2.333   4.971  0.1975  1.1710 -1.0482
 6083TIP3    H239665   6.491   2.336   5.117 -0.7145 -1.5591 -0.6785
 6084TIP3   OH239666   0.678   0.486   0.191 -0.0500 -0.1759  0.3527
 6084TIP3    H139667   0.588   0.513   0.211  0.0729 -0.0519  0.7444
 6084TIP3    H239668   0.690   0.406   0.242  0.3651  0.3043  1.0184
 6085TIP3   OH239669   1.852   1.389  14.639 -0.3417  1.1976  0.0064
 6085TIP3    H139670   1.766   1.357  14.610 -0.4615  0.7209  0.8524
 6085TIP3    H239671   1.832   1.465  14.694 -0.1899  1.3640 -0.1674
 6086TIP3   OH239672   0.939   1.976   1.150  0.0401  0.7584  0.0422
 6086TIP3    H139673   0.942   1.902   1.211  0.3472  0.3158 -0.4983
 6086TIP3    H239674   0.846   1.990   1.134 -0.0700  1.1940  0.9733
 6087TIP3   OH239675   0.940   3.526   3.360 -0.0215  0.6781  0.4293
 6087TIP3    H139676   0.925   3.432   3.355  1.1544  0.3361  2.1817
 6087TIP3    H239677   0.883   3.556   3.431  1.5075  0.7422  1.7171
 6088TIP3   OH239678   4.428   4.252  11.157  0.5610  0.1996 -0.6083
 6088TIP3    H139679   4.346   4.218  11.193 -0.1642  2.4909  0.0651
 6088TIP3    H239680   4.411   4.263  11.063 -1.0769  3.4313 -0.0813
 6089TIP3   OH239681   4.953   5.622   2.116 -0.1602  1.1086 -0.1703
 6089TIP3    H139682   4.906   5.688   2.167  1.0607  0.9087  1.2670
 6089TIP3    H239683   4.907   5.540   2.133  0.6620  0.9135  1.2312
 6090TIP3   OH239684   0.710   4.049  13.761 -0.1863 -0.0237  0.0427
 6090TIP3    H139685   0.739   4.029  13.850 -1.2049 -2.0020 -0.0132
 6090TIP3    H239686   0.789   4.037  13.707 -0.0981 -1.1620  0.4040
 6091TIP3   OH239687   0.947   4.011  13.611  0.1188  0.0977 -0.0690
 6091TIP3    H139688   0.927   4.006  13.518  0.9340  0.2523 -0.2612
 6091TIP3    H239689   0.945   3.920  13.641 -1.1140  0.1201 -0.0043
 6092TIP3   OH239690   3.770   3.150   3.082  0.2243 -0.2841  0.0853
 6092TIP3    H139691   3.677   3.137   3.063  0.0923 -1.5248  1.4571
 6092TIP3    H239692   3.800   3.209   3.012 -1.7115  0.6160 -0.0527
 6093TIP3   OH239693   3.799   2.949   0.542 -0.5135 -0.0820  0.0927
 6093TIP3    H139694   3.758   2.994   0.616 -0.3235  1.3537 -0.6416
 6093TIP3    H239695   3.850   2.878   0.582 -0.3129  0.7456  1.3423
 6094TIP3   OH239696   5.395   3.416  13.393 -0.1175 -0.7528 -0.1005
 6094TIP3    H139697   5.482   3.377  13.389 -0.5471 -1.8241  0.6388
 6094TIP3    H239698   5.344   3.367  13.328  0.0940  0.6479 -1.3897
 6095TIP3   OH239699   5.754   5.045   2.535 -0.7610  0.0488 -0.0458
 6095TIP3    H139700   5.692   5.039   2.462  0.7091  0.4844 -1.3920
 6095TIP3    H239701   5.816   5.112   2.508  1.0020 -1.2027  0.6736
 6096TIP3   OH239702   0.878   5.703   2.646 -0.3372 -0.5394 -0.9272
 6096TIP3    H139703   0.854   5.794   2.662  1.4976 -0.1143 -0.2586
 6096TIP3    H239704   0.861   5.689   2.553  1.3414  1.1892 -1.5706
 6097TIP3   OH239705   2.926   2.408  11.722 -0.6618  0.2762 -0.5682
 6097TIP3    H139706   2.931   2.321  11.683 -0.6478  0.9869 -2.1963
 6097TIP3    H239707   3.009   2.418  11.768 -1.6459 -1.5283  1.8540
 6098TIP3   OH239708   3.790   6.513  16.304  0.6164 -0.6095 -0.6744
 6098TIP3    H139709   3.811   6.539  16.214  1.8866 -1.4221 -0.6386
 6098TIP3    H239710   3.827   6.425  16.312 -0.7294 -1.1215  0.2146
 6099TIP3   OH239711   5.147   6.265  12.282 -0.2619  0.5390 -0.3713
 6099TIP3    H139712   5.053   6.274  12.272 -0.0538  2.0939 -1.1898
 6099TIP3    H239713   5.166   6.296  12.371 -0.2914  2.3584 -0.9745
 6100TIP3   OH239714   4.852   2.443  11.979 -0.2393 -0.3928  0.2739
 6100TIP3    H139715   4.872   2.423  11.887  0.6937  0.6148  0.2338
 6100TIP3    H239716   4.795   2.520  11.974 -0.5918 -0.6389  0.5255
 6101TIP3   OH239717   3.392   0.026  16.943  0.3316 -0.0342  0.2182
 6101TIP3    H139718   3.396  -0.027  17.023 -1.1190 -1.9997 -0.9401
 6101TIP3    H239719   3.322   0.089  16.959 -0.9433 -1.3588  0.0047
 6102TIP3   OH239720   5.167   5.854  14.731  0.5443  0.0513  0.2872
 6102TIP3    H139721   5.135   5.918  14.795 -0.4032 -0.5115  0.3998
 6102TIP3    H239722   5.173   5.904  14.649 -1.1434  0.0799  0.1452
 6103TIP3   OH239723   4.932   4.079   1.448 -0.7130 -0.6099 -0.4654
 6103TIP3    H139724   4.923   4.169   1.415  1.3439 -0.2081 -0.0730
 6103TIP3    H239725   4.922   4.024   1.370 -0.5129  0.0497 -0.9717
 6104TIP3   OH239726   2.206   0.646   2.422  0.1024 -0.7403 -0.1438
 6104TIP3    H139727   2.293   0.650   2.461  0.0216  1.4630 -0.0241
 6104TIP3    H239728   2.146   0.668   2.494 -0.4649 -1.2400 -0.4518
 6105TIP3   OH239729   1.053   3.966   4.764  0.1963  0.0056  0.3814
 6105TIP3    H139730   1.136   3.983   4.719 -0.7463 -1.8627 -2.3504
 6105TIP3    H239731   1.055   3.872   4.782 -1.0556  0.0609  0.8619
 6106TIP3   OH239732   0.987   5.757  14.430 -0.2014 -0.4875 -0.5037
 6106TIP3    H139733   0.900   5.736  14.394 -0.1581  0.3473 -1.1311
 6106TIP3    H239734   1.048   5.728  14.362 -0.0218 -0.5459 -0.3168
 6107TIP3   OH239735   6.476   3.215   2.097 -0.1201 -0.3985 -0.1130
 6107TIP3    H139736   6.499   3.165   2.175  4.9729 -0.2892 -1.1923
 6107TIP3    H239737   6.426   3.289   2.129  0.9344 -0.8818  2.9247
 6108TIP3   OH239738   0.432   2.117   0.946  0.1884  0.1029  0.4445
 6108TIP3    H139739   0.523   2.128   0.973  0.1005 -0.1880  0.8653
 6108TIP3    H239740   0.393   2.204   0.961  0.4679  0.3150 -0.0327
 6109TIP3   OH239741   3.889   1.862  12.959 -0.0093 -0.1603  0.0021
 6109TIP3    H139742   3.971   1.904  12.984  0.1366 -1.0551  1.1245
 6109TIP3    H239743   3.894   1.855  12.864  1.0472  0.1270  0.0186
 6110TIP3   OH239744   0.325   1.559  10.951 -0.2485  0.3612  0.3187
 6110TIP3    H139745   0.301   1.640  10.906  0.7334  1.0878  1.0649
 6110TIP3    H239746   0.254   1.544  11.014 -1.3394 -0.3555 -1.0156
 6111TIP3   OH239747   2.205   1.011   0.549 -0.5426  0.4615 -0.6683
 6111TIP3    H139748   2.298   1.007   0.570 -0.2998 -1.1464 -1.8395
 6111TIP3    H239749   2.166   0.938   0.596 -1.0695  0.6414 -0.8130
 6112TIP3   OH239750   1.954   6.039   6.284  0.0349 -0.0634  0.6119
 6112TIP3    H139751   1.863   6.008   6.283  0.4511 -1.3636 -0.4063
 6112TIP3    H239752   1.948   6.132   6.305 -1.4287 -0.4220  1.9966
 6113TIP3   OH239753   1.626   2.011  15.994  0.3890  0.1333 -0.2501
 6113TIP3    H139754   1.577   2.055  16.064  0.3657  1.0425 -0.8178
 6113TIP3    H239755   1.682   2.080  15.958 -0.5895  0.0494 -2.0390
 6114TIP3   OH239756   5.544   2.476   6.270  0.3483 -0.0429 -0.3877
 6114TIP3    H139757   5.528   2.442   6.358  0.0324 -0.6375 -0.6678
 6114TIP3    H239758   5.525   2.569   6.276  0.1242 -0.1185  0.1247
 6115TIP3   OH239759   0.350   5.827   5.924 -0.4529  0.1868 -0.2677
 6115TIP3    H139760   0.281   5.888   5.951  0.0767  0.7608 -0.1982
 6115TIP3    H239761   0.419   5.883   5.889 -0.3875 -0.4413 -1.1679
 6116TIP3   OH239762   6.347   5.280  11.430  0.0528 -0.1437 -0.2301
 6116TIP3    H139763   6.330   5.187  11.447 -3.4196  0.1024 -1.4747
 6116TIP3    H239764   6.335   5.322  11.516 -2.1983 -0.5042 -0.3115
 6117TIP3   OH239765   2.879   3.753  16.338  0.3729 -0.3146  0.1469
 6117TIP3    H139766   2.927   3.786  16.262  0.4607 -1.0395 -0.1262
 6117TIP3    H239767   2.944   3.702  16.387  0.5260  0.7751  1.1436
 6118TIP3   OH239768   0.712   5.742  13.859 -0.3139  0.1684 -0.0049
 6118TIP3    H139769   0.731   5.655  13.825 -2.1691 -0.6628  0.9040
 6118TIP3    H239770   0.638   5.728  13.919  1.0371  1.9477  2.2420
 6119TIP3   OH239771   1.059   0.990   4.983  0.0684 -0.0485  0.3124
 6119TIP3    H139772   1.131   1.053   4.991  0.2934 -0.3454  0.6093
 6119TIP3    H239773   1.007   1.003   5.062  0.2474 -0.4010  0.4891
 6120TIP3   OH239774   2.889   5.166   3.454  0.1798 -0.1498  0.1935
 6120TIP3    H139775   2.929   5.092   3.407  0.3375  0.7471 -1.1332
 6120TIP3    H239776   2.813   5.190   3.401  0.8046  1.3812 -0.0597
 6121TIP3   OH239777   0.874   4.511   6.365  0.3014 -0.4688 -0.5061
 6121TIP3    H139778   0.951   4.454   6.361 -0.5671 -1.6164 -1.4516
 6121TIP3    H239779   0.905   4.590   6.410  1.7311 -1.3699  0.1612
 6122TIP3   OH239780   1.699   5.214  12.750 -0.5737  0.7004 -0.1771
 6122TIP3    H139781   1.728   5.225  12.659  0.8544  2.0722  0.4010
 6122TIP3    H239782   1.642   5.288  12.767 -3.2804 -1.0936 -0.7752
 6123TIP3   OH239783   3.026   2.487  12.193 -0.1323 -0.0304  0.4938
 6123TIP3    H139784   3.050   2.448  12.109  0.9728  1.5169  0.0509
 6123TIP3    H239785   2.932   2.503  12.186  0.3162  2.3061 -1.4690
 6124TIP3   OH239786   4.380   2.727   5.510  0.0782  0.4429 -0.4491
 6124TIP3    H139787   4.448   2.722   5.578 -0.8483 -1.1102  0.4090
 6124TIP3    H239788   4.356   2.636   5.493 -1.4149  0.9319 -1.1018
 6125TIP3   OH239789   1.259   6.152   3.535  0.4156 -0.3660  0.4218
 6125TIP3    H139790   1.266   6.233   3.585  0.1009  0.4093 -0.7752
 6125TIP3    H239791   1.335   6.153   3.477  0.1142 -0.6569  0.0165
 6126TIP3   OH239792   6.705   4.179  13.491 -0.4257 -0.0524  0.0521
 6126TIP3    H139793   6.735   4.266  13.519 -0.2535  0.0725 -0.5210
 6126TIP3    H239794   6.663   4.194  13.406 -0.2055 -0.5653 -0.1473
 6127TIP3   OH239795   4.456   1.104   3.573  0.2659  0.2517 -0.2163
 6127TIP3    H139796   4.458   1.045   3.498  2.2578  0.1810 -0.1580
 6127TIP3    H239797   4.396   1.174   3.547  0.0944 -0.3214 -1.4299
 6128TIP3   OH239798   4.597   3.578   6.234 -0.1330  0.4599  0.5706
 6128TIP3    H139799   4.647   3.628   6.298  0.1615  0.4952  0.3198
 6128TIP3    H239800   4.537   3.525   6.286 -0.5909  1.2213  0.8287
 6129TIP3   OH239801   6.363   0.549   0.780  0.2862 -0.2672  0.4398
 6129TIP3    H139802   6.315   0.469   0.800  0.0323 -0.1702  0.2290
 6129TIP3    H239803   6.451   0.535   0.816 -0.3738  0.2311  2.3554
 6130TIP3   OH239804   3.395   3.381   5.898  0.3371 -0.6798 -0.0197
 6130TIP3    H139805   3.415   3.288   5.888  0.5408 -0.4950 -1.5397
 6130TIP3    H239806   3.323   3.384   5.962 -0.5738 -1.9829 -0.9458
 6131TIP3   OH239807   5.665   2.909   1.253  0.2888  0.0261  0.1129
 6131TIP3    H139808   5.754   2.919   1.218  0.2331  0.2529  0.0331
 6131TIP3    H239809   5.671   2.943   1.343  0.6921 -1.5686  0.7223
 6132TIP3   OH239810   3.868   4.479   5.917 -0.1981  0.2455 -0.2342
 6132TIP3    H139811   3.843   4.513   5.831  1.2531  0.9818 -0.3996
 6132TIP3    H239812   3.799   4.507   5.976  0.6601  3.1570 -0.4558
 6133TIP3   OH239813   6.770   2.712   1.515  0.0535  0.6081  0.1126
 6133TIP3    H139814   6.825   2.758   1.452  1.8306  0.1312  1.2300
 6133TIP3    H239815   6.826   2.699   1.591 -1.0494 -1.5068  0.6503
 6134TIP3   OH239816   2.878   6.502   3.424  0.1715 -0.1561 -0.2607
 6134TIP3    H139817   2.795   6.475   3.463 -0.0954 -0.8844 -1.2760
 6134TIP3    H239818   2.873   6.472   3.333 -0.0793  3.1633 -1.4928
 6135TIP3   OH239819   3.659   5.103   2.741  0.8552 -0.8233 -0.0012
 6135TIP3    H139820   3.732   5.164   2.728 -0.8077  1.1625 -0.4463
 6135TIP3    H239821   3.587   5.141   2.692 -0.9781 -1.8438  1.7652
 6136TIP3   OH239822   1.141   6.178  16.712 -0.0237  0.0513  0.8362
 6136TIP3    H139823   1.079   6.135  16.653 -2.0807  1.6047  1.7458
 6136TIP3    H239824   1.120   6.143  16.799  0.8375  0.1268  1.0858
 6137TIP3   OH239825   0.660   5.098  13.268 -0.0431  0.3383  0.6031
 6137TIP3    H139826   0.624   5.111  13.355 -0.7793 -1.5684  0.6332
 6137TIP3    H239827   0.755   5.103  13.280 -0.1069 -0.5049  1.6494
 6138TIP3   OH239828   0.073   1.478   6.375 -0.3608 -0.0267  0.0575
 6138TIP3    H139829   0.021   1.542   6.423 -1.2072  0.3087 -1.2322
 6138TIP3    H239830   0.008   1.419   6.336  0.2430  0.0300 -1.0883
 6139TIP3   OH239831   0.608   5.072  14.619  0.5164 -0.7430 -0.1962
 6139TIP3    H139832   0.547   5.004  14.593  0.2517  0.2946 -2.6339
 6139TIP3    H239833   0.567   5.114  14.694  0.3414 -2.7373  0.8856
 6140TIP3   OH239834   5.548   5.380   6.398  0.4965 -0.6139  0.9026
 6140TIP3    H139835   5.580   5.469   6.414  0.2644 -0.3887  0.1541
 6140TIP3    H239836   5.620   5.323   6.427  1.3091 -0.1369 -0.0977
 6141TIP3   OH239837   0.704   0.256  11.415 -0.2888  0.2183 -0.2346
 6141TIP3    H139838   0.684   0.293  11.329 -0.8216  2.5058  0.7894
 6141TIP3    H239839   0.791   0.218  11.405 -0.9684 -1.0001 -2.1674
 6142TIP3   OH239840   3.786   0.116  11.943 -0.4717  0.2759  0.2156
 6142TIP3    H139841   3.752   0.172  12.013  0.8111 -0.3142  1.3570
 6142TIP3    H239842   3.855   0.063  11.986 -0.2519 -0.7121 -1.2928
 6143TIP3   OH239843   4.767   1.518  12.534 -0.0042  0.4512  0.1933
 6143TIP3    H139844   4.772   1.553  12.445  1.6683 -0.0886  0.0422
 6143TIP3    H239845   4.819   1.579  12.587 -1.4616  1.1028  0.9573
 6144TIP3   OH239846   6.486   4.334  10.823 -0.2039  0.3985 -0.2881
 6144TIP3    H139847   6.507   4.316  10.732  1.4568  0.6393  0.0074
 6144TIP3    H239848   6.478   4.247  10.863 -3.4128  0.2083 -1.1009
 6145TIP3   OH239849   6.749   3.681  12.780  0.3014  0.3709  0.3858
 6145TIP3    H139850   6.827   3.737  12.789  0.2952  0.8163 -1.8204
 6145TIP3    H239851   6.685   3.719  12.840  0.7982  1.8493  0.0100
 6146TIP3   OH239852   2.103   1.644   6.195 -0.7429 -0.0412  0.6480
 6146TIP3    H139853   2.188   1.632   6.237 -0.0916 -1.5042 -0.9803
 6146TIP3    H239854   2.119   1.626   6.103 -2.8862 -0.7266  0.3575
 6147TIP3   OH239855   3.571   1.157  13.854  0.0413 -0.1811 -0.3196
 6147TIP3    H139856   3.571   1.252  13.854 -0.7166 -0.1759  0.2190
 6147TIP3    H239857   3.607   1.133  13.940  0.0319 -0.3729 -0.3686
 6148TIP3   OH239858   2.410   6.028   1.530  0.1571 -0.1768 -0.0049
 6148TIP3    H139859   2.492   6.076   1.545  0.9192 -0.8287 -1.8858
 6148TIP3    H239860   2.359   6.086   1.472  0.2190 -0.7350 -0.6207
 6149TIP3   OH239861   3.743   0.459   6.160  0.5392 -0.3297  0.4464
 6149TIP3    H139862   3.834   0.432   6.172  0.5637  0.7494  3.2975
 6149TIP3    H239863   3.694   0.409   6.225 -0.3826  1.5273  1.2597
 6150TIP3   OH239864   2.041   2.040  14.595  0.1029 -0.4381  0.4600
 6150TIP3    H139865   2.031   2.049  14.690 -1.8449  0.1101  0.2590
 6150TIP3    H239866   2.067   2.127  14.565  0.0712 -0.4371  0.4339
 6151TIP3   OH239867   1.619   6.481   6.018 -0.0025  0.2081 -0.2661
 6151TIP3    H139868   1.624   6.397   6.062  0.3338  0.3203 -0.0871
 6151TIP3    H239869   1.624   6.460   5.925  1.2886  0.1110 -0.1935
 6152TIP3   OH239870   3.788   5.918  14.419  0.2208  0.8377  0.0019
 6152TIP3    H139871   3.801   5.832  14.461 -2.3665  0.6825  0.6380
 6152TIP3    H239872   3.703   5.911  14.377 -1.0001  3.7103  1.7164
 6153TIP3   OH239873   3.922   1.912  15.617  0.0818  0.5831  0.4031
 6153TIP3    H139874   4.005   1.870  15.597  0.1632  1.2529 -0.7934
 6153TIP3    H239875   3.945   2.002  15.638 -0.2387  0.4731  1.2454
 6154TIP3   OH239876   4.170   0.510   5.042 -0.7130 -0.1455  0.1668
 6154TIP3    H139877   4.125   0.476   4.964 -0.1476 -0.7264  0.0855
 6154TIP3    H239878   4.231   0.575   5.008  2.2741 -3.0040 -0.3957
 6155TIP3   OH239879   4.585   3.125   2.761  0.5402 -0.5846 -0.2643
 6155TIP3    H139880   4.499   3.164   2.779 -0.2039 -2.0735 -0.3423
 6155TIP3    H239881   4.629   3.188   2.704 -0.0040  0.7668  0.7475
 6156TIP3   OH239882   6.691   3.999  13.781 -0.0293 -0.1640 -0.2516
 6156TIP3    H139883   6.695   3.905  13.796  2.0011 -0.1338 -0.2686
 6156TIP3    H239884   6.762   4.016  13.719 -0.4400  1.3696 -0.3474
 6157TIP3   OH239885   6.312   0.011  15.852 -0.2684  0.6176 -0.1170
 6157TIP3    H139886   6.340  -0.068  15.805 -1.3873  0.6386 -0.8420
 6157TIP3    H239887   6.310  -0.015  15.944  1.3541  0.3982 -0.1107
 6158TIP3   OH239888   5.095   5.085   1.099  0.0320  0.3494  0.1916
 6158TIP3    H139889   5.124   5.139   1.172  0.2131 -0.0498  0.4181
 6158TIP3    H239890   5.169   5.026   1.082 -0.8537 -1.1105  1.1898
 6159TIP3   OH239891   5.468   1.513   4.861 -0.0077 -0.1440 -0.0159
 6159TIP3    H139892   5.453   1.494   4.769  1.2025  0.5281 -0.3841
 6159TIP3    H239893   5.560   1.489   4.876  0.0832  0.6215  0.7588
 6160TIP3   OH239894   3.436   2.181  12.111  0.4103  0.5349 -0.1661
 6160TIP3    H139895   3.452   2.256  12.168  1.2932 -0.7423  1.3338
 6160TIP3    H239896   3.487   2.199  12.032  1.6849  0.9164  0.7244
 6161TIP3   OH239897   3.905   5.952   1.263  0.1138  0.3619  0.9426
 6161TIP3    H139898   3.885   5.877   1.207  2.4612 -0.3894  1.0452
 6161TIP3    H239899   3.967   6.004   1.212 -1.3559  2.2248  0.9322
 6162TIP3   OH239900   4.803   1.577  11.716 -0.2897  0.1179 -0.0388
 6162TIP3    H139901   4.894   1.593  11.741 -0.1825 -0.9465  0.2854
 6162TIP3    H239902   4.759   1.555  11.798 -1.0453  1.4413 -0.0563
 6163TIP3   OH239903   5.573   1.011  12.975  0.3323 -0.1796 -0.0885
 6163TIP3    H139904   5.547   0.940  12.917  1.3597 -0.0767 -0.6866
 6163TIP3    H239905   5.668   1.018  12.965  0.5036 -0.0033  1.4318
 6164TIP3   OH239906   2.685   5.196  12.772 -0.2457 -0.4151  0.2730
 6164TIP3    H139907   2.723   5.112  12.747  0.4191  0.2286 -0.9393
 6164TIP3    H239908   2.615   5.211  12.707 -0.6173 -0.2071  0.7139
 6165TIP3   OH239909   4.579   3.492   4.827 -0.1503 -0.1946  0.3874
 6165TIP3    H139910   4.583   3.398   4.808 -0.6549 -0.2153  0.3542
 6165TIP3    H239911   4.614   3.501   4.915 -0.0959 -0.4122  0.3886
 6166TIP3   OH239912   4.400   2.498  11.857  0.9635 -0.2519 -0.5402
 6166TIP3    H139913   4.379   2.443  11.932 -1.1334  0.1676 -0.7565
 6166TIP3    H239914   4.415   2.585  11.894 -0.1852 -0.0195 -0.5727
 6167TIP3   OH239915   1.662   4.619   0.351 -0.1165 -0.3286  0.3231
 6167TIP3    H139916   1.594   4.554   0.333 -1.4912  1.2596 -0.4164
 6167TIP3    H239917   1.730   4.601   0.287 -1.1199 -0.1642 -0.8146
 6168TIP3   OH239918   1.470   0.456  12.786 -0.0168 -0.2631  0.2762
 6168TIP3    H139919   1.553   0.472  12.740  0.6230 -0.1640  1.4253
 6168TIP3    H239920   1.430   0.543  12.792 -1.2760 -0.5891 -2.1679
 6169TIP3   OH239921   4.747   1.443   3.297 -0.3904  0.2315 -0.6190
 6169TIP3    H139922   4.685   1.490   3.242  1.4983  1.1617 -2.0775
 6169TIP3    H239923   4.791   1.382   3.238  3.2527  2.7696 -0.8887
 6170TIP3   OH239924   6.350   1.558  12.453 -0.0481  0.2631 -0.7907
 6170TIP3    H139925   6.438   1.572  12.419  0.0473  1.2243 -0.1916
 6170TIP3    H239926   6.313   1.491  12.396  2.0258 -2.3043  0.6695
 6171TIP3   OH239927   0.380   5.575   3.282 -0.0354  0.6874  0.1014
 6171TIP3    H139928   0.380   5.511   3.211  0.5892 -0.5390  1.1621
 6171TIP3    H239929   0.333   5.532   3.353  1.0307  1.0816  1.0881
 6172TIP3   OH239930   0.704   5.407  14.445 -0.6925 -0.2836  0.4173
 6172TIP3    H139931   0.766   5.467  14.405 -0.6087  0.4205  1.5670
 6172TIP3    H239932   0.745   5.321  14.437  0.5572  0.1920  1.3626
 6173TIP3   OH239933   3.915   5.594  16.853 -0.5290 -0.0090  0.0637
 6173TIP3    H139934   3.947   5.610  16.942 -0.5264 -1.5299  0.3783
 6173TIP3    H239935   3.821   5.611  16.858 -0.1427  2.5814 -0.3714
 6174TIP3   OH239936   2.520   6.304   5.025 -0.4648 -0.0679 -0.5139
 6174TIP3    H139937   2.443   6.350   4.992 -0.5752 -0.7610 -1.2618
 6174TIP3    H239938   2.581   6.302   4.951  0.4577  0.8474  0.1981
 6175TIP3   OH239939   1.894   4.587  11.569  0.4176 -0.4406  0.0325
 6175TIP3    H139940   1.837   4.519  11.604 -2.7130  1.9637  0.1462
 6175TIP3    H239941   1.857   4.669  11.604  1.3427  1.6156 -3.3031
 6176TIP3   OH239942   6.639   0.155  13.852  0.0405 -0.2025 -0.0274
 6176TIP3    H139943   6.555   0.120  13.823  0.7756 -1.1510 -1.0887
 6176TIP3    H239944   6.689   0.168  13.771  1.3079 -0.7276  0.6375
 6177TIP3   OH239945   5.199   3.975   0.755  0.3784 -0.5827 -0.0679
 6177TIP3    H139946   5.144   3.962   0.832 -0.7274  1.3329 -0.4719
 6177TIP3    H239947   5.277   4.021   0.789  0.4770 -0.8634  0.0892
 6178TIP3   OH239948   4.669   5.091   1.589  0.4283 -0.0729  0.7708
 6178TIP3    H139949   4.636   5.038   1.662 -1.7332 -2.1078 -1.5005
 6178TIP3    H239950   4.596   5.150   1.567  0.4694 -0.4989 -0.6118
 6179TIP3   OH239951   3.885   0.356  14.638 -0.7919  0.6848  0.2955
 6179TIP3    H139952   3.955   0.335  14.699  0.8703 -0.9038 -1.9962
 6179TIP3    H239953   3.827   0.280  14.641 -0.9557  0.8071  0.2393
 6180TIP3   OH239954   6.074   4.877   1.994 -0.3123  0.6976 -0.3763
 6180TIP3    H139955   6.023   4.822   2.054  1.3292  0.2350  0.6413
 6180TIP3    H239956   6.012   4.945   1.967 -1.4606  0.2189  0.9034
 6181TIP3   OH239957   4.567   5.170  12.786 -0.3085  0.0583 -0.3859
 6181TIP3    H139958   4.500   5.103  12.775 -0.6252  0.0653  1.2892
 6181TIP3    H239959   4.534   5.246  12.738 -2.1494  0.4864  1.4654
 6182TIP3   OH239960   1.979   3.515   0.262 -0.2237 -0.5033  0.0619
 6182TIP3    H139961   2.069   3.482   0.260  0.1524  0.4747 -0.1598
 6182TIP3    H239962   1.977   3.572   0.339  0.0449  1.2857 -1.2023
 6183TIP3   OH239963   1.244   1.054  13.726  0.2450  0.2488  0.1131
 6183TIP3    H139964   1.151   1.076  13.725  0.0886 -0.2437 -2.3690
 6183TIP3    H239965   1.249   0.965  13.691  1.7301  0.9864 -1.7513
 6184TIP3   OH239966   3.800   1.703   1.105  0.2652  0.7396 -0.0221
 6184TIP3    H139967   3.712   1.740   1.096  0.7666  1.8281 -0.6369
 6184TIP3    H239968   3.849   1.740   1.032  0.9685 -0.6819 -0.2976
 6185TIP3   OH239969   1.841   0.471  16.507 -0.1722  0.5717  0.1708
 6185TIP3    H139970   1.834   0.445  16.416 -0.6657  0.8595  0.1215
 6185TIP3    H239971   1.926   0.439  16.535 -0.3894 -0.3091 -0.1376
 6186TIP3   OH239972   2.095   1.648   3.441 -0.6153  0.5911 -0.4566
 6186TIP3    H139973   2.134   1.637   3.354  2.8773 -1.4012  1.1064
 6186TIP3    H239974   2.138   1.726   3.477  0.7452 -0.5788  0.6254
 6187TIP3   OH239975   0.996   6.568   4.513  0.0531  0.2472 -0.1931
 6187TIP3    H139976   1.005   6.525   4.598 -0.0424  0.7515  0.0784
 6187TIP3    H239977   1.034   6.506   4.450  0.0865 -0.1464  0.2109
 6188TIP3   OH239978   1.652   0.307  13.608 -0.2479  0.3130 -0.1902
 6188TIP3    H139979   1.611   0.292  13.522 -0.8408  2.7328 -0.3819
 6188TIP3    H239980   1.579   0.306  13.670 -0.2065  1.5084 -0.1145
 6189TIP3   OH239981   2.744   6.423  14.359  0.2275 -0.3391  0.3722
 6189TIP3    H139982   2.767   6.451  14.448 -1.1939 -0.1786  0.7194
 6189TIP3    H239983   2.789   6.339  14.348  1.2738  0.1470  0.8345
 6190TIP3   OH239984   2.226   1.112  15.659 -0.5404 -0.1206 -0.4483
 6190TIP3    H139985   2.156   1.128  15.722 -0.6686 -0.0846 -0.6003
 6190TIP3    H239986   2.277   1.193  15.658 -1.1330  0.2543 -1.1486
 6191TIP3   OH239987   6.565   2.120   6.312  0.2891 -0.4967  0.1559
 6191TIP3    H139988   6.607   2.048   6.360  0.3178 -2.0374 -2.0204
 6191TIP3    H239989   6.591   2.106   6.221 -3.3661 -0.4301 -1.0702
 6192TIP3   OH239990   6.294   0.981  13.480 -0.1212 -0.4921  0.4055
 6192TIP3    H139991   6.331   0.955  13.396 -0.0870 -0.2782  0.3532
 6192TIP3    H239992   6.304   1.076  13.482  0.2767 -0.5390  0.8426
 6193TIP3   OH239993   2.058   4.279   3.085  0.3452  0.2241 -0.1635
 6193TIP3    H139994   2.013   4.216   3.029 -1.2509  1.4905 -0.3672
 6193TIP3    H239995   2.092   4.345   3.024  0.5166  0.4590  0.1788
 6194TIP3   OH239996   4.117   4.224  16.774  0.1506  0.2578  0.2371
 6194TIP3    H139997   4.129   4.236  16.868  0.2565  0.1639  0.2365
 6194TIP3    H239998   4.037   4.172  16.766  1.5787 -2.1009  0.3956
 6195TIP3   OH239999   0.053   1.531  15.669  0.1288 -0.0402  0.4021
 6195TIP3    H140000   0.006   1.536  15.586 -2.1420  2.6963  1.6793
 6195TIP3    H240001   0.102   1.613  15.673  0.6399 -0.3885  1.5500
 6196TIP3   OH240002   6.174   1.835   0.882 -0.0960  0.1996 -0.3943
 6196TIP3    H140003   6.116   1.786   0.940 -0.5760  1.4076  0.1606
 6196TIP3    H240004   6.260   1.792   0.892 -0.4247 -0.2962  0.3503
 6197TIP3   OH240005   0.224   6.003  12.079 -0.6032 -0.1463  0.3321
 6197TIP3    H140006   0.310   5.964  12.065 -0.8247 -0.2321 -0.9309
 6197TIP3    H240007   0.204   6.048  11.996 -1.0182  1.3629  1.2118
 6198TIP3   OH240008   6.005   6.067  15.700 -0.1473  0.1333  0.0166
 6198TIP3    H140009   6.077   6.073  15.762 -1.0468 -0.1364  1.1202
 6198TIP3    H240010   5.985   5.973  15.696  0.0072  0.1301 -0.8212
 6199TIP3   OH240011   2.782   5.976  11.473 -0.0381 -0.2688 -0.1366
 6199TIP3    H140012   2.793   5.880  11.471  1.4502 -0.1569 -3.3463
 6199TIP3    H240013   2.758   5.999  11.384  2.2577  2.6094 -0.1414
 6200TIP3   OH240014   5.017   3.051   1.905 -0.0470 -0.2739  0.3538
 6200TIP3    H140015   5.081   3.120   1.886  0.1069 -0.8956 -1.5936
 6200TIP3    H240016   5.044   3.017   1.990  0.0319  1.8598  1.2563
 6201TIP3   OH240017   6.402   1.133  12.066 -0.1579  0.0655  0.4651
 6201TIP3    H140018   6.405   1.131  11.971  0.7209  1.9372  0.4083
 6201TIP3    H240019   6.440   1.218  12.090 -0.9704 -0.0671  2.4557
 6202TIP3   OH240020   3.090   1.829  12.760 -0.0618  0.0525 -0.2016
 6202TIP3    H140021   3.045   1.799  12.681 -1.0940  1.0039 -0.0040
 6202TIP3    H240022   3.123   1.916  12.738  0.3565 -0.0161  0.1454
 6203TIP3   OH240023   1.612   0.705  15.903  0.2794  0.3572  0.5899
 6203TIP3    H140024   1.658   0.746  15.829  1.4447 -1.4292  0.2694
 6203TIP3    H240025   1.678   0.701  15.972  0.1192 -0.7607  0.6869
 6204TIP3   OH240026   4.729   5.505   0.329  0.2462  0.1819 -0.1627
 6204TIP3    H140027   4.649   5.532   0.374 -0.0514  0.7462 -1.0085
 6204TIP3    H240028   4.751   5.579   0.272  2.5921  0.9823  1.6243
 6205TIP3   OH240029   5.458   4.142  12.867 -0.8376  0.4423  0.1898
 6205TIP3    H140030   5.429   4.082  12.935  1.7349 -0.3123  0.7304
 6205TIP3    H240031   5.511   4.089  12.808  0.0524  1.8300 -0.3176
 6206TIP3   OH240032   3.970   3.175  12.315  0.4172 -0.0616 -0.0996
 6206TIP3    H140033   3.913   3.112  12.270 -0.9563 -0.3028  1.8430
 6206TIP3    H240034   4.057   3.158  12.280 -0.0009 -2.6827 -0.0553
 6207TIP3   OH240035   1.674   5.405  11.388  0.0738  0.1771  0.3093
 6207TIP3    H140036   1.759   5.431  11.423  0.8750 -0.6409 -0.9467
 6207TIP3    H240037   1.642   5.483  11.341  0.5124  0.2417  0.1093
 6208TIP3   OH240038   0.244   4.252  15.302  0.0400 -0.8220  0.0427
 6208TIP3    H140039   0.232   4.259  15.207 -2.1197 -2.7777  0.0942
 6208TIP3    H240040   0.164   4.291  15.338 -0.7826 -3.1421  0.8952
 6209TIP3   OH240041   1.922   6.610  16.935 -0.3800  0.1179 -0.2401
 6209TIP3    H140042   1.862   6.541  16.964 -0.6799 -0.6415 -2.4793
 6209TIP3    H240043   1.887   6.690  16.973 -0.9982 -0.7317  1.0398
 6210TIP3   OH240044   5.036   0.394  14.454  0.5439  0.0009 -0.2090
 6210TIP3    H140045   5.042   0.489  14.459 -2.4728  0.3102 -0.4632
 6210TIP3    H240046   4.990   0.377  14.372  0.3017 -1.6276  0.2277
 6211TIP3   OH240047   2.252   4.087   2.150  0.3970  0.0393  0.5720
 6211TIP3    H140048   2.233   4.014   2.208  1.4435  0.9506  2.1223
 6211TIP3    H240049   2.345   4.106   2.164  0.1952  1.5552  0.0928
 6212TIP3   OH240050   4.679   6.371   5.368 -0.1927  0.1646  0.3738
 6212TIP3    H140051   4.739   6.437   5.403  0.5069 -0.6958  0.8129
 6212TIP3    H240052   4.657   6.404   5.280  0.7631  0.5915  0.2818
 6213TIP3   OH240053   6.183   5.402   3.049 -0.2550  0.3571 -0.1887
 6213TIP3    H140054   6.258   5.343   3.054 -1.1698 -0.7285  2.5488
 6213TIP3    H240055   6.106   5.345   3.053 -1.1880  1.5985  0.4468
 6214TIP3   OH240056   6.089   1.038  12.806  0.2697  0.0019 -0.2826
 6214TIP3    H140057   6.126   1.002  12.726  1.6751  0.6285  0.0560
 6214TIP3    H240058   6.125   1.127  12.811  0.4165 -0.1190  1.1689
 6215TIP3   OH240059   6.088   6.504   1.585 -0.1780  0.1596 -0.0133
 6215TIP3    H140060   6.068   6.495   1.492 -0.9271 -1.2347  0.2470
 6215TIP3    H240061   6.049   6.587   1.611 -0.1159  0.4676 -0.9000
 6216TIP3   OH240062   5.105   0.014  11.245  0.5595 -0.1281  0.0274
 6216TIP3    H140063   5.170   0.053  11.187  0.9865  1.7189  1.6093
 6216TIP3    H240064   5.021   0.047  11.213  0.8651  1.6699  0.9431
 6217TIP3   OH240065   0.660   5.631   3.420  1.0539 -0.3489 -0.0887
 6217TIP3    H140066   0.635   5.703   3.477 -0.3066  0.4146 -1.5651
 6217TIP3    H240067   0.582   5.612   3.368  1.9443 -1.6294 -1.0580
 6218TIP3   OH240068   5.319   5.392  11.877  0.4989 -0.1271 -0.3360
 6218TIP3    H140069   5.275   5.386  11.792 -1.5859 -1.3902  0.7476
 6218TIP3    H240070   5.383   5.321  11.875  1.0866  0.4002 -1.1467
 6219TIP3   OH240071   5.259   5.883   1.511 -0.7412  0.5024 -0.5313
 6219TIP3    H140072   5.196   5.956   1.508 -2.1488 -0.6761 -0.9214
 6219TIP3    H240073   5.223   5.823   1.575 -0.3950 -0.5467 -1.3009
 6220TIP3   OH240074   4.796   2.777  15.803 -0.5854  0.0100  0.6227
 6220TIP3    H140075   4.838   2.800  15.721 -0.9411 -1.4433 -0.0023
 6220TIP3    H240076   4.845   2.700  15.834 -1.5109 -0.4722  0.9110
 6221TIP3   OH240077   6.140   1.491   2.378 -0.5734  0.4421 -0.0387
 6221TIP3    H140078   6.121   1.541   2.298 -0.7596  1.3946  0.5845
 6221TIP3    H240079   6.126   1.554   2.449 -1.5761 -0.7083  0.8220
 6222TIP3   OH240080   4.454   0.757   5.807 -0.3751 -0.5412  0.3713
 6222TIP3    H140081   4.523   0.801   5.856 -0.4818  0.0234  0.0300
 6222TIP3    H240082   4.399   0.829   5.774 -0.7011 -0.9453  0.0201
 6223TIP3   OH240083   0.037   2.820  16.040  0.7531  0.1913 -0.0295
 6223TIP3    H140084   0.025   2.915  16.045 -0.4245  0.0247  0.6410
 6223TIP3    H240085   0.131   2.807  16.054  0.6479  1.1340  1.7710
 6224TIP3   OH240086   6.515   2.426  11.510  0.2213  0.2706  0.0590
 6224TIP3    H140087   6.549   2.426  11.421  1.7543  1.4350  0.5931
 6224TIP3    H240088   6.502   2.519  11.531  1.0882  0.1120  1.4588
 6225TIP3   OH240089   1.283   2.401   4.893 -0.1347 -1.1917  0.3618
 6225TIP3    H140090   1.229   2.340   4.844 -0.3992 -2.2163  1.8669
 6225TIP3    H240091   1.352   2.348   4.932 -0.5601 -0.6219  1.9761
 6226TIP3   OH240092   5.420   3.832  15.479 -0.1808 -0.2899  0.0049
 6226TIP3    H140093   5.387   3.922  15.474  1.7780  0.7934  3.3472
 6226TIP3    H240094   5.348   3.782  15.517 -0.9902  0.0155 -1.0860
 6227TIP3   OH240095   6.690   4.587   4.692 -0.3773 -0.4040  0.8241
 6227TIP3    H140096   6.697   4.681   4.707 -1.3615  0.0533 -1.2138
 6227TIP3    H240097   6.598   4.567   4.709  0.0931 -1.3186  2.5704
 6228TIP3   OH240098   1.080   5.448  15.425  0.3552  0.1689 -0.1163
 6228TIP3    H140099   1.056   5.472  15.515 -2.2922 -0.1758 -0.6294
 6228TIP3    H240100   1.174   5.431  15.429  0.6866  1.9489  2.1653
 6229TIP3   OH240101   1.263   5.579  15.233  0.5587  0.3651 -0.3703
 6229TIP3    H140102   1.207   5.651  15.263 -0.5976 -0.7228  0.2215
 6229TIP3    H240103   1.338   5.580  15.292  3.1126  4.0304 -3.2736
 6230TIP3   OH240104   6.519   6.186  17.211 -0.0382  0.0512 -0.1594
 6230TIP3    H140105   6.579   6.114  17.230 -0.1280  0.5938  2.5344
 6230TIP3    H240106   6.574   6.264  17.206 -0.3437  0.4200  1.4701
 6231TIP3   OH240107   1.659   2.686  12.217  0.0309 -0.3092 -0.0703
 6231TIP3    H140108   1.595   2.750  12.186 -0.4007  0.9058  2.9638
 6231TIP3    H240109   1.621   2.651  12.297  1.8804 -1.7774  0.2302
 6232TIP3   OH240110   3.311   1.152   1.119 -0.7530 -0.1481 -0.0328
 6232TIP3    H140111   3.247   1.119   1.056  0.5059 -1.3586 -0.7377
 6232TIP3    H240112   3.390   1.099   1.103  0.0940  0.5832  1.5076
 6233TIP3   OH240113   0.442   0.559  14.825  0.8329  0.0020  0.4725
 6233TIP3    H140114   0.460   0.613  14.902  1.2058 -1.3192  1.3450
 6233TIP3    H240115   0.375   0.497  14.855  0.7185 -0.2891 -0.3795
 6234TIP3   OH240116   6.295   5.831   0.238 -0.1490 -0.2944 -0.0694
 6234TIP3    H140117   6.345   5.911   0.246  0.1196 -0.5617  1.2198
 6234TIP3    H240118   6.205   5.857   0.260 -0.2118 -0.1931 -0.4464
 6235TIP3   OH240119   3.308   3.731  16.559  0.0881 -0.6190  0.6254
 6235TIP3    H140120   3.328   3.812  16.606  1.9071 -0.3600 -0.5171
 6235TIP3    H240121   3.338   3.661  16.618 -1.3919 -0.5234  1.5659
 6236TIP3   OH240122   4.838   4.444  15.358  0.3938 -0.1044 -0.3482
 6236TIP3    H140123   4.934   4.443  15.365  0.5631  1.0977 -1.8797
 6236TIP3    H240124   4.815   4.355  15.332  1.0272 -0.5670  0.6108
 6237TIP3   OH240125   2.309   4.659  15.823  0.4635  0.1326  0.6611
 6237TIP3    H140126   2.214   4.646  15.826  0.6842 -2.6684 -0.8293
 6237TIP3    H240127   2.330   4.656  15.730  1.8421  3.2069  0.7397
 6238TIP3   OH240128   6.396   2.814  13.298  0.2219  0.1727  0.1089
 6238TIP3    H140129   6.421   2.904  13.279  1.7742 -0.3866 -0.6693
 6238TIP3    H240130   6.358   2.782  13.216 -1.1273  0.3615  0.6430
 6239TIP3   OH240131   3.845   1.074   2.671  0.3195 -0.0697 -0.0253
 6239TIP3    H140132   3.839   1.152   2.725  0.6567 -0.5206  0.6852
 6239TIP3    H240133   3.759   1.065   2.630  0.4816  1.0372 -0.6437
 6240TIP3   OH240134   5.594   5.282   0.220 -0.3313 -0.0135 -0.1429
 6240TIP3    H140135   5.641   5.323   0.147 -0.5807  0.7974  0.1295
 6240TIP3    H240136   5.593   5.189   0.199 -2.5212  0.4225 -2.4313
 6241TIP3   OH240137   2.494   1.310  15.433  0.1786 -0.5428 -0.2021
 6241TIP3    H140138   2.457   1.305  15.521  0.1482  0.8240 -0.1096
 6241TIP3    H240139   2.418   1.323  15.376  0.3741  1.2742 -0.1158
 6242TIP3   OH240140   2.471   6.494  16.047  0.1567 -0.0279  0.7036
 6242TIP3    H140141   2.527   6.544  15.988  2.5542 -1.9211  1.2345
 6242TIP3    H240142   2.448   6.415  15.998  0.9379 -0.9181  1.7161
 6243TIP3   OH240143   1.729   2.285   3.530 -0.4357 -0.2704 -0.3309
 6243TIP3    H140144   1.820   2.267   3.508 -0.4941 -1.1909  0.1246
 6243TIP3    H240145   1.687   2.303   3.445  0.0129 -0.5604 -0.6181
 6244TIP3   OH240146   2.682   5.754   1.816 -0.4490 -0.1195  0.3607
 6244TIP3    H140147   2.774   5.737   1.796 -1.2318  0.0628 -4.6173
 6244TIP3    H240148   2.640   5.668   1.810 -0.9976  0.1866 -0.2208
 6245TIP3   OH240149   1.683   2.684   3.282 -0.2251 -0.0542  0.3542
 6245TIP3    H140150   1.693   2.684   3.377  2.5322  0.1801  0.1296
 6245TIP3    H240151   1.610   2.744   3.266 -1.8378 -1.3353  2.3464
 6246TIP3   OH240152   6.265   1.152   2.611  0.1173  0.9030 -0.4050
 6246TIP3    H140153   6.274   1.197   2.695 -2.2039  0.5775  0.1038
 6246TIP3    H240154   6.296   1.063   2.628  1.2021  1.2728 -0.3768
 6247TIP3   OH240155   6.335   5.644  13.416 -0.2871 -0.1976 -0.5354
 6247TIP3    H140156   6.250   5.631  13.374 -0.3909 -1.6834  0.0385
 6247TIP3    H240157   6.339   5.573  13.481  0.8361  0.6488  0.3406
 6248TIP3   OH240158   5.100   5.691   1.622  0.0581  0.2636  0.5186
 6248TIP3    H140159   5.160   5.619   1.604 -0.4985 -0.0445 -0.1503
 6248TIP3    H240160   5.081   5.684   1.716 -0.0235 -0.4857  0.4509
 6249TIP3   OH240161   2.285   2.601  17.222 -0.2611  0.4762 -0.4893
 6249TIP3    H140162   2.195   2.580  17.245  0.6355 -1.1588  1.9224
 6249TIP3    H240163   2.315   2.526  17.170  0.7649 -0.9666  1.9943
 6250TIP3   OH240164   5.093   1.077  15.639  0.0883  0.1488 -0.0467
 6250TIP3    H140165   5.032   1.143  15.605  1.0239  0.4815 -1.1399
 6250TIP3    H240166   5.174   1.125  15.655 -0.0759 -0.1625  1.9847
 6251TIP3   OH240167   0.732   4.110  15.634  0.2993 -0.2556 -0.5651
 6251TIP3    H140168   0.746   4.205  15.635  2.9038 -0.5712  0.0735
 6251TIP3    H240169   0.800   4.077  15.574  0.0054 -1.7954 -0.0875
 6252TIP3   OH240170   4.228   2.898   1.724  0.1326  0.1442  0.1428
 6252TIP3    H140171   4.271   2.981   1.702  0.7579 -0.4513 -0.9920
 6252TIP3    H240172   4.296   2.832   1.712 -1.2535 -0.9533 -2.7361
 6253TIP3   OH240173   5.575   4.123   5.348  0.1843 -0.8971 -0.3590
 6253TIP3    H140174   5.652   4.158   5.393  0.6294 -0.5411 -1.3645
 6253TIP3    H240175   5.516   4.097   5.418 -0.0124  1.4998  0.4773
 6254TIP3   OH240176   2.732   6.162   3.396 -0.3656 -0.2340 -0.0159
 6254TIP3    H140177   2.801   6.181   3.333  0.3799  0.9661  1.1047
 6254TIP3    H240178   2.667   6.231   3.381 -0.6204 -0.4890 -0.0866
 6255TIP3   OH240179   1.728   3.182  14.700 -0.3047  0.1168 -0.1687
 6255TIP3    H140180   1.816   3.201  14.731 -0.1185 -0.3654 -0.3921
 6255TIP3    H240181   1.720   3.087  14.709 -1.1788  0.2669  0.8571
 6256TIP3   OH240182   5.523   6.607   5.073 -0.5341 -0.2997 -0.0784
 6256TIP3    H140183   5.449   6.580   5.019 -0.4370 -0.5665 -0.0765
 6256TIP3    H240184   5.576   6.662   5.014  0.3279 -1.7516 -0.7068
 6257TIP3   OH240185   0.059   2.515  13.776 -0.0493 -0.9979  0.7264
 6257TIP3    H140186   0.001   2.558  13.713 -0.5239 -2.4044  0.1566
 6257TIP3    H240187   0.124   2.581  13.797 -1.0284  0.1584  0.2752
 6258TIP3   OH240188   6.771   3.204  10.622  0.0101  0.2867  0.1159
 6258TIP3    H140189   6.767   3.231  10.714 -1.1809 -1.3458  0.5994
 6258TIP3    H240190   6.812   3.117  10.625 -0.5529 -0.0180 -0.8295
 6259TIP3   OH240191   2.166   4.616   2.566 -0.0594  0.3728 -0.8578
 6259TIP3    H140192   2.182   4.645   2.476  1.0348  1.9260 -0.2073
 6259TIP3    H240193   2.244   4.566   2.589 -1.2428 -1.8649 -1.4212
 6260TIP3   OH240194   1.631   4.609   1.717  0.2533 -0.2048  0.2986
 6260TIP3    H140195   1.674   4.559   1.786 -0.1698 -0.4618  0.3732
 6260TIP3    H240196   1.570   4.548   1.676 -0.9553  0.4944  1.0001
 6261TIP3   OH240197   4.371   4.847  16.317  0.1028 -0.3307  0.1937
 6261TIP3    H140198   4.326   4.775  16.362  1.4576 -0.3481  1.6388
 6261TIP3    H240199   4.425   4.804  16.251 -1.6963 -0.3302 -1.3325
 6262TIP3   OH240200   6.531   5.522   3.003  1.1299  0.3131 -0.4483
 6262TIP3    H140201   6.462   5.581   3.033  0.7515 -0.1822 -0.3160
 6262TIP3    H240202   6.518   5.515   2.909 -1.1240 -2.3322 -0.0736
 6263TIP3   OH240203   3.663   3.578   5.335 -0.0185 -0.3545 -0.6621
 6263TIP3    H140204   3.706   3.663   5.323 -1.5463  0.5020 -0.3722
 6263TIP3    H240205   3.582   3.585   5.284 -1.1469 -0.8489  0.9730
 6264TIP3   OH240206   1.127   0.963   1.423  0.0039 -0.1593 -0.0402
 6264TIP3    H140207   1.188   0.906   1.377 -2.9211 -1.9571 -2.0131
 6264TIP3    H240208   1.109   0.918   1.506  0.8639  0.1026  0.3012
 6265TIP3   OH240209   0.710   2.585  13.083 -0.1708  0.0304 -0.0407
 6265TIP3    H140210   0.652   2.657  13.058 -1.3924 -0.7078  0.5473
 6265TIP3    H240211   0.786   2.593  13.025 -0.9581  0.9074 -0.9843
 6266TIP3   OH240212   0.772   3.127   3.585 -0.5135  0.0548 -0.2240
 6266TIP3    H140213   0.788   3.125   3.680 -1.1983 -0.8789 -0.1139
 6266TIP3    H240214   0.790   3.038   3.555  3.9563  1.2426 -1.7821
 6267TIP3   OH240215   6.587   2.102   3.194 -0.3580  0.0596 -0.0469
 6267TIP3    H140216   6.532   2.089   3.117 -0.4089  1.8597 -0.3434
 6267TIP3    H240217   6.649   2.170   3.168  0.2733 -0.0306  1.1710
 6268TIP3   OH240218   3.531   2.214   0.818 -0.4926  0.1239 -0.1932
 6268TIP3    H140219   3.593   2.261   0.763 -0.2674 -1.7789 -1.6529
 6268TIP3    H240220   3.582   2.146   0.862 -1.1080  0.1126  0.5486
 6269TIP3   OH240221   4.321   4.788   2.111  0.1132 -0.2122 -0.1353
 6269TIP3    H140222   4.410   4.823   2.103  0.1552 -0.3834 -0.4047
 6269TIP3    H240223   4.265   4.856   2.073  0.2803 -0.8726 -1.6192
 6270TIP3   OH240224   5.743   6.558   0.316 -0.0098  0.4776 -0.2122
 6270TIP3    H140225   5.708   6.469   0.316 -0.8028  0.7495  1.7388
 6270TIP3    H240226   5.716   6.595   0.400  1.7181  2.0119 -0.2702
 6271TIP3   OH240227   4.891   3.577   2.961  0.2948  0.0034  0.4047
 6271TIP3    H140228   4.950   3.652   2.967  0.1449 -0.0015  4.1595
 6271TIP3    H240229   4.929   3.522   2.893  1.8134  2.2481 -0.6878
 6272TIP3   OH240230   3.475   0.659  12.750  0.3394 -0.2439  0.3611
 6272TIP3    H140231   3.515   0.721  12.812  1.4731 -1.8833  1.3479
 6272TIP3    H240232   3.522   0.675  12.668  0.9176 -0.0747  0.7160
 6273TIP3   OH240233   1.402   5.657   1.553  0.3316 -0.4413 -0.0083
 6273TIP3    H140234   1.432   5.747   1.541 -1.2458  0.3974  1.9023
 6273TIP3    H240235   1.391   5.624   1.463 -0.5175  1.7647 -0.7873
 6274TIP3   OH240236   6.698   1.554   2.527 -0.0960 -0.2773  0.5188
 6274TIP3    H140237   6.695   1.496   2.603  0.1795 -0.1337  0.6401
 6274TIP3    H240238   6.720   1.640   2.563  1.8953 -0.5584  0.0919
 6275TIP3   OH240239   4.368   5.244   5.575  0.3450  0.9017 -0.4320
 6275TIP3    H140240   4.420   5.172   5.609  1.2408  0.2371 -2.9225
 6275TIP3    H240241   4.305   5.265   5.644  0.5441 -1.7543  0.6441
 6276TIP3   OH240242   3.163   3.033  13.658  0.1632  0.2717  0.1162
 6276TIP3    H140243   3.169   3.021  13.753  1.6901  2.5640  0.3934
 6276TIP3    H240244   3.247   3.001  13.624 -0.3273 -0.4264 -0.4674
 6277TIP3   OH240245   3.924   6.425  14.722 -0.3312  0.4400 -0.0859
 6277TIP3    H140246   3.963   6.470  14.796 -1.3466  1.6148 -0.2326
 6277TIP3    H240247   3.996   6.413  14.660  0.3219  0.2830  0.6858
 6278TIP3   OH240248   6.716   0.462  11.836 -0.7566  0.9264  0.1997
 6278TIP3    H140249   6.798   0.429  11.872 -1.5461 -1.2270  0.1796
 6278TIP3    H240250   6.649   0.403  11.871 -2.3331  2.6682  0.2831
 6279TIP3   OH240251   1.545   0.903  15.458  0.2498 -0.4990 -0.0523
 6279TIP3    H140252   1.576   0.897  15.549 -0.3156 -0.1538  0.1660
 6279TIP3    H240253   1.512   0.993  15.450  0.7546 -0.3652 -0.7478
 6280TIP3   OH240254   6.350   4.106   4.873  0.1464  0.1933 -0.2858
 6280TIP3    H140255   6.291   4.148   4.937  0.7932  0.5358  0.1006
 6280TIP3    H240256   6.344   4.162   4.796  0.8234  0.8882  0.1461
 6281TIP3   OH240257   5.553   6.051  14.620 -0.6104  0.4707 -0.4841
 6281TIP3    H140258   5.594   6.137  14.632  2.5753 -1.0366  0.3975
 6281TIP3    H240259   5.519   6.029  14.707  0.7270 -0.1090 -0.0764
 6282TIP3   OH240260   1.176   1.577  14.162  0.3842  0.1145  0.6022
 6282TIP3    H140261   1.235   1.626  14.105 -1.1664  0.3572 -0.8706
 6282TIP3    H240262   1.186   1.618  14.248  1.2400  1.1231  0.0412
 6283TIP3   OH240263   5.518   5.785   5.115 -0.2648 -0.1648  0.1163
 6283TIP3    H140264   5.442   5.768   5.059 -0.6349 -2.3772  1.1571
 6283TIP3    H240265   5.487   5.851   5.177 -0.3838  1.0580 -1.1830
 6284TIP3   OH240266   1.539   4.607  11.859 -0.5110 -0.1574 -0.2559
 6284TIP3    H140267   1.599   4.682  11.858 -1.7794  0.8779 -0.3033
 6284TIP3    H240268   1.524   4.587  11.767  0.0490 -0.6829 -0.2455
 6285TIP3   OH240269   2.564   5.914  13.477  0.2308 -0.1766  0.8135
 6285TIP3    H140270   2.500   5.843  13.479  1.2253 -1.1680 -0.7561
 6285TIP3    H240271   2.648   5.872  13.499  1.1665  0.0453 -1.9928
 6286TIP3   OH240272   0.604   1.532   2.956  0.2602 -0.2859 -0.0211
 6286TIP3    H140273   0.521   1.490   2.933 -0.1555  0.3707  0.2413
 6286TIP3    H240274   0.664   1.460   2.973 -0.0498 -0.7727 -0.9440
 6287TIP3   OH240275   6.522   2.575   5.682  0.2642  0.7274  0.5080
 6287TIP3    H140276   6.574   2.644   5.642 -0.9795  2.1809  1.2706
 6287TIP3    H240277   6.448   2.562   5.622 -1.3355  2.5589  1.9425
 6288TIP3   OH240278   4.090   4.824   1.915  0.2113 -0.4716 -0.4322
 6288TIP3    H140279   4.088   4.769   1.838 -0.5181  0.5588 -1.1893
 6288TIP3    H240280   4.172   4.872   1.909  0.7141 -1.2540  0.0790
 6289TIP3   OH240281   2.022   1.695   3.708 -0.3387 -0.3550 -0.0859
 6289TIP3    H140282   2.079   1.674   3.634  0.2527 -0.0220  0.2648
 6289TIP3    H240283   2.076   1.750   3.765 -0.4647 -1.3439  1.0327
 6290TIP3   OH240284   6.262   6.433   0.819 -0.6553 -0.0900 -0.8847
 6290TIP3    H140285   6.346   6.480   0.825 -1.2511  0.9245 -0.1721
 6290TIP3    H240286   6.260   6.378   0.898 -1.1675  0.7868 -0.2662
 6291TIP3   OH240287   1.960   6.586   1.116  0.1120  0.0810  0.2477
 6291TIP3    H140288   1.902   6.611   1.188  0.2914 -0.8922  0.7536
 6291TIP3    H240289   1.909   6.604   1.037 -0.5585  0.0413  0.6606
 6292TIP3   OH240290   5.559   2.047   2.432  0.9774 -0.4199 -0.5078
 6292TIP3    H140291   5.484   2.000   2.468  1.6701 -0.4155  1.0287
 6292TIP3    H240292   5.603   1.982   2.376  2.2033 -1.8594  1.9728
 6293TIP3   OH240293   3.678   4.240   0.272 -0.2016  0.0255  0.3513
 6293TIP3    H140294   3.750   4.217   0.213  1.3627  0.1038  2.0992
 6293TIP3    H240295   3.619   4.165   0.269  1.2534 -1.1917  0.7029
 6294TIP3   OH240296   3.723   4.842  14.183 -0.1627  0.2637  0.0721
 6294TIP3    H140297   3.718   4.757  14.226  0.2533 -1.0501 -2.2896
 6294TIP3    H240298   3.815   4.852  14.160 -0.5630  0.2583 -1.6531
 6295TIP3   OH240299   2.137   3.394   4.602 -0.2478  0.5338 -0.4141
 6295TIP3    H140300   2.044   3.378   4.620 -0.2711 -0.0917 -1.0421
 6295TIP3    H240301   2.173   3.307   4.585  0.5242  0.7377  0.1186
 6296TIP3   OH240302   5.013   6.548  16.377  0.6858 -0.4146 -0.4528
 6296TIP3    H140303   4.937   6.549  16.319  0.4635 -1.3559 -0.1962
 6296TIP3    H240304   5.021   6.457  16.404  1.9161 -0.3334 -0.4838
 6297TIP3   OH240305   2.183   1.659  11.856  0.0163  0.2460 -0.4050
 6297TIP3    H140306   2.234   1.578  11.848 -2.0392 -1.3525  1.1878
 6297TIP3    H240307   2.116   1.651  11.787 -1.0528 -0.1773  0.6399
 6298TIP3   OH240308   2.453   5.031  14.624  0.1063  0.2857 -0.1821
 6298TIP3    H140309   2.423   4.947  14.657  0.7719  1.0807  2.6528
 6298TIP3    H240310   2.452   5.020  14.528 -1.9514 -2.1451  0.0059
 6299TIP3   OH240311   4.598   1.620  11.185  0.6184  0.0339 -0.8932
 6299TIP3    H140312   4.682   1.618  11.231  0.3675  0.4695 -0.4032
 6299TIP3    H240313   4.622   1.635  11.094  1.0903 -0.1933 -0.8144
 6300TIP3   OH240314   0.422   2.611  11.912  0.2303  0.6074  0.0984
 6300TIP3    H140315   0.375   2.541  11.958 -0.8634  1.7665  0.8139
 6300TIP3    H240316   0.485   2.644  11.976  0.7670  0.2758 -0.2490
 6301TIP3   OH240317   1.860   2.867  16.972 -0.1989 -0.0608 -0.1083
 6301TIP3    H140318   1.858   2.803  16.902 -2.4383 -0.1792 -0.0150
 6301TIP3    H240319   1.768   2.888  16.988  0.3649  1.6400  1.2648
 6302TIP3   OH240320   6.523   3.627  12.656  0.2198  0.3249 -0.4352
 6302TIP3    H140321   6.605   3.611  12.702 -0.9682 -0.7575  1.4310
 6302TIP3    H240322   6.456   3.616  12.723 -1.4399  1.7055 -1.7845
 6303TIP3   OH240323   3.388   0.422  13.717 -0.5354 -0.6978 -0.1262
 6303TIP3    H140324   3.472   0.453  13.683 -1.0026  0.4508 -0.2701
 6303TIP3    H240325   3.408   0.396  13.807  0.3074 -2.0082 -0.6561
 6304TIP3   OH240326   3.240   1.724   3.007 -0.3205 -0.0048  0.1282
 6304TIP3    H140327   3.269   1.804   2.964  0.5510  0.3365  1.2957
 6304TIP3    H240328   3.146   1.739   3.024 -0.3794  0.3701 -0.5002
 6305TIP3   OH240329   1.166   2.837   1.663  0.1533 -0.2294 -0.3440
 6305TIP3    H140330   1.081   2.872   1.689 -0.5782 -1.2958 -1.1980
 6305TIP3    H240331   1.229   2.903   1.693 -1.0886  1.4703 -1.2954
 6306TIP3   OH240332   3.095   6.753   1.605 -0.5016  0.5847 -0.7449
 6306TIP3    H140333   3.161   6.712   1.549  1.6348 -0.6667  2.4101
 6306TIP3    H240334   3.141   6.825   1.647 -2.2898  2.0163 -1.0895
 6307TIP3   OH240335   4.704   3.581   0.158  0.0641 -0.1560 -0.2695
 6307TIP3    H140336   4.622   3.532   0.151 -0.4825  0.6695  0.2362
 6307TIP3    H240337   4.692   3.655   0.099 -0.1782  0.8205  0.9856
 6308TIP3   OH240338   3.056   5.219  13.746  0.3845 -0.3788  0.3272
 6308TIP3    H140339   3.120   5.268  13.695 -0.6393  0.8734  0.1841
 6308TIP3    H240340   3.005   5.170  13.681 -0.4436  0.6437  0.1753
 6309TIP3   OH240341   5.827   5.927   3.425 -0.3424 -0.0849  0.7219
 6309TIP3    H140342   5.732   5.943   3.420 -0.1666  1.3036  1.3743
 6309TIP3    H240343   5.843   5.912   3.518  0.1699  0.3942  0.7144
 6310TIP3   OH240344   4.367   2.886   3.170  0.5548  0.1366 -0.5010
 6310TIP3    H140345   4.454   2.899   3.207  0.4129  0.0398 -0.1236
 6310TIP3    H240346   4.321   2.834   3.236 -0.2132  1.3239 -0.0644
 6311TIP3   OH240347   5.220   4.855  11.053 -0.9009 -0.0690 -0.1403
 6311TIP3    H140348   5.289   4.834  10.990 -0.8587  1.1142 -0.5173
 6311TIP3    H240349   5.139   4.846  11.004 -0.8871  0.5366 -0.2780
 6312TIP3   OH240350   3.427   2.583  16.432  0.1155  0.0719 -0.2872
 6312TIP3    H140351   3.370   2.646  16.476  1.5338 -0.4656  2.5921
 6312TIP3    H240352   3.370   2.539  16.369 -2.1370  0.9795  0.9908
 6313TIP3   OH240353   2.169   4.018   2.794 -0.4215  0.0137  0.0183
 6313TIP3    H140354   2.126   3.979   2.870 -0.4875 -0.7297 -0.3887
 6313TIP3    H240355   2.135   3.969   2.719 -0.9769  1.2619 -0.5878
 6314TIP3   OH240356   0.694   4.127   3.912  0.0181  0.3445 -0.3661
 6314TIP3    H140357   0.694   4.035   3.888 -1.0603  0.6753 -1.7970
 6314TIP3    H240358   0.629   4.134   3.982 -0.4111  0.1169 -0.7388
 6315TIP3   OH240359   2.511   4.729   0.827 -0.3340 -0.0083  0.5420
 6315TIP3    H140360   2.607   4.733   0.828 -0.2704 -1.0857  0.2357
 6315TIP3    H240361   2.488   4.741   0.735 -0.3689 -1.5613  0.3186
 6316TIP3   OH240362   3.668   3.081   4.671  0.8116  0.6608  0.1469
 6316TIP3    H140363   3.610   3.153   4.696 -0.6904 -1.4934  3.6271
 6316TIP3    H240364   3.740   3.086   4.734 -0.0030 -1.5204  1.3522
 6317TIP3   OH240365   0.729   4.391   1.452  0.4813 -0.0388 -0.0264
 6317TIP3    H140366   0.685   4.338   1.385  0.9273 -1.5868  0.8375
 6317TIP3    H240367   0.789   4.330   1.495 -0.0394  0.7796  2.0199
 6318TIP3   OH240368   1.204   3.114  12.655  0.3719  0.2988 -0.0688
 6318TIP3    H140369   1.244   3.182  12.710  0.9720  0.8699 -1.1809
 6318TIP3    H240370   1.126   3.088  12.703  0.4765  1.3207  0.6946
 6319TIP3   OH240371   3.030   2.846  15.088 -0.1347  0.0594  0.0498
 6319TIP3    H140372   3.055   2.784  15.019 -0.7095 -0.5554  0.3730
 6319TIP3    H240373   3.104   2.844  15.149 -0.8760 -1.7208  0.9861
 6320TIP3   OH240374   0.342   5.382  11.187 -0.1276 -0.2714  0.3267
 6320TIP3    H140375   0.326   5.304  11.134  0.0235 -0.4438  0.5357
 6320TIP3    H240376   0.437   5.385  11.197 -0.1815 -0.4622  0.9253
 6321TIP3   OH240377   0.093   4.316  15.927 -0.5621  0.3451 -0.1597
 6321TIP3    H140378   0.041   4.393  15.949 -0.2418  0.7372 -0.7607
 6321TIP3    H240379   0.171   4.351  15.883 -0.8221 -0.3702 -1.2273
 6322TIP3   OH240380   3.140   0.732  12.780 -0.0706 -0.5604  0.4408
 6322TIP3    H140381   3.193   0.699  12.707  0.3391  2.7909 -0.9475
 6322TIP3    H240382   3.049   0.715  12.753  0.1209 -0.7855 -0.0782
 6323TIP3   OH240383   0.908   5.266  10.366 -0.6375 -0.3759  0.0456
 6323TIP3    H140384   0.850   5.342  10.367 -0.3366 -0.1467  0.3855
 6323TIP3    H240385   0.931   5.252  10.458  1.0826  0.4906 -0.2010
 6324TIP3   OH240386   2.680   6.526   0.541 -0.0929 -0.2407 -0.2903
 6324TIP3    H140387   2.700   6.563   0.627  0.6818 -2.5941  0.6096
 6324TIP3    H240388   2.586   6.508   0.544 -0.3687  1.0502 -0.5373
 6325TIP3   OH240389   3.300   4.859   5.255  0.0491 -0.3515 -0.2786
 6325TIP3    H140390   3.237   4.809   5.307 -1.3551  0.6276 -0.9790
 6325TIP3    H240391   3.351   4.792   5.210 -0.2337 -1.1741  0.5779
 6326TIP3   OH240392   4.349   2.371   3.090 -0.2480 -0.1530  0.3971
 6326TIP3    H140393   4.391   2.388   3.006 -3.7330  1.6660 -1.1736
 6326TIP3    H240394   4.331   2.277   3.090 -2.2434  0.1308 -2.0810
 6327TIP3   OH240395   4.455   2.278   4.323  0.1888  0.5778 -0.0026
 6327TIP3    H140396   4.496   2.360   4.296  0.5432  0.9660  1.5963
 6327TIP3    H240397   4.453   2.282   4.418 -0.5645 -0.9108  0.0858
 6328TIP3   OH240398   6.583   1.288   0.356  0.2231  0.2616  0.4818
 6328TIP3    H140399   6.616   1.199   0.347 -0.8777 -0.4856  2.8186
 6328TIP3    H240400   6.499   1.287   0.310  0.5106  0.2815 -0.0424
 6329TIP3   OH240401   1.865   0.021   4.765  0.4353 -0.5395  0.3323
 6329TIP3    H140402   1.772   0.042   4.768  0.6529  0.8226 -0.8916
 6329TIP3    H240403   1.888  -0.001   4.855 -0.8987 -0.1085  0.8054
 6330TIP3   OH240404   4.426   2.819  16.748 -0.2712  0.1685  0.0519
 6330TIP3    H140405   4.361   2.793  16.683 -1.3262 -0.5339  1.3322
 6330TIP3    H240406   4.393   2.783  16.831  1.1409  0.8260  0.9425
 6331TIP3   OH240407   6.586   5.185  16.145  0.1144  0.6825  0.6428
 6331TIP3    H140408   6.615   5.140  16.225 -0.7804  1.7350  1.5872
 6331TIP3    H240409   6.505   5.141  16.121  0.2030  0.5963  0.4938
 6332TIP3   OH240410   3.510   4.330   3.293  0.9390 -0.0370  0.3588
 6332TIP3    H140411   3.557   4.380   3.360  1.4983  1.7914 -1.3113
 6332TIP3    H240412   3.457   4.395   3.248  0.1621 -1.3204 -0.6450
 6333TIP3   OH240413   3.914   1.828  14.807 -0.1403 -0.4283 -0.8069
 6333TIP3    H140414   3.899   1.917  14.839  1.0677 -0.1824 -0.8886
 6333TIP3    H240415   3.857   1.774  14.862  1.0277  0.1115  1.0562
 6334TIP3   OH240416   3.662   6.124   5.052  0.1928 -0.1904  0.0870
 6334TIP3    H140417   3.634   6.114   5.143  0.3341 -0.3173  0.1174
 6334TIP3    H240418   3.693   6.037   5.027 -0.8556 -0.4417 -0.4273
 6335TIP3   OH240419   3.506   4.525  15.811  0.4569  0.0555  0.0378
 6335TIP3    H140420   3.411   4.527  15.802 -0.2152 -3.3004  3.7527
 6335TIP3    H240421   3.535   4.466  15.741 -0.5967 -1.1711  0.6030
 6336TIP3   OH240422   4.957   0.094   6.340  0.2126 -0.2618  0.2056
 6336TIP3    H140423   4.907   0.072   6.418 -1.0584 -0.9272 -0.7499
 6336TIP3    H240424   4.891   0.119   6.275  1.2049  0.0199 -0.7422
 6337TIP3   OH240425   6.338   4.339   0.261  0.6523  0.7476  0.3612
 6337TIP3    H140426   6.297   4.358   0.177 -1.0449 -0.4164  0.8654
 6337TIP3    H240427   6.268   4.301   0.314  1.8019  0.9676  2.1386
 6338TIP3   OH240428   2.122   0.912   2.094  0.2760 -0.5022  0.0544
 6338TIP3    H140429   2.194   0.970   2.068  0.2425 -0.6937 -0.4692
 6338TIP3    H240430   2.161   0.854   2.160  0.7784 -1.0320 -0.6968
 6339TIP3   OH240431   6.026   3.538  11.144 -0.6792 -0.8132  0.3934
 6339TIP3    H140432   5.941   3.517  11.105 -0.0001  0.1320 -1.7727
 6339TIP3    H240433   6.028   3.633  11.148  0.4819 -0.7969 -0.1236
 6340TIP3   OH240434   0.342   4.948   4.006 -0.1268 -0.0567  0.0017
 6340TIP3    H140435   0.359   4.999   3.926  0.6501  0.3510  0.4177
 6340TIP3    H240436   0.246   4.949   4.014 -0.3548 -1.6710 -1.9143
 6341TIP3   OH240437   6.270   0.278   1.137  0.0122  0.1345 -0.3745
 6341TIP3    H140438   6.178   0.256   1.153  0.4194 -1.5791 -0.1453
 6341TIP3    H240439   6.292   0.340   1.206 -0.8741  0.2978 -0.2161
 6342TIP3   OH240440   4.920   0.859   3.986 -0.2474 -0.4354  0.2750
 6342TIP3    H140441   4.976   0.869   4.062 -0.7446  3.0473  0.3483
 6342TIP3    H240442   4.977   0.875   3.911 -0.3129 -1.0369  0.0960
 6343TIP3   OH240443   0.316   6.017   3.992  0.3683 -0.2120  0.0216
 6343TIP3    H140444   0.252   5.988   3.927  1.6038  0.4176 -1.5502
 6343TIP3    H240445   0.298   5.964   4.069 -1.6507 -0.4553 -0.5668
 6344TIP3   OH240446   4.751   0.097  12.314  0.4830 -0.0660 -0.3742
 6344TIP3    H140447   4.813   0.027  12.333  0.8610  0.3697  0.0392
 6344TIP3    H240448   4.762   0.114  12.220  0.5126 -0.4398 -0.4406
 6345TIP3   OH240449   5.422   3.154  13.647  0.4700  0.0938 -0.4592
 6345TIP3    H140450   5.432   3.060  13.666 -1.0764  0.2318  1.2165
 6345TIP3    H240451   5.411   3.195  13.733 -3.2932  1.2406 -1.3369
 6346TIP3   OH240452   3.208   2.061  13.630  0.2481 -0.5042  0.3603
 6346TIP3    H140453   3.268   2.094  13.564  1.7433 -1.5804  1.1234
 6346TIP3    H240454   3.126   2.107  13.613  1.7615  2.4387  0.4148
 6347TIP3   OH240455   6.703   2.411   2.357 -0.0206  0.0034 -0.6154
 6347TIP3    H140456   6.671   2.329   2.394  0.8365 -0.2370 -0.3647
 6347TIP3    H240457   6.626   2.466   2.348 -0.2779  0.0030  1.3419
 6348TIP3   OH240458   3.287   2.996  10.722  0.4788  0.2272 -0.1452
 6348TIP3    H140459   3.224   2.931  10.692  0.1181  1.9017 -3.4892
 6348TIP3    H240460   3.235   3.070  10.750  0.9090  0.8250 -0.8912
 6349TIP3   OH240461   6.710   5.645   4.097 -0.0721 -0.4038 -0.3987
 6349TIP3    H140462   6.722   5.734   4.130 -1.6954  0.2498 -1.4736
 6349TIP3    H240463   6.797   5.606   4.104  1.0601  1.7686 -1.3424
 6350TIP3   OH240464   5.982   5.378  15.995 -0.2141 -0.0139  0.4343
 6350TIP3    H140465   5.899   5.345  15.961 -0.5743  1.6666 -0.4197
 6350TIP3    H240466   5.960   5.463  16.033  0.8557 -0.2517  1.6785
 6351TIP3   OH240467   5.092   4.245  12.122  0.1929 -0.2818  0.2388
 6351TIP3    H140468   5.154   4.198  12.178 -0.3108 -1.4326 -0.1408
 6351TIP3    H240469   5.113   4.216  12.033 -1.4183 -1.3559  0.1710
 6352TIP3   OH240470   4.981   4.883  12.739  0.0927 -0.4005 -0.4713
 6352TIP3    H140471   5.002   4.907  12.649 -0.1669  1.6529 -0.0169
 6352TIP3    H240472   5.062   4.899  12.787 -0.2387  0.0447 -0.0613
 6353TIP3   OH240473   1.429   4.768   5.295 -0.4434 -0.2075  0.5329
 6353TIP3    H140474   1.435   4.736   5.205 -0.8165  0.7644  0.1502
 6353TIP3    H240475   1.519   4.781   5.322 -0.3418 -0.1809  0.1821
 6354TIP3   OH240476   5.403   5.137   4.800 -0.3508  0.0780  0.1972
 6354TIP3    H140477   5.409   5.214   4.857 -1.7942 -0.0524  0.5493
 6354TIP3    H240478   5.407   5.173   4.712  2.0760  0.2710  0.2962
 6355TIP3   OH240479   0.987   4.312  15.407 -0.1059 -0.6533 -0.4375
 6355TIP3    H140480   0.892   4.299  15.404 -0.4403  1.2780  0.0361
 6355TIP3    H240481   1.019   4.240  15.461 -1.5496 -0.2813  0.9886
 6356TIP3   OH240482   4.299   0.615  15.180 -0.4244  0.5815 -0.0375
 6356TIP3    H140483   4.244   0.659  15.115 -1.0670 -1.9515 -1.3284
 6356TIP3    H240484   4.238   0.594  15.252 -0.6651 -0.1764 -0.4467
 6357TIP3   OH240485   5.328   6.285   3.509 -0.1499  0.5087  0.2109
 6357TIP3    H140486   5.354   6.312   3.421  1.5313 -0.4829  0.3555
 6357TIP3    H240487   5.405   6.305   3.564 -0.3634 -0.8038  1.0444
 6358TIP3   OH240488   5.991   0.699  11.849 -0.0364 -0.6783 -0.1531
 6358TIP3    H140489   6.084   0.716  11.866 -0.1453  0.2582 -0.4433
 6358TIP3    H240490   5.974   0.614  11.891  0.2786  0.4192  2.3930
 6359TIP3   OH240491   4.895   4.585   1.272 -0.5094 -0.1813  0.5418
 6359TIP3    H140492   4.854   4.590   1.186 -0.1210 -1.3402  0.2686
 6359TIP3    H240493   4.967   4.648   1.269  0.7738 -1.6594 -0.7175
 6360TIP3   OH240494   5.299   2.782  16.123 -0.1822 -0.0123  0.4826
 6360TIP3    H140495   5.393   2.765  16.115  0.0708  1.7546 -1.0303
 6360TIP3    H240496   5.267   2.784  16.033 -1.4776  0.3721  0.9261
 6361TIP3   OH240497   4.071   0.900   5.158 -0.2911 -0.2884  0.4390
 6361TIP3    H140498   4.001   0.955   5.193 -1.3500 -1.8181  0.8143
 6361TIP3    H240499   4.062   0.817   5.205 -0.2020 -1.5764 -1.7054
 6362TIP3   OH240500   0.387   0.288   4.794  0.9156 -0.2902  0.7908
 6362TIP3    H140501   0.378   0.219   4.730  0.5757 -1.6311  2.2175
 6362TIP3    H240502   0.363   0.368   4.747 -2.9432 -1.6360  0.1258
 6363TIP3   OH240503   3.619   4.774   3.506 -0.0103 -0.0995 -0.1777
 6363TIP3    H140504   3.670   4.764   3.586 -2.5253  2.0047  1.8567
 6363TIP3    H240505   3.560   4.699   3.505  0.1765 -0.2454 -0.1773
 6364TIP3   OH240506   3.406   5.474   0.383 -0.2963  0.3237 -0.2065
 6364TIP3    H140507   3.437   5.543   0.442  2.1560 -1.8332  1.2223
 6364TIP3    H240508   3.455   5.489   0.302 -0.6420  0.9048 -0.3178
 6365TIP3   OH240509   0.416   2.019  15.551 -0.7153 -0.0509 -0.0662
 6365TIP3    H140510   0.505   1.991  15.572 -0.9266 -0.8755 -0.2323
 6365TIP3    H240511   0.389   1.961  15.480 -1.1255  0.6743 -0.5258
 6366TIP3   OH240512   4.474   1.679   0.994 -0.1653  0.1657  0.5172
 6366TIP3    H140513   4.453   1.603   0.939  1.5912  1.2320 -1.7856
 6366TIP3    H240514   4.461   1.648   1.084  0.4859 -2.8436 -0.3220
 6367TIP3   OH240515   1.524   3.076   3.293  0.0024 -0.0248 -0.4383
 6367TIP3    H140516   1.609   3.097   3.331 -0.8956  1.2195  1.0147
 6367TIP3    H240517   1.466   3.066   3.368 -1.6043  1.4242 -1.4082
 6368TIP3   OH240518   4.672   0.797   2.606  0.4256 -0.2081 -0.0289
 6368TIP3    H140519   4.732   0.741   2.557  0.0362 -1.7161  1.1336
 6368TIP3    H240520   4.652   0.746   2.685 -0.8939  1.0792  0.4977
 6369TIP3   OH240521   6.764   4.491   6.368  0.3988  0.0551  0.5146
 6369TIP3    H140522   6.767   4.454   6.456  2.8182 -1.0911  0.0373
 6369TIP3    H240523   6.797   4.420   6.311  2.4435  1.9266 -0.8022
 6370TIP3   OH240524   5.248   5.166  17.228 -0.0354 -0.2819 -0.4233
 6370TIP3    H140525   5.284   5.223  17.160  0.0359  0.1923  0.0057
 6370TIP3    H240526   5.325   5.134  17.275 -0.1717  2.2185  1.6983
 6371TIP3   OH240527   5.115   0.638   0.298  0.1293 -0.0252 -0.1401
 6371TIP3    H140528   5.160   0.623   0.380  1.8346 -0.3942 -1.1021
 6371TIP3    H240529   5.140   0.727   0.272 -0.7816  0.2743 -0.0470
 6372TIP3   OH240530   3.249   1.807  14.907 -0.6975  0.0666 -0.1584
 6372TIP3    H140531   3.196   1.799  14.828  0.1423 -1.5187 -0.6067
 6372TIP3    H240532   3.208   1.748  14.970  0.1631 -0.7705 -0.3410
 6373TIP3   OH240533   6.604   4.348   4.870  0.8841  0.2483 -0.4942
 6373TIP3    H140534   6.549   4.281   4.829  1.3623 -0.4634 -0.0035
 6373TIP3    H240535   6.693   4.324   4.845  1.1588 -0.0063  0.6619
 6374TIP3   OH240536   5.017   6.178  16.744  0.0186  0.5538 -0.1860
 6374TIP3    H140537   5.018   6.147  16.654  0.6679  0.1012 -0.0252
 6374TIP3    H240538   5.022   6.273  16.736 -3.7491  0.8919 -0.7476
 6375TIP3   OH240539   0.476   1.760   2.887  0.7597  0.2774  0.0989
 6375TIP3    H140540   0.515   1.675   2.906 -0.0264 -0.1354 -0.0868
 6375TIP3    H240541   0.385   1.740   2.865  0.0645  1.3079  1.7983
 6376TIP3   OH240542   6.414   3.519  14.363  0.4832  0.0936  0.1625
 6376TIP3    H140543   6.467   3.451  14.323 -0.3493  0.9141 -2.4997
 6376TIP3    H240544   6.476   3.574  14.410  1.3636 -1.4919  0.9300
 6377TIP3   OH240545   2.477   0.276  14.512 -0.2056 -0.4358 -0.2502
 6377TIP3    H140546   2.390   0.294  14.548  0.4083 -0.7495  1.4820
 6377TIP3    H240547   2.460   0.245  14.423 -1.7644  0.7891 -0.4136
 6378TIP3   OH240548   1.010   4.499   4.532  0.1088  0.0454 -0.2003
 6378TIP3    H140549   1.088   4.553   4.526 -0.6887  1.1020 -1.8331
 6378TIP3    H240550   1.031   4.433   4.599 -0.0175  4.1864  4.4819
 6379TIP3   OH240551   0.044   1.769   5.994 -0.1887  0.0562 -0.0933
 6379TIP3    H140552   0.006   1.760   5.907  0.3455  1.5471 -0.5110
 6379TIP3    H240553   0.136   1.745   5.984 -0.1717  0.0403  0.0939
 6380TIP3   OH240554   3.978   1.642   2.280 -0.9905 -0.0971  0.7784
 6380TIP3    H140555   4.029   1.627   2.201 -0.0166 -0.5053  1.4535
 6380TIP3    H240556   3.930   1.723   2.263 -0.5382  0.0021 -0.0973
 6381TIP3   OH240557   2.146   6.086   4.209 -0.1066  0.5593 -0.3215
 6381TIP3    H140558   2.061   6.067   4.171 -0.5486  1.2904  0.2629
 6381TIP3    H240559   2.164   6.012   4.268  0.7272 -0.7332 -2.1111
 6382TIP3   OH240560   1.481   3.046   0.259 -0.2009 -0.1410 -0.2084
 6382TIP3    H140561   1.481   2.958   0.298  1.2128  0.0420  0.2582
 6382TIP3    H240562   1.476   3.105   0.334  1.0700  0.1955 -0.3659
 6383TIP3   OH240563   1.750   4.542   2.485 -0.4806  0.0770 -0.1867
 6383TIP3    H140564   1.825   4.590   2.451 -1.4493  1.7195 -0.1005
 6383TIP3    H240565   1.692   4.609   2.520 -0.6572 -1.3475  2.4946
 6384TIP3   OH240566   3.174   1.410  12.151 -0.4471 -0.1344 -1.0654
 6384TIP3    H140567   3.098   1.418  12.094 -2.3518  0.0680  1.3335
 6384TIP3    H240568   3.202   1.500  12.167 -1.2284 -0.0406 -0.1054
 6385TIP3   OH240569   4.010   3.404  12.741  0.6522  0.1861  0.1041
 6385TIP3    H140570   4.007   3.445  12.654  0.0498  1.6735  0.8057
 6385TIP3    H240571   3.918   3.400  12.768  0.5972 -2.3212 -0.2143
 6386TIP3   OH240572   1.903   1.421  15.930  0.2134 -0.2438  0.1114
 6386TIP3    H140573   1.844   1.419  16.006  0.5269  0.6066  0.3890
 6386TIP3    H240574   1.879   1.500  15.883  0.2222 -0.6175 -0.5245
 6387TIP3   OH240575   4.437   6.127  13.043  0.3569 -0.0566 -0.3850
 6387TIP3    H140576   4.380   6.101  12.971  1.4834  0.1918 -1.3991
 6387TIP3    H240577   4.438   6.223  13.040 -0.8056  0.0381  0.9661
 6388TIP3   OH240578   4.141   6.595  16.262 -0.0869  0.1572  0.1612
 6388TIP3    H140579   4.070   6.588  16.198 -0.0705  2.0417 -0.1157
 6388TIP3    H240580   4.185   6.677  16.240  0.8048  0.1303  1.7056
 6389TIP3   OH240581   4.851   2.936   0.753 -0.1019  0.3039  0.5207
 6389TIP3    H140582   4.881   2.975   0.835 -1.0902  1.5203  0.3423
 6389TIP3    H240583   4.775   2.990   0.727  0.2290  0.0026 -1.2191
 6390TIP3   OH240584   2.956   5.197   0.473  0.6970  0.1229  0.2723
 6390TIP3    H140585   2.953   5.210   0.568  0.1789 -0.3847  0.3313
 6390TIP3    H240586   3.033   5.246   0.445  0.9640  0.1254  0.9793
 6391TIP3   OH240587   5.314   1.570  12.028 -0.3781 -0.2172  0.3283
 6391TIP3    H140588   5.355   1.595  11.945 -0.0794  0.2696  0.6211
 6391TIP3    H240589   5.379   1.513  12.069 -1.1706 -1.7520 -0.4640
 6392TIP3   OH240590   1.817   1.650  13.602  0.4405  0.0259  0.5690
 6392TIP3    H140591   1.880   1.708  13.645 -2.3350  1.5662  2.9295
 6392TIP3    H240592   1.801   1.690  13.516  0.6403  1.1899  1.0601
 6393TIP3   OH240593   3.194   1.429  13.319 -0.3518  0.5387 -0.3883
 6393TIP3    H140594   3.154   1.362  13.375 -0.6117  0.1831 -0.9885
 6393TIP3    H240595   3.199   1.387  13.232  0.5318  0.8882 -0.5094
 6394TIP3   OH240596   5.772   6.708  16.118 -0.1874  0.1904  0.1000
 6394TIP3    H140597   5.679   6.700  16.098 -0.3648 -1.0197  1.2452
 6394TIP3    H240598   5.813   6.635  16.072  0.0301  0.0728  0.4707
 6395TIP3   OH240599   6.042   4.116  12.730  0.5940 -0.3806 -0.5120
 6395TIP3    H140600   5.996   4.122  12.814  1.7663 -0.0303  0.1270
 6395TIP3    H240601   6.035   4.204  12.693  0.8906 -0.2849 -0.3400
 6396TIP3   OH240602   3.581   0.664   4.659 -0.4776  0.1242 -0.3102
 6396TIP3    H140603   3.546   0.585   4.701 -2.2373  0.2914 -1.3454
 6396TIP3    H240604   3.503   0.712   4.633  0.5836  1.5642 -0.8975
 6397TIP3   OH240605   3.116   3.163  13.072  0.2833 -0.0908  0.7392
 6397TIP3    H140606   3.112   3.206  13.157 -1.7540  0.4977  0.3768
 6397TIP3    H240607   3.091   3.230  13.009 -1.4859 -1.3480  0.0210
 6398TIP3   OH240608   2.759   6.711   5.534  0.0959  0.0418  0.1583
 6398TIP3    H140609   2.815   6.634   5.546 -0.3711 -0.3701 -0.2457
 6398TIP3    H240610   2.728   6.732   5.622 -0.4194 -0.7374  0.1712
 6399TIP3   OH240611   5.341   4.317   4.482  0.0884 -0.5314 -0.8586
 6399TIP3    H140612   5.391   4.235   4.477  0.3956 -0.5241  1.1317
 6399TIP3    H240613   5.400   4.383   4.445  1.3633 -0.6465  0.8055
 6400TIP3   OH240614   5.932   1.529   1.788 -0.1935  0.1607  0.1998
 6400TIP3    H140615   5.845   1.565   1.801  0.2097  0.9641  0.8039
 6400TIP3    H240616   5.925   1.437   1.811 -0.7497  0.3520  0.8159
 6401TIP3   OH240617   5.658   3.505   3.848  1.1868  0.0958  0.0783
 6401TIP3    H140618   5.607   3.430   3.878  0.7867  1.3898  2.9740
 6401TIP3    H240619   5.747   3.487   3.877  0.8981  1.1257  1.7288
 6402TIP3   OH240620   0.906   0.754   6.765 -0.0735 -0.5364 -0.2932
 6402TIP3    H140621   0.855   0.736   6.844 -2.8511 -0.9389 -2.0537
 6402TIP3    H240622   0.950   0.672   6.745 -0.5656 -0.8790  0.0083
 6403TIP3   OH240623   5.273   2.365   2.885 -0.3477 -0.2352 -0.5004
 6403TIP3    H140624   5.339   2.400   2.825 -0.3452 -0.3857 -0.5850
 6403TIP3    H240625   5.323   2.327   2.957 -0.3408 -0.3783 -0.5804
 6404TIP3   OH240626   0.681   0.044   3.405  0.3979 -0.1476 -0.0334
 6404TIP3    H140627   0.716   0.033   3.317 -0.2499 -0.0886 -0.3021
 6404TIP3    H240628   0.587   0.032   3.396  0.2907  0.1366  0.6019
 6405TIP3   OH240629   6.038   6.476  13.601  0.0511  0.0121  0.3238
 6405TIP3    H140630   6.084   6.529  13.535  1.0532  0.8349  1.6301
 6405TIP3    H240631   6.099   6.471  13.674 -0.3453 -2.3103  0.5810
 6406TIP3   OH240632   6.119   0.188   4.370 -1.0771 -0.3585 -0.0176
 6406TIP3    H140633   6.185   0.257   4.365 -1.1246 -0.3222 -0.1351
 6406TIP3    H240634   6.126   0.155   4.460  1.4405 -2.6203 -0.8784
 6407TIP3   OH240635   6.491   1.357  13.197 -0.4933  0.2156  0.0092
 6407TIP3    H140636   6.456   1.405  13.122 -0.8993  1.0917  0.7438
 6407TIP3    H240637   6.544   1.421  13.245 -2.0687  0.3314  1.7023
 6408TIP3   OH240638   1.475   6.377   5.492  0.2392 -0.2358 -0.0883
 6408TIP3    H140639   1.381   6.381   5.474  0.5135 -0.7626 -1.8864
 6408TIP3    H240640   1.513   6.351   5.408  1.8479 -1.5379  0.9895
 6409TIP3   OH240641   4.908   3.942   5.025  0.2037 -0.4434 -0.1860
 6409TIP3    H140642   4.824   3.911   5.059  0.6164 -1.0598  0.3027
 6409TIP3    H240643   4.900   4.037   5.023  0.2899 -0.3386  2.0808
 6410TIP3   OH240644   4.775   1.196  15.384 -0.6025 -0.6213  0.6206
 6410TIP3    H140645   4.710   1.129  15.403  0.2345 -1.4136  0.7708
 6410TIP3    H240646   4.844   1.150  15.335 -0.9384  0.5626 -1.0666
 6411TIP3   OH240647   0.069   3.366   6.765  0.1749  0.3300 -0.6451
 6411TIP3    H140648  -0.022   3.382   6.790  0.4382  0.6471  0.1556
 6411TIP3    H240649   0.066   3.285   6.715 -0.7738  1.2002 -2.0868
 6412TIP3   OH240650   2.660   4.627   3.303  0.0375 -0.5670 -0.3439
 6412TIP3    H140651   2.656   4.722   3.310  0.1273 -0.4593 -1.5138
 6412TIP3    H240652   2.641   4.595   3.391 -4.4559  0.3887 -0.7534
 6413TIP3   OH240653   2.579   5.640  15.645  0.3313 -0.1037  0.6790
 6413TIP3    H140654   2.540   5.629  15.559 -1.9486 -0.8667  1.7223
 6413TIP3    H240655   2.657   5.584  15.644 -0.9165 -1.9281 -0.1901
 6414TIP3   OH240656   1.195   5.633   1.810 -0.1412  0.0931  0.2417
 6414TIP3    H140657   1.194   5.673   1.723  4.0979  0.1400  0.0112
 6414TIP3    H240658   1.232   5.546   1.796  4.3583  1.4170  2.1688
 6415TIP3   OH240659   5.464   6.498  13.626 -0.0458  0.7318 -0.8707
 6415TIP3    H140660   5.521   6.555  13.677 -1.0942  0.1317  1.0787
 6415TIP3    H240661   5.514   6.478  13.547  1.9551  1.1532  0.2240
 6416TIP3   OH240662   5.756   6.232  12.166 -0.2283 -0.1406 -0.5019
 6416TIP3    H140663   5.763   6.327  12.170  0.8317 -0.2549  1.1616
 6416TIP3    H240664   5.698   6.215  12.091  0.8549  1.7376 -1.8243
 6417TIP3   OH240665   3.850   6.456  14.217 -0.3441 -0.1261  0.0701
 6417TIP3    H140666   3.811   6.498  14.294  0.7675  0.6755  0.2393
 6417TIP3    H240667   3.895   6.379  14.252  0.1338  0.2204  0.2339
 6418TIP3   OH240668   2.696   0.128   3.321 -0.2252  0.4589 -0.5791
 6418TIP3    H140669   2.601   0.131   3.323 -0.2467 -0.3551  0.5204
 6418TIP3    H240670   2.718   0.041   3.356  0.9653  1.3623  1.0294
 6419TIP3   OH240671   1.231   2.995  14.410 -0.1987 -0.1149  0.2671
 6419TIP3    H140672   1.219   3.086  14.437 -0.1692 -0.2924  0.8977
 6419TIP3    H240673   1.167   2.982  14.339  1.6458  1.1594 -1.7444
 6420TIP3   OH240674   2.587   2.228  12.862  0.1947  0.1958 -0.5936
 6420TIP3    H140675   2.664   2.173  12.875 -0.8476 -1.6376 -1.8292
 6420TIP3    H240676   2.536   2.218  12.942 -0.5035 -1.5857 -1.2082
 6421TIP3   OH240677   5.271   3.920  16.405  0.2141  0.3818  0.1555
 6421TIP3    H140678   5.179   3.943  16.393 -0.1508 -0.8603  0.4177
 6421TIP3    H240679   5.289   3.937  16.497  0.3021  0.7920  0.0646
 6422TIP3   OH240680   6.008   1.298  11.640  0.3847  0.0949  0.0730
 6422TIP3    H140681   6.045   1.270  11.556  0.5963  0.8589 -0.1016
 6422TIP3    H240682   5.974   1.386  11.623 -2.3133 -0.8771 -0.0006
 6423TIP3   OH240683   5.403   5.864  10.889 -0.0240  0.1585  0.1813
 6423TIP3    H140684   5.480   5.904  10.930 -0.3150  1.6742 -0.6633
 6423TIP3    H240685   5.439   5.811  10.818  0.2593  0.5946 -0.0016
 6424TIP3   OH240686   4.562   4.530  13.577 -0.9164 -0.5520 -0.1492
 6424TIP3    H140687   4.487   4.530  13.635  0.3036 -0.4301  1.5141
 6424TIP3    H240688   4.573   4.622  13.552  0.8516  0.1536  2.7022
 6425TIP3   OH240689   2.121   5.135  12.803 -0.4550 -0.0004 -0.1480
 6425TIP3    H140690   2.153   5.209  12.856 -0.8003  0.1986 -0.2148
 6425TIP3    H240691   2.073   5.176  12.731  0.4910 -0.2469 -0.9437
 6426TIP3   OH240692   1.177   5.813  15.331 -0.1641 -0.5862 -0.0827
 6426TIP3    H140693   1.190   5.908  15.333 -2.2606 -0.2745  0.2666
 6426TIP3    H240694   1.260   5.777  15.363  1.2540  1.0253 -1.6764
 6427TIP3   OH240695   0.544   5.783   1.152  1.6259  0.4585  0.1291
 6427TIP3    H140696   0.582   5.847   1.092  2.7016 -0.4724 -0.2206
 6427TIP3    H240697   0.512   5.713   1.095  1.0258  0.3875  0.5439
 6428TIP3   OH240698   3.851   6.578  12.755 -0.6118  0.7295 -1.1609
 6428TIP3    H140699   3.829   6.621  12.837 -0.4302  0.4797 -0.9803
 6428TIP3    H240700   3.842   6.485  12.773 -0.9187  0.6824 -1.5250
 6429TIP3   OH240701   1.131   3.514  12.321 -0.2993  0.4407  0.1364
 6429TIP3    H140702   1.209   3.501  12.375 -1.4983  0.0133  1.8144
 6429TIP3    H240703   1.166   3.537  12.235  1.6833  1.8073  1.2250
 6430TIP3   OH240704   3.165   0.723   0.230 -0.0559 -0.7202 -0.2020
 6430TIP3    H140705   3.245   0.773   0.214  0.4479 -1.6562 -0.6702
 6430TIP3    H240706   3.180   0.679   0.313 -0.7075  0.2790  0.4715
 6431TIP3   OH240707   3.818   1.441   1.122  0.2857 -0.7574  0.5313
 6431TIP3    H140708   3.824   1.534   1.102  0.3171 -1.2038 -1.7494
 6431TIP3    H240709   3.760   1.436   1.199  0.1034  1.0992  0.5429
 6432TIP3   OH240710   3.792   1.229  14.022 -0.0388 -0.5086 -0.0997
 6432TIP3    H140711   3.780   1.324  14.029 -1.7032 -0.7174  0.5231
 6432TIP3    H240712   3.849   1.206  14.095  0.6651  0.0383 -0.4623
 6433TIP3   OH240713   6.486   4.891   4.580 -0.6035  0.2511 -0.1908
 6433TIP3    H140714   6.403   4.843   4.578 -0.6887  0.3991 -0.2891
 6433TIP3    H240715   6.525   4.869   4.664 -0.0172 -1.0307 -0.7727
 6434TIP3   OH240716   6.112   2.832  10.743 -0.1945  0.4809 -0.3112
 6434TIP3    H140717   6.036   2.858  10.796  0.6046 -0.4554  1.3662
 6434TIP3    H240718   6.081   2.837  10.653 -1.7843  1.5850  0.2475
 6435TIP3   OH240719   0.379   3.632  10.819  0.8631  0.6137  0.4337
 6435TIP3    H140720   0.461   3.583  10.815 -0.0866 -1.1524  1.4226
 6435TIP3    H240721   0.393   3.698  10.887  0.7194 -1.2424  2.3463
 6436TIP3   OH240722   4.094   1.602  14.769  0.1307 -0.0784 -0.0720
 6436TIP3    H140723   4.038   1.680  14.773  0.3785  0.0405  1.5820
 6436TIP3    H240724   4.179   1.631  14.802  0.0130 -1.1878  1.3333
 6437TIP3   OH240725   4.899   2.307  16.418  0.7050  0.6828 -0.4455
 6437TIP3    H140726   4.970   2.251  16.450  0.6434 -0.5729 -2.3743
 6437TIP3    H240727   4.824   2.248  16.408  0.8664  0.8408 -3.3255
 6438TIP3   OH240728   3.558   6.248   0.290 -0.1328  0.3305  0.1720
 6438TIP3    H140729   3.649   6.277   0.291 -0.1270  0.3160  0.0679
 6438TIP3    H240730   3.514   6.308   0.230 -0.3138  0.7044  0.6690
 6439TIP3   OH240731   5.216   4.194  16.345  0.2421  0.3468  0.2589
 6439TIP3    H140732   5.203   4.141  16.424  0.7174  1.3901  1.0570
 6439TIP3    H240733   5.145   4.167  16.286 -1.2387  0.8149  1.7376
 6440TIP3   OH240734   5.255   2.356   0.634 -0.5333 -0.3024  0.1593
 6440TIP3    H140735   5.314   2.354   0.558 -1.1398  0.4934 -0.3428
 6440TIP3    H240736   5.173   2.319   0.601 -0.2226 -1.8141  0.9699
 6441TIP3   OH240737   4.935   5.709  17.042  0.5049  0.4825 -0.5157
 6441TIP3    H140738   4.967   5.799  17.031  1.6368  0.2831  0.8147
 6441TIP3    H240739   4.996   5.670  17.105 -1.7586 -0.2585  1.3466
 6442TIP3   OH240740   4.004   5.821   0.624  0.0399  0.1105  0.2952
 6442TIP3    H140741   4.023   5.880   0.698  1.4091  0.1412 -0.0528
 6442TIP3    H240742   4.053   5.859   0.551  0.9687 -1.4406  0.0666
 6443TIP3   OH240743   3.902   0.572   1.606  0.6567  0.4845 -0.1368
 6443TIP3    H140744   3.895   0.635   1.677 -0.2725  0.1947  0.0474
 6443TIP3    H240745   3.828   0.513   1.619  1.6252 -0.7710 -0.1870
 6444TIP3   OH240746   2.330   0.626   3.105  0.1589 -0.0528  0.2269
 6444TIP3    H140747   2.270   0.623   3.180 -0.3927  0.3749 -0.1892
 6444TIP3    H240748   2.416   0.636   3.145 -0.1309  0.2086  0.8100
 6445TIP3   OH240749   1.534   3.502  11.439  0.3615  0.0920 -0.0724
 6445TIP3    H140750   1.592   3.577  11.429  0.7562 -0.2138 -0.1137
 6445TIP3    H240751   1.475   3.507  11.364 -0.8357  1.4122  0.9014
 6446TIP3   OH240752   4.186   3.266   1.903 -0.2531 -0.3855 -0.1214
 6446TIP3    H140753   4.226   3.352   1.915 -0.7052 -0.3654  1.5395
 6446TIP3    H240754   4.209   3.240   1.814  1.2344  0.7535 -0.0951
 6447TIP3   OH240755   2.500   2.076  11.348 -0.2342 -0.1340 -0.0400
 6447TIP3    H140756   2.416   2.040  11.318 -0.9172  0.6743  0.8591
 6447TIP3    H240757   2.484   2.100  11.439  1.3496 -1.1180  0.5284
 6448TIP3   OH240758   1.382   5.612   0.578 -0.0972 -0.7390 -0.4176
 6448TIP3    H140759   1.474   5.586   0.588 -0.3917 -1.7415 -0.1900
 6448TIP3    H240760   1.386   5.705   0.554  1.0228 -1.1001 -1.7703
 6449TIP3   OH240761   3.281   2.669   4.567 -0.2634  0.4409 -0.3938
 6449TIP3    H140762   3.307   2.594   4.514  0.4160  0.5003 -0.1466
 6449TIP3    H240763   3.331   2.742   4.531 -1.1591  0.8529 -0.8442
 6450TIP3   OH240764   2.291   0.259  10.724  0.0560 -0.2733  0.5174
 6450TIP3    H140765   2.301   0.166  10.706 -0.5492 -0.7420  2.3547
 6450TIP3    H240766   2.230   0.291  10.658  0.7285 -1.0377 -0.4895
 6451TIP3   OH240767   5.909   3.703  16.020 -0.1505 -0.0902 -0.6180
 6451TIP3    H140768   5.813   3.707  16.015 -0.0847  0.6605 -1.6758
 6451TIP3    H240769   5.938   3.790  15.994  0.8300 -0.4237 -0.6988
 6452TIP3   OH240770   3.246   2.713   2.053  0.1545  0.0378 -0.2298
 6452TIP3    H140771   3.246   2.781   2.120 -1.5746 -2.1616  2.2008
 6452TIP3    H240772   3.170   2.733   1.998  0.8156  1.1122 -0.7954
 6453TIP3   OH240773   2.067   6.508  11.127 -0.6376  0.3508 -0.4844
 6453TIP3    H140774   2.124   6.507  11.051  0.0931 -1.5839  0.0297
 6453TIP3    H240775   2.126   6.506  11.202 -1.3506  0.8386  0.1047
 6454TIP3   OH240776   1.793   2.583  13.501 -0.0728  0.2081  0.6984
 6454TIP3    H140777   1.788   2.606  13.408  0.3593  0.2602  0.6828
 6454TIP3    H240778   1.833   2.496  13.502 -1.8665 -0.6385  0.7516
 6455TIP3   OH240779   0.217   4.298  12.735  0.7632  0.4216  0.0285
 6455TIP3    H140780   0.131   4.333  12.713  0.5348 -0.8408 -1.2026
 6455TIP3    H240781   0.198   4.219  12.787  1.2044  0.6446  0.5400
 6456TIP3   OH240782   1.807   4.382   1.119  0.9580 -0.0367  0.3618
 6456TIP3    H140783   1.739   4.406   1.056  1.6088  0.2618 -0.2462
 6456TIP3    H240784   1.872   4.335   1.068  0.6557 -1.3858  1.1709
 6457TIP3   OH240785   2.434   2.142  16.057  0.2804  0.2090  0.1897
 6457TIP3    H140786   2.493   2.211  16.027  0.4126 -0.1665 -0.4437
 6457TIP3    H240787   2.407   2.097  15.976 -1.1828  0.6230  0.4174
 6458TIP3   OH240788   0.738   0.164   5.300  0.0070  0.5843 -0.1887
 6458TIP3    H140789   0.812   0.168   5.360  0.9850  2.4533 -1.4325
 6458TIP3    H240790   0.677   0.230   5.332 -0.4109  0.1472 -0.0725
 6459TIP3   OH240791   3.155   5.927  13.151 -0.0682  0.1038  0.2888
 6459TIP3    H140792   3.194   5.877  13.080 -0.8745 -1.1771  0.6928
 6459TIP3    H240793   3.227   5.977  13.189  0.2659  1.2715 -1.7480
 6460TIP3   OH240794   0.756   6.199  12.078  0.3936 -0.0198  0.0616
 6460TIP3    H140795   0.818   6.252  12.128  0.9789 -1.6155  1.0921
 6460TIP3    H240796   0.717   6.141  12.143 -0.6943 -0.4405 -0.9353
 6461TIP3   OH240797   0.529   4.661   2.535 -0.0726  0.4219  0.1037
 6461TIP3    H140798   0.576   4.579   2.518 -0.0811  0.3381  0.4744
 6461TIP3    H240799   0.585   4.708   2.598  0.7195  1.3972 -1.2577
 6462TIP3   OH240800   2.300   1.121   2.008 -0.8908  0.4552  0.1716
 6462TIP3    H140801   2.244   1.131   1.931 -1.0334  1.3151  0.3740
 6462TIP3    H240802   2.388   1.111   1.974 -0.9796  0.6476 -0.1166
 6463TIP3   OH240803   6.533   2.542  13.083  0.3815  0.3475 -0.6909
 6463TIP3    H140804   6.534   2.536  13.179  1.3634  0.4324 -0.6771
 6463TIP3    H240805   6.485   2.622  13.065  1.7035  1.3141 -0.1689
 6464TIP3   OH240806   3.141   6.260  16.168 -0.0456 -0.0927  0.1932
 6464TIP3    H140807   3.212   6.202  16.198  0.1273 -1.4426 -2.4990
 6464TIP3    H240808   3.065   6.203  16.163 -0.1961  0.2018 -1.2476
 6465TIP3   OH240809   1.107   4.780  11.027  0.1937  0.6190  0.3887
 6465TIP3    H140810   1.094   4.710  10.963 -0.8107 -0.0514  1.2859
 6465TIP3    H240811   1.191   4.819  11.003  0.4296 -0.4188 -0.5668
 6466TIP3   OH240812   6.092   6.640  17.218  0.2718 -0.0238  0.4630
 6466TIP3    H140813   6.086   6.547  17.239 -0.7502  0.2416  1.5320
 6466TIP3    H240814   6.019   6.680  17.267 -1.3945  0.9061 -2.5080
 6467TIP3   OH240815   0.340   4.345   5.703 -0.0599 -0.3917  0.0803
 6467TIP3    H140816   0.388   4.362   5.621 -1.3748 -0.5347 -0.7528
 6467TIP3    H240817   0.258   4.394   5.693  0.0755  0.1871  1.6460
 6468TIP3   OH240818   1.665   5.888   2.442  0.3320 -0.1618 -0.5350
 6468TIP3    H140819   1.721   5.820   2.478 -0.6648 -0.3701  0.6619
 6468TIP3    H240820   1.723   5.938   2.384  0.9071 -2.4967 -2.1247
 6469TIP3   OH240821   5.248   3.175  14.358 -0.2302  0.0925  0.7076
 6469TIP3    H140822   5.169   3.203  14.311 -0.7201 -1.0222  0.8317
 6469TIP3    H240823   5.320   3.207  14.304 -0.7469  1.3553  0.7168
 6470TIP3   OH240824   1.000   4.207  15.851  0.1499  0.0012 -0.0293
 6470TIP3    H140825   1.058   4.184  15.924  0.9630 -2.7571 -1.4096
 6470TIP3    H240826   0.984   4.300  15.862  2.5709  0.2890  2.0108
 6471TIP3   OH240827   2.147   3.535   2.559  0.6392 -0.9359  0.1626
 6471TIP3    H140828   2.191   3.579   2.632  1.2167  0.8500 -1.1962
 6471TIP3    H240829   2.071   3.591   2.540  3.1432  1.6021 -3.7320
 6472TIP3   OH240830   2.306   6.089  16.590  0.0724 -0.4332 -0.1538
 6472TIP3    H140831   2.289   6.036  16.668 -0.5618  0.3708  0.2729
 6472TIP3    H240832   2.398   6.117  16.599  0.0867 -0.5818  0.1608
 6473TIP3   OH240833   4.520   1.226   1.296 -0.2589 -0.1129  0.0237
 6473TIP3    H140834   4.426   1.212   1.284 -0.4051 -0.4751  1.4234
 6473TIP3    H240835   4.562   1.159   1.242 -0.8059 -0.2791 -0.2005
 6474TIP3   OH240836   4.777   0.493  15.173 -0.4090  0.6097 -0.5666
 6474TIP3    H140837   4.849   0.552  15.193 -0.2527  0.0094  0.7124
 6474TIP3    H240838   4.728   0.486  15.255 -0.3420 -1.1326 -0.6451
 6475TIP3   OH240839   6.038   1.332  16.396 -0.5083 -0.1469  0.1455
 6475TIP3    H140840   6.069   1.272  16.328 -3.0116 -2.5995  0.9619
 6475TIP3    H240841   6.118   1.374  16.429  0.9081  0.3313 -3.4538
 6476TIP3   OH240842   3.301   4.096   2.435 -0.8695  0.2134 -0.7828
 6476TIP3    H140843   3.368   4.074   2.370  1.8025  0.1633  1.7998
 6476TIP3    H240844   3.287   4.015   2.483  1.1892  1.3628  2.0004
 6477TIP3   OH240845   2.802   5.902   4.731 -0.4913  0.1293  0.7672
 6477TIP3    H140846   2.738   5.844   4.772 -2.0187  0.2335 -1.2937
 6477TIP3    H240847   2.760   5.988   4.730 -0.7385  0.0386 -1.3558
 6478TIP3   OH240848   2.394   1.143   3.754  0.0913  0.2531 -0.9497
 6478TIP3    H140849   2.300   1.138   3.773 -0.0122  2.2229 -0.7758
 6478TIP3    H240850   2.430   1.197   3.824  1.2495  0.1405 -1.4345
 6479TIP3   OH240851   1.545   2.407  16.516  0.4016 -0.5118  0.7743
 6479TIP3    H140852   1.636   2.382  16.530  0.2881 -0.7343  1.1371
 6479TIP3    H240853   1.495   2.327  16.534  0.3299 -1.2685 -2.3655
 6480TIP3   OH240854   5.467   3.794  11.395  0.4871  0.0605 -0.2938
 6480TIP3    H140855   5.456   3.877  11.348  1.5227  0.4966  0.2193
 6480TIP3    H240856   5.522   3.741  11.337  1.6304  0.5403  0.3080
 6481TIP3   OH240857   3.269   1.870   1.835  0.3064  0.0219 -0.3964
 6481TIP3    H140858   3.362   1.877   1.857  0.5880 -1.2245 -1.1146
 6481TIP3    H240859   3.250   1.950   1.786  0.6814  0.8536  0.7685
 6482TIP3   OH240860   3.965   5.576   0.234  0.0045  0.4092 -0.3684
 6482TIP3    H140861   3.960   5.538   0.147 -0.4263 -0.7634  0.1521
 6482TIP3    H240862   4.021   5.516   0.283 -0.7163  0.4056  0.4738
 6483TIP3   OH240863   1.777   2.852   3.066 -0.2168 -0.2589 -0.4493
 6483TIP3    H140864   1.866   2.882   3.088 -0.8493  1.5020 -0.0897
 6483TIP3    H240865   1.734   2.842   3.151 -0.2733 -1.4736 -0.6067
 6484TIP3   OH240866   1.798   5.401  16.673  0.7475 -0.2277  0.2763
 6484TIP3    H140867   1.703   5.408  16.668  0.8127  0.0440 -2.5748
 6484TIP3    H240868   1.815   5.355  16.755 -1.7838  0.3474  1.1959
 6485TIP3   OH240869   6.304   1.192  16.218  0.2539  0.0783 -0.2928
 6485TIP3    H140870   6.346   1.238  16.145  2.1559 -0.9966  0.0834
 6485TIP3    H240871   6.252   1.124  16.177  0.1276  0.4175 -0.6995
 6486TIP3   OH240872   1.788   2.377   5.098  0.2768  0.3599  0.2366
 6486TIP3    H140873   1.853   2.412   5.037  1.2693  0.7303  1.4591
 6486TIP3    H240874   1.811   2.284   5.107 -0.7237 -0.0351 -0.9725
 6487TIP3   OH240875   2.496   3.626   3.326 -0.2131  0.0478  0.7418
 6487TIP3    H140876   2.528   3.701   3.376  0.9890 -0.1910  0.3596
 6487TIP3    H240877   2.517   3.647   3.235 -2.7034  0.6466  0.2269
 6488TIP3   OH240878   0.805   4.337  10.879  0.1214  0.3555  0.0185
 6488TIP3    H140879   0.871   4.357  10.813 -0.5066 -1.6538 -1.2894
 6488TIP3    H240880   0.745   4.412  10.876  2.1264  2.1115  1.0801
 6489TIP3   OH240881   2.462   3.190   0.626  0.1409 -0.1933  0.2453
 6489TIP3    H140882   2.488   3.218   0.714  0.3012 -1.3205  0.5694
 6489TIP3    H240883   2.369   3.170   0.634 -0.1968  1.1076 -0.2175
 6490TIP3   OH240884   1.558   3.886  13.910 -0.2647  0.0941 -0.1582
 6490TIP3    H140885   1.468   3.910  13.931  0.1568  1.3578  0.3439
 6490TIP3    H240886   1.612   3.946  13.963  0.8977 -1.5653  0.6455
 6491TIP3   OH240887   1.155   1.314   6.509  0.1581  0.4259 -0.0184
 6491TIP3    H140888   1.212   1.326   6.586  1.1814 -1.9892 -0.3062
 6491TIP3    H240889   1.070   1.289   6.546  0.1297  1.0181  0.3387
 6492TIP3   OH240890   1.725   3.273   3.830 -0.0766 -0.7401 -0.3805
 6492TIP3    H140891   1.744   3.341   3.766 -2.0417  0.3281  0.0931
 6492TIP3    H240892   1.797   3.210   3.820  0.5620  0.2213 -2.4300
 6493TIP3   OH240893   1.680   2.334   2.365 -0.1186  0.0063  0.0132
 6493TIP3    H140894   1.594   2.363   2.394 -0.8464 -2.1560  0.1629
 6493TIP3    H240895   1.667   2.307   2.274  0.6160  0.4659 -0.2400
 6494TIP3   OH240896   2.350   2.064  12.100 -0.0209 -0.4056 -0.2872
 6494TIP3    H140897   2.407   1.989  12.117  1.1049  0.3352 -0.6266
 6494TIP3    H240898   2.289   2.066  12.174  0.6204 -1.0298  0.2728
 6495TIP3   OH240899   4.224   6.684  15.834  0.1678 -0.2267  0.8972
 6495TIP3    H140900   4.195   6.593  15.831  3.2049 -1.3725  2.3871
 6495TIP3    H240901   4.144   6.734  15.849 -1.6900 -2.5312 -0.6052
 6496TIP3   OH240902   2.586   1.547  16.653  0.2335 -0.0139  0.1258
 6496TIP3    H140903   2.620   1.462  16.627  0.6312 -0.0538  0.7558
 6496TIP3    H240904   2.521   1.527  16.721  1.2720  0.2442  1.2335
 6497TIP3   OH240905   5.231   4.049   3.719  0.0333  0.0664  0.6091
 6497TIP3    H140906   5.243   4.128   3.667  0.1341 -0.0585  0.4414
 6497TIP3    H240907   5.294   3.986   3.683  0.5091  0.1662  1.2569
 6498TIP3   OH240908   2.975   3.487  12.082 -0.1646 -0.2852  0.4030
 6498TIP3    H140909   2.931   3.566  12.114 -0.3447 -0.6611  1.1186
 6498TIP3    H240910   2.959   3.422  12.150  0.8263 -0.6647  0.2922
 6499TIP3   OH240911   4.292   0.836   1.451  0.0450  0.1299 -0.1339
 6499TIP3    H140912   4.213   0.800   1.493 -0.1475 -0.7559 -1.1910
 6499TIP3    H240913   4.269   0.842   1.359  1.1039  0.1806 -0.4090
 6500TIP3   OH240914   0.190   1.946  14.042 -0.1998  0.4526 -0.2313
 6500TIP3    H140915   0.165   2.029  14.002 -0.1611  0.1616 -0.8697
 6500TIP3    H240916   0.147   1.880  13.988  1.9642 -0.0698 -1.4063
 6501TIP3   OH240917   6.663   2.389   5.313 -0.3683  0.2089 -0.5050
 6501TIP3    H140918   6.735   2.435   5.271  0.2793 -0.3502 -0.0311
 6501TIP3    H240919   6.591   2.452   5.313  0.6474  1.4271  0.6063
 6502TIP3   OH240920   1.196   5.141  12.659 -0.4983  0.0496 -0.2246
 6502TIP3    H140921   1.206   5.049  12.681 -2.5187 -0.0786  0.3659
 6502TIP3    H240922   1.186   5.186  12.743 -1.5172  0.4958 -0.5588
 6503TIP3   OH240923   1.467   4.571  14.262  0.1697  0.0460 -0.4052
 6503TIP3    H140924   1.380   4.605  14.241  0.3286  1.0200  0.4707
 6503TIP3    H240925   1.451   4.504  14.328  0.0080 -0.5234 -0.9995
 6504TIP3   OH240926   6.085   0.100   0.265 -1.1887  0.5642 -0.4021
 6504TIP3    H140927   6.143   0.154   0.212  0.0070  1.1358  1.3696
 6504TIP3    H240928   6.139   0.025   0.291 -0.7684  1.6306  2.1541
 6505TIP3   OH240929   6.174   1.962   3.257  0.0627  0.3672  0.2521
 6505TIP3    H140930   6.121   2.039   3.275 -0.0922  0.5678 -0.9787
 6505TIP3    H240931   6.252   1.973   3.311  0.3143  1.6961 -0.3576
 6506TIP3   OH240932   3.871   6.334  13.775  0.3771 -0.1109 -0.6838
 6506TIP3    H140933   3.777   6.345  13.767  0.5041  0.0043 -2.1312
 6506TIP3    H240934   3.890   6.356  13.867 -0.7548  1.6306 -0.8236
 6507TIP3   OH240935   1.577   0.139   6.387 -0.7296  0.7648  0.2270
 6507TIP3    H140936   1.649   0.191   6.352  0.0134 -1.2641 -1.4977
 6507TIP3    H240937   1.619   0.058   6.417 -2.0813  0.2341  0.7461
 6508TIP3   OH240938   5.922   6.019  14.363 -0.3366 -0.1740 -0.6829
 6508TIP3    H140939   5.847   6.057  14.319  1.5256  1.7575 -2.4459
 6508TIP3    H240940   5.984   5.999  14.292  1.3084 -0.5065  0.7652
 6509TIP3   OH240941   5.243   2.973   2.670 -0.1603  0.6644 -0.2632
 6509TIP3    H140942   5.162   2.948   2.627  0.7124  0.4078 -1.8347
 6509TIP3    H240943   5.312   2.935   2.616  1.0282  1.0570  0.9079
 6510TIP3   OH240944   1.194   2.983  17.108 -0.0254  0.5688  0.0680
 6510TIP3    H140945   1.286   2.959  17.118 -0.6846 -1.4031  2.1438
 6510TIP3    H240946   1.192   3.076  17.128  1.7565  1.1331 -1.9927
 6511TIP3   OH240947   3.832   6.212   2.657  0.5230  0.3950 -0.4991
 6511TIP3    H140948   3.777   6.142   2.621  1.3190 -0.5473  0.0701
 6511TIP3    H240949   3.877   6.248   2.580 -0.8663  1.1725 -0.9640
 6512TIP3   OH240950   5.139   3.106   1.387  0.3197 -0.0752  0.0145
 6512TIP3    H140951   5.156   3.158   1.309  0.0635 -1.0243 -0.6883
 6512TIP3    H240952   5.052   3.070   1.373 -0.1449  0.5383  1.1980
 6513TIP3   OH240953   4.084   1.933  16.433  0.3371  0.5393  0.1836
 6513TIP3    H140954   4.127   2.009  16.395  1.0820 -0.2321 -0.5661
 6513TIP3    H240955   4.073   1.873  16.360  0.9732 -0.6140  0.9995
 6514TIP3   OH240956   6.139   5.207   5.060  0.4926 -0.0236 -0.2482
 6514TIP3    H140957   6.104   5.285   5.102  0.3937 -0.0999 -0.1884
 6514TIP3    H240958   6.086   5.196   4.981  1.1493  0.5382 -0.7831
 6515TIP3   OH240959   5.138   6.585  13.285  0.3246 -0.0690  0.3793
 6515TIP3    H140960   5.118   6.634  13.205 -0.7907 -0.8018  0.1951
 6515TIP3    H240961   5.201   6.641  13.331  0.2278  0.8309 -0.5303
 6516TIP3   OH240962   6.449   6.586   1.262 -0.0756  0.3778  0.2937
 6516TIP3    H140963   6.421   6.664   1.215 -2.5050  0.0970  1.1209
 6516TIP3    H240964   6.435   6.607   1.355  0.3809 -0.6342  0.6154
 6517TIP3   OH240965   1.340   3.784  13.501 -0.0551 -0.0809  0.2859
 6517TIP3    H140966   1.312   3.814  13.588  0.3276 -0.1534  0.4363
 6517TIP3    H240967   1.374   3.862  13.458 -1.2187  0.1816 -0.2029
 6518TIP3   OH240968   2.482   0.394   0.152 -0.3211 -0.0585  0.3305
 6518TIP3    H140969   2.445   0.312   0.187 -1.5762  0.2781 -0.1519
 6518TIP3    H240970   2.573   0.393   0.181 -0.7845 -0.7408  1.9121
 6519TIP3   OH240971   5.461   0.158   4.998  0.3725 -0.0502 -0.2507
 6519TIP3    H140972   5.542   0.152   5.048  0.9464  2.3587 -0.7500
 6519TIP3    H240973   5.394   0.180   5.063  0.7149  0.9092 -0.1967
 6520TIP3   OH240974   1.969   6.263   6.433 -0.0811  0.2779 -0.0426
 6520TIP3    H140975   2.023   6.192   6.468 -0.9508 -0.6457 -0.5151
 6520TIP3    H240976   2.023   6.341   6.441  0.5921 -0.2993  1.2478
 6521TIP3   OH240977   4.361   1.064   3.814 -0.8241  0.7348  0.5779
 6521TIP3    H140978   4.430   1.023   3.865 -3.2397 -2.7941  1.4072
 6521TIP3    H240979   4.389   1.056   3.723  0.3184  0.3840  0.9514
 6522TIP3   OH240980   0.476   5.594   6.036 -0.0925 -0.0045 -0.7963
 6522TIP3    H140981   0.416   5.656   5.994 -1.9753 -1.2253 -0.0472
 6522TIP3    H240982   0.522   5.647   6.101 -1.8174  0.6410 -0.0249
 6523TIP3   OH240983   3.291   2.736   3.583  0.2856  0.3297  0.2154
 6523TIP3    H140984   3.267   2.647   3.557  0.3568  0.2078  0.5658
 6523TIP3    H240985   3.368   2.757   3.530 -0.3581  0.5811 -0.6423
 6524TIP3   OH240986   2.741   4.157   0.971  0.1970 -0.2483 -0.2804
 6524TIP3    H140987   2.688   4.147   1.050  1.1051 -0.8750  0.2604
 6524TIP3    H240988   2.698   4.101   0.906 -0.4484  0.1362 -0.2026
 6525TIP3   OH240989   4.374   0.369   2.449 -0.0769  0.2960 -0.2703
 6525TIP3    H140990   4.418   0.364   2.534 -1.1535 -0.8788  0.2439
 6525TIP3    H240991   4.282   0.386   2.470  0.2006  4.2616 -1.3665
 6526TIP3   OH240992   5.900   0.115  14.333  0.2168  0.2172 -0.2160
 6526TIP3    H140993   5.989   0.100  14.300  0.4456  0.8105  0.1190
 6526TIP3    H240994   5.913   0.153  14.420 -0.3201  2.4026 -1.0236
 6527TIP3   OH240995   0.058   2.133   5.868  0.0260  0.2362  0.6259
 6527TIP3    H140996   0.134   2.169   5.914  0.0351  1.2491 -0.1569
 6527TIP3    H240997  -0.016   2.184   5.900 -0.0983  0.3134  0.2176
 6528TIP3   OH240998   5.361   3.609  15.707  0.1778 -0.0751 -0.0262
 6528TIP3    H140999   5.331   3.531  15.752 -0.5138 -0.1678 -0.6505
 6528TIP3    H241000   5.291   3.632  15.646  1.3248 -0.2707 -1.4767
 6529TIP3   OH241001   0.567   4.239  16.688  0.7604  0.3881 -0.6398
 6529TIP3    H141002   0.528   4.279  16.766 -0.0446 -0.6617 -0.4818
 6529TIP3    H241003   0.499   4.245  16.621  1.2132  0.6927 -1.0766
 6530TIP3   OH241004   3.495   1.239   5.747  0.5016 -0.0942 -0.3566
 6530TIP3    H141005   3.584   1.212   5.724  0.4333  0.1901 -0.9753
 6530TIP3    H241006   3.505   1.284   5.831  0.5853 -2.2542  0.8746
 6531TIP3   OH241007   3.568   5.667   2.691  0.4789  0.0606 -0.3030
 6531TIP3    H141008   3.647   5.619   2.713  1.2381  1.3161 -0.1550
 6531TIP3    H241009   3.537   5.629   2.609  0.8655 -0.8670 -0.0236
 6532TIP3   OH241010   3.539   1.913  12.554 -0.4918  0.4091 -0.6071
 6532TIP3    H141011   3.624   1.948  12.583  0.0472 -1.6288  0.5517
 6532TIP3    H241012   3.480   1.988  12.555  0.9069  1.5566  0.2962
 6533TIP3   OH241013   5.387   4.284   0.715  0.1723  0.0711 -0.1041
 6533TIP3    H141014   5.370   4.212   0.775  2.3903  0.7961  1.5124
 6533TIP3    H241015   5.440   4.245   0.645 -1.1285 -0.4345 -0.8599
 6534TIP3   OH241016   1.369   0.512  12.175 -0.0393  0.4127 -0.4796
 6534TIP3    H141017   1.332   0.532  12.089  0.7604  1.6935 -0.5667
 6534TIP3    H241018   1.444   0.456  12.157 -1.0422 -0.9983 -0.4222
 6535TIP3   OH241019   5.179   6.047   4.920 -0.6318 -0.8228 -0.6311
 6535TIP3    H141020   5.167   6.131   4.963 -0.7899  0.8299 -3.6825
 6535TIP3    H241021   5.092   6.023   4.889 -0.2027 -0.8811 -1.8451
 6536TIP3   OH241022   4.829   3.705  11.211 -0.3158  1.1866 -0.0200
 6536TIP3    H141023   4.888   3.631  11.227  0.3000  2.0017  1.6639
 6536TIP3    H241024   4.822   3.709  11.115  1.4680  0.3591 -0.2284
 6537TIP3   OH241025   0.551   1.111  14.317 -0.1085 -0.0751  0.5343
 6537TIP3    H141026   0.457   1.105  14.332  0.0698  1.3491  2.6684
 6537TIP3    H241027   0.587   1.036  14.365 -0.1044 -0.0983  0.4943
 6538TIP3   OH241028   2.861   4.812   0.713 -0.3037 -0.1161  0.0074
 6538TIP3    H141029   2.946   4.850   0.687 -0.0619 -0.2637  0.5669
 6538TIP3    H241030   2.859   4.727   0.668  1.4750 -1.7591  2.7529
 6539TIP3   OH241031   6.515   1.824   1.224  0.3172  0.2294 -0.6875
 6539TIP3    H141032   6.448   1.800   1.159 -0.7629  1.6083 -0.1258
 6539TIP3    H241033   6.596   1.830   1.173 -0.0434 -1.0322 -1.4703
 6540TIP3   OH241034   6.023   0.432  13.995  0.2522  0.2794 -0.0213
 6540TIP3    H141035   6.109   0.460  13.963 -0.1726  1.2967 -0.3106
 6540TIP3    H241036   6.042   0.356  14.049  1.5156  1.3930  1.1908
 6541TIP3   OH241037   1.475   5.575  14.963  0.5043  0.0818  0.1626
 6541TIP3    H141038   1.502   5.561  15.054 -0.4246 -1.2932  0.2619
 6541TIP3    H241039   1.474   5.487  14.925 -1.5268  0.3327 -0.4695
 6542TIP3   OH241040   6.238   3.543   4.421 -0.1232 -0.6775  0.1292
 6542TIP3    H141041   6.156   3.494   4.431 -0.3711 -0.5499 -1.1376
 6542TIP3    H241042   6.291   3.517   4.497 -2.0803  0.7927  2.1276
 6543TIP3   OH241043   0.289   1.746   1.286 -0.0850  0.1126 -0.3358
 6543TIP3    H141044   0.298   1.721   1.194 -1.6644  2.1918 -1.1237
 6543TIP3    H241045   0.345   1.823   1.296  0.9776 -0.7761  0.7743
 6544TIP3   OH241046   3.240   4.774   2.124 -0.4626 -0.6861 -0.0407
 6544TIP3    H141047   3.203   4.860   2.140  0.3551 -0.2350 -0.4966
 6544TIP3    H241048   3.304   4.762   2.195  0.8226 -0.0659 -1.0410
 6545TIP3   OH241049   4.000   3.739  15.270 -0.1884  0.0635 -0.1335
 6545TIP3    H141050   3.932   3.672  15.261 -1.3375  1.2374 -0.3212
 6545TIP3    H241051   4.007   3.778  15.183 -1.3725  1.9149  0.5416
 6546TIP3   OH241052   1.153   4.340   1.018  0.3363  0.7014  0.2058
 6546TIP3    H141053   1.227   4.296   1.061 -0.8910 -0.0854  1.6217
 6546TIP3    H241054   1.151   4.428   1.058  1.4396  1.3102 -1.0066
 6547TIP3   OH241055   0.270   1.817  10.865  0.6717 -0.2926 -0.1119
 6547TIP3    H141056   0.331   1.855  10.802  1.2092  1.1436  1.2116
 6547TIP3    H241057   0.210   1.888  10.886 -0.6520 -1.2903 -0.3682
 6548TIP3   OH241058   3.907   5.720   6.571  0.5503  0.9974 -0.0066
 6548TIP3    H141059   3.962   5.644   6.550 -0.2246  0.1633  0.8944
 6548TIP3    H241060   3.927   5.783   6.502  0.5881 -0.3394 -1.2776
 6549TIP3   OH241061   6.282   5.647  12.144  0.6786  0.5522 -0.0429
 6549TIP3    H141062   6.227   5.615  12.073 -0.0504 -1.5062  1.3550
 6549TIP3    H241063   6.371   5.634  12.113  0.3754 -0.7614 -0.4327
 6550TIP3   OH241064   1.045   2.931   0.813  0.9249 -0.1247 -0.1180
 6550TIP3    H141065   0.992   2.853   0.800  1.6371 -0.5641 -0.4378
 6550TIP3    H241066   1.084   2.920   0.900  0.4215  0.2492  0.1628
 6551TIP3   OH241067   5.568   5.046   3.534 -0.4793  0.1813 -1.0097
 6551TIP3    H141068   5.572   5.093   3.617  0.6622 -0.2480 -0.8026
 6551TIP3    H241069   5.494   4.985   3.544 -0.1072 -0.1355 -0.1651
 6552TIP3   OH241070   4.256   4.074   1.939  0.3388 -0.9975 -0.2284
 6552TIP3    H141071   4.242   4.140   2.007  0.6982 -0.4359 -0.6874
 6552TIP3    H241072   4.170   4.064   1.897  0.4229 -0.3314 -0.5806
 6553TIP3   OH241073   4.886   3.425  16.442  1.0012 -1.0132  0.1909
 6553TIP3    H141074   4.934   3.490  16.390  2.0680 -0.3301  1.9406
 6553TIP3    H241075   4.882   3.347  16.386  1.4638 -0.0943 -1.1672
 6554TIP3   OH241076   1.001   3.886   4.015  0.3490  0.0720  0.2639
 6554TIP3    H141077   0.997   3.945   3.939 -1.7452  0.0879  0.3204
 6554TIP3    H241078   0.948   3.810   3.990  1.4272 -0.9218  0.9142
 6555TIP3   OH241079   1.092   0.524  16.125 -0.0555 -0.4864 -0.2075
 6555TIP3    H141080   1.041   0.605  16.124  1.3096  0.4087 -1.5676
 6555TIP3    H241081   1.091   0.497  16.217 -1.8963  0.1533  0.0177
 6556TIP3   OH241082   0.301   4.772   0.146  0.0421  0.6908 -0.4697
 6556TIP3    H141083   0.276   4.683   0.118  1.9039  0.0618 -0.2182
 6556TIP3    H241084   0.217   4.819   0.149 -1.0009 -1.0405 -0.5903
 6557TIP3   OH241085   2.097   0.281   0.452 -0.2167 -0.4791  0.3377
 6557TIP3    H141086   2.086   0.256   0.360  0.3981 -1.7361  0.5914
 6557TIP3    H241087   2.041   0.359   0.462 -0.8117 -0.7144 -0.9209
 6558TIP3   OH241088   2.153   3.842  14.316  0.2035 -0.1195  0.3592
 6558TIP3    H141089   2.108   3.902  14.256 -2.7518 -1.4196  1.1148
 6558TIP3    H241090   2.166   3.762  14.265 -1.9021 -1.0654  1.1846
 6559TIP3   OH241091   3.691   0.558   3.934 -0.2043 -0.1993 -0.2012
 6559TIP3    H141092   3.706   0.484   3.994  2.6845  1.1987  0.9871
 6559TIP3    H241093   3.645   0.622   3.987 -0.1455 -0.0394 -0.3445
 6560TIP3   OH241094   6.302   0.404   4.356  0.3998 -0.8783 -0.5238
 6560TIP3    H141095   6.372   0.468   4.368  1.2195 -1.8415 -0.0260
 6560TIP3    H241096   6.258   0.431   4.275  0.9920  0.0657 -0.5352
 6561TIP3   OH241097   3.635   2.817   2.566 -0.8115  0.0205  0.0277
 6561TIP3    H141098   3.562   2.870   2.532 -0.7331  0.7542  0.9747
 6561TIP3    H241099   3.614   2.804   2.658 -0.3593 -0.8346  0.0164
 6562TIP3   OH241100   1.274   5.401  13.058  0.5338 -0.3431  0.0010
 6562TIP3    H141101   1.244   5.418  13.147  0.0302 -2.3644  0.2651
 6562TIP3    H241102   1.249   5.480  13.009 -1.2196 -0.1178  1.1699
 6563TIP3   OH241103   6.091   1.017  14.272 -0.3506  0.4152 -0.1363
 6563TIP3    H141104   6.120   0.980  14.355 -1.1349 -0.4537 -0.2307
 6563TIP3    H241105   6.163   1.073  14.244 -0.2672  1.1343  1.3731
 6564TIP3   OH241106   0.973   4.006  14.714  0.3326 -0.0246  0.0945
 6564TIP3    H141107   0.893   3.953  14.716  0.5838 -0.4276 -0.5245
 6564TIP3    H241108   1.015   3.989  14.798 -0.3858  0.4371  0.5634
 6565TIP3   OH241109   6.020   3.489  15.886 -0.6153 -0.5680 -0.0103
 6565TIP3    H141110   6.048   3.531  15.804  0.3176 -0.0676  0.5492
 6565TIP3    H241111   5.982   3.561  15.937  0.9877 -0.3575  0.9531
 6566TIP3   OH241112   5.598   4.457  14.078 -0.2435 -0.0950  0.1646
 6566TIP3    H141113   5.577   4.541  14.038  1.3744 -0.7470 -2.2234
 6566TIP3    H241114   5.516   4.430  14.120 -1.4098  1.6534 -0.8338
 6567TIP3   OH241115   5.385   5.674   6.065 -0.0914 -0.6086 -0.1238
 6567TIP3    H141116   5.329   5.719   6.002 -0.7380  0.0416  0.8940
 6567TIP3    H241117   5.373   5.722   6.147 -0.1689 -2.1470  0.8020
 6568TIP3   OH241118   1.450   4.776   4.211  0.0286  0.1660 -0.1049
 6568TIP3    H141119   1.454   4.870   4.230  1.6710 -0.1661  1.4484
 6568TIP3    H241120   1.472   4.734   4.293  2.6173 -1.5255 -1.5309
 6569TIP3   OH241121   1.715   1.522  12.678  0.4136 -0.2581 -0.4687
 6569TIP3    H141122   1.806   1.514  12.648  1.2566 -0.0305  1.8681
 6569TIP3    H241123   1.687   1.432  12.692  1.2632 -0.2553  1.4676
 6570TIP3   OH241124   5.722   0.327  16.460  0.0647  0.1226  0.4662
 6570TIP3    H141125   5.767   0.335  16.376 -0.6447  0.3203  0.0955
 6570TIP3    H241126   5.774   0.263  16.510  0.5805  0.1288 -0.0571
 6571TIP3   OH241127   2.974   1.490   1.986 -0.3394 -0.0038 -0.4763
 6571TIP3    H141128   2.987   1.585   1.998  0.8129  0.1343 -2.3909
 6571TIP3    H241129   2.879   1.478   1.993 -0.4618  1.1940  0.3327
 6572TIP3   OH241130   5.128   2.113   5.228  0.5484  0.2374  0.2738
 6572TIP3    H141131   5.065   2.057   5.274  0.2177  0.1763 -0.2470
 6572TIP3    H241132   5.094   2.120   5.139  1.2239  0.2911  0.0113
 6573TIP3   OH241133   0.574   0.111  16.553  0.4548 -0.2377 -0.3681
 6573TIP3    H141134   0.540   0.023  16.562  1.6946 -0.7509 -0.5016
 6573TIP3    H241135   0.512   0.156  16.495  0.6090 -1.4567 -1.5078
 6574TIP3   OH241136   4.690   0.019  10.763  0.3876  0.1734 -0.2020
 6574TIP3    H141137   4.651   0.021  10.676  0.3465 -1.1429 -0.2312
 6574TIP3    H241138   4.633   0.074  10.817 -0.4937 -0.2880 -0.6512
 6575TIP3   OH241139   2.915   6.739   4.265 -0.2165 -0.0806  0.0886
 6575TIP3    H141140   2.945   6.824   4.298  1.0972 -0.9988  1.3717
 6575TIP3    H241141   2.879   6.695   4.342  0.3324 -1.1901 -0.2777
 6576TIP3   OH241142   5.169   6.456   5.237  0.7426 -0.5110  0.0359
 6576TIP3    H141143   5.209   6.410   5.163  0.1918 -1.7041  0.4448
 6576TIP3    H241144   5.231   6.445   5.309  1.2547  0.6043 -0.2166
 6577TIP3   OH241145   5.320   1.149  11.012 -0.2600 -0.9066  0.3065
 6577TIP3    H141146   5.389   1.098  11.056  0.4687 -0.3998 -0.2349
 6577TIP3    H241147   5.313   1.229  11.064 -0.8238 -1.1826  0.6688
 6578TIP3   OH241148   0.019   1.236  11.231  0.1737  0.6268 -0.2072
 6578TIP3    H141149  -0.021   1.171  11.173  0.0806 -0.4301  0.9847
 6578TIP3    H241150   0.034   1.189  11.313  2.2976  1.4721 -0.0506
 6579TIP3   OH241151   2.837   5.965  15.233  0.2344  0.4155  0.5762
 6579TIP3    H141152   2.823   5.912  15.155  3.2187  0.5748 -0.1932
 6579TIP3    H241153   2.854   5.902  15.303  0.5001  0.2950  0.4048
 6580TIP3   OH241154   1.863   5.730  11.446 -0.4825 -0.1907 -0.0862
 6580TIP3    H141155   1.840   5.694  11.360 -0.2446 -0.9554  0.1605
 6580TIP3    H241156   1.908   5.658  11.491  0.6117  0.6187  0.1730
 6581TIP3   OH241157   3.109   5.314  16.644 -0.3976 -0.1511  0.2597
 6581TIP3    H141158   3.148   5.395  16.679 -0.3341 -0.7394  1.6344
 6581TIP3    H241159   3.179   5.249  16.654 -0.4992 -0.4129 -0.7020
 6582TIP3   OH241160   4.400   4.517   2.027 -0.3378  0.1714  0.1780
 6582TIP3    H141161   4.362   4.605   2.030 -0.1224  0.3139 -0.8247
 6582TIP3    H241162   4.476   4.526   1.969  0.4652 -0.3974  1.1221
 6583TIP3   OH241163   2.741   0.958   4.942 -0.0679  0.5359  0.2236
 6583TIP3    H141164   2.714   1.047   4.964 -0.8332  0.3099  0.2084
 6583TIP3    H241165   2.837   0.961   4.946 -0.0179  1.7470 -1.2826
 6584TIP3   OH241166   1.382   0.763  14.122 -0.3346  0.6374 -0.0556
 6584TIP3    H141167   1.394   0.771  14.027 -0.4891  0.8761 -0.0536
 6584TIP3    H241168   1.356   0.671  14.135 -0.7708  0.7271 -0.2884
 6585TIP3   OH241169   4.403   1.455  12.935  0.2304 -0.0667 -0.2893
 6585TIP3    H141170   4.345   1.467  13.010  1.3003  0.7512  0.4332
 6585TIP3    H241171   4.484   1.418  12.972  0.4616 -0.4829 -1.1660
 6586TIP3   OH241172   2.987   1.987  15.980 -0.5924 -0.2057  0.8694
 6586TIP3    H141173   3.072   1.957  16.013 -0.5950  0.8049  1.8655
 6586TIP3    H241174   2.941   1.906  15.954  0.9814 -0.7060 -0.5286
 6587TIP3   OH241175   5.371   2.824   5.074 -0.1553 -0.2779 -0.2489
 6587TIP3    H141176   5.333   2.911   5.065 -0.1114 -0.1897  0.3952
 6587TIP3    H241177   5.301   2.770   5.108 -0.5961 -0.8303 -1.9224
 6588TIP3   OH241178   5.610   1.093  14.818 -0.3455  0.2299  0.0609
 6588TIP3    H141179   5.578   1.014  14.861 -0.1122  0.5341  0.8158
 6588TIP3    H241180   5.576   1.088  14.729  1.7762 -2.0195 -0.7357
 6589TIP3   OH241181   1.654   6.390   5.749  0.0636  0.3553 -0.2351
 6589TIP3    H141182   1.634   6.297   5.744 -0.5089  0.4472  0.2699
 6589TIP3    H241183   1.627   6.425   5.664  0.7436 -0.0209 -0.6117
 6590TIP3   OH241184   5.972   5.485   0.940  0.0965  0.0113  0.5961
 6590TIP3    H141185   5.912   5.491   0.866 -2.2946  1.1629  2.4700
 6590TIP3    H241186   6.058   5.469   0.901 -1.2631 -0.8428 -2.2887
 6591TIP3   OH241187   5.263   6.522  12.944 -0.1813 -0.4396 -0.7183
 6591TIP3    H141188   5.296   6.529  12.855 -2.1205 -0.5397 -1.5010
 6591TIP3    H241189   5.168   6.517  12.934 -0.4450 -0.5599  1.3551
 6592TIP3   OH241190   5.146   6.457  11.014 -0.5891 -0.9198  0.1936
 6592TIP3    H141191   5.099   6.426  11.092  0.2593  0.9941  1.5693
 6592TIP3    H241192   5.088   6.522  10.975 -0.1902 -0.4359  0.3937
 6593TIP3   OH241193   0.074   5.032   3.797 -0.2236  0.2447  0.2927
 6593TIP3    H141194   0.056   5.092   3.725  0.3960  0.4314  0.2812
 6593TIP3    H241195   0.018   5.063   3.868  0.0638  0.8261  0.2763
 6594TIP3   OH241196   1.525   4.955   6.093 -0.6123 -0.3887 -0.0476
 6594TIP3    H141197   1.451   4.961   6.153 -0.7055  1.1403 -0.2909
 6594TIP3    H241198   1.601   4.942   6.151 -0.8594 -0.2647  0.3117
 6595TIP3   OH241199   0.227   1.188  14.021 -0.3406  0.3037 -0.6410
 6595TIP3    H141200   0.239   1.093  14.015  0.1179  0.2427  0.7994
 6595TIP3    H241201   0.132   1.199  14.029 -0.2843 -0.3152  2.1792
 6596TIP3   OH241202   5.474   4.877  11.334  0.7337 -0.0478  0.2299
 6596TIP3    H141203   5.492   4.861  11.241 -0.5131  1.4382 -0.3075
 6596TIP3    H241204   5.494   4.969  11.347 -1.5452  0.4258  0.7790
 6597TIP3   OH241205   6.047   1.582   4.132 -0.1821  0.1616 -0.1642
 6597TIP3    H141206   6.110   1.634   4.181  0.1765 -0.3540 -0.0661
 6597TIP3    H241207   6.097   1.549   4.057 -0.0218 -1.1638  0.5009
 6598TIP3   OH241208   1.019   6.059   3.437 -0.6592  0.2473 -0.0431
 6598TIP3    H141209   1.005   5.973   3.475 -1.9631  0.6369  0.4282
 6598TIP3    H241210   1.101   6.090   3.475 -0.2995 -0.6843 -0.0483
 6599TIP3   OH241211   2.217   3.038  16.850  0.6301 -0.1349 -0.1815
 6599TIP3    H141212   2.145   3.033  16.788  1.1620 -0.3683 -0.7995
 6599TIP3    H241213   2.195   2.976  16.918  1.2451 -1.8612 -1.4656
 6600TIP3   OH241214   0.702   0.225   0.286 -0.0075  0.6632 -0.1434
 6600TIP3    H141215   0.761   0.168   0.237 -1.9539 -1.2912 -0.3582
 6600TIP3    H241216   0.616   0.213   0.245 -1.0682  1.4669  1.7080
 6601TIP3   OH241217   3.487   3.084  12.812  0.7057  0.5910  0.0002
 6601TIP3    H141218   3.547   3.104  12.883  1.3580 -0.5698 -0.2042
 6601TIP3    H241219   3.411   3.044  12.855  1.3029 -0.5539  0.0235
 6602TIP3   OH241220   0.895   6.366   3.695 -0.5561  0.1934 -0.4371
 6602TIP3    H141221   0.970   6.385   3.751  0.5779 -0.6112 -1.6119
 6602TIP3    H241222   0.861   6.452   3.671  0.6780  0.6222 -0.7410
 6603TIP3   OH241223   2.845   5.346   3.111 -0.1693 -0.1620  0.0179
 6603TIP3    H141224   2.843   5.379   3.201 -0.4149 -0.7847  0.2489
 6603TIP3    H241225   2.909   5.401   3.067  0.6950 -0.4882  0.8370
 6604TIP3   OH241226   5.655   3.853   5.437 -0.4900  0.2005  0.1118
 6604TIP3    H141227   5.566   3.884   5.454  0.0221  1.2544  0.9801
 6604TIP3    H241228   5.664   3.856   5.342 -0.4688  2.8773  0.1238
 6605TIP3   OH241229   5.455   3.643  14.712 -0.2702  0.0145  0.3353
 6605TIP3    H141230   5.451   3.658  14.807 -0.4159  1.0138  0.1801
 6605TIP3    H241231   5.541   3.676  14.686 -0.6260  0.6578 -0.0311
 6606TIP3   OH241232   4.337   0.538  16.842  0.3447  0.0156 -0.0327
 6606TIP3    H141233   4.250   0.518  16.878  0.3579  0.2050  0.1060
 6606TIP3    H241234   4.354   0.628  16.870  1.5591 -0.7456  1.8684
 6607TIP3   OH241235   3.169   6.474   5.233  0.4546 -0.2799  0.1027
 6607TIP3    H141236   3.125   6.408   5.286 -0.1250  0.2858  0.3319
 6607TIP3    H241237   3.206   6.536   5.296  1.9150 -0.9283 -0.0631
 6608TIP3   OH241238   3.761   0.537  16.453 -0.0808 -0.7045 -0.6252
 6608TIP3    H141239   3.779   0.536  16.547  0.9786 -0.4779 -0.8121
 6608TIP3    H241240   3.701   0.611  16.441 -0.7327 -1.1330 -0.0503
 6609TIP3   OH241241   5.736   1.082   2.568 -0.7439  0.5933  0.7660
 6609TIP3    H141242   5.720   1.063   2.476  0.5015  2.7089  0.0508
 6609TIP3    H241243   5.831   1.074   2.579 -0.9766 -0.7652  2.1835
 6610TIP3   OH241244   4.386   5.861   2.700  0.2884 -0.0069  0.2992
 6610TIP3    H141245   4.451   5.900   2.758  0.2004  0.5696  0.0155
 6610TIP3    H241246   4.303   5.868   2.747  0.3000 -0.0022  0.3189
 6611TIP3   OH241247   4.409   5.374  12.177  0.4336 -0.3944 -0.2362
 6611TIP3    H141248   4.496   5.333  12.182  0.3304 -0.4702  1.4053
 6611TIP3    H241249   4.350   5.310  12.218 -0.4822 -0.4823 -1.6018
 6612TIP3   OH241250   4.797   0.695   3.121  0.4622  0.4042  0.0487
 6612TIP3    H141251   4.793   0.780   3.077  0.3858  0.9712  1.1126
 6612TIP3    H241252   4.765   0.713   3.210  0.2469 -0.7809  0.2228
 6613TIP3   OH241253   4.362   3.406  11.209  0.3798 -0.6533 -0.0397
 6613TIP3    H141254   4.308   3.462  11.154  0.2753 -1.3729 -0.6938
 6613TIP3    H241255   4.452   3.422  11.181  0.3489 -0.8218 -0.2355
 6614TIP3   OH241256   4.513   3.531  14.247  0.9160  0.5224  0.4231
 6614TIP3    H141257   4.467   3.577  14.176  1.0744  0.5575  0.3420
 6614TIP3    H241258   4.580   3.480  14.202  0.6797  0.1378  0.5075
 6615TIP3   OH241259   6.340   3.921   2.548 -0.6146  0.2078 -0.0940
 6615TIP3    H141260   6.297   3.873   2.477 -0.5746  0.7836 -0.5187
 6615TIP3    H241261   6.268   3.964   2.594 -1.0206 -2.6821  2.2275
 6616TIP3   OH241262   2.786   1.439  11.604  0.1667  0.1428  0.0400
 6616TIP3    H141263   2.863   1.496  11.612 -0.4902  1.2100 -0.8843
 6616TIP3    H241264   2.803   1.388  11.524  1.3767 -2.0328  1.5662
 6617TIP3   OH241265   4.519   3.641  17.095 -0.1328  0.3381 -0.2848
 6617TIP3    H141266   4.435   3.654  17.140 -0.0695  0.7386 -0.2802
 6617TIP3    H241267   4.495   3.600  17.012 -0.4081  1.1607 -0.6209
 6618TIP3   OH241268   0.907   4.825   6.714  0.2968  0.2412 -0.2084
 6618TIP3    H141269   0.972   4.786   6.773 -0.6657  0.6336  1.1611
 6618TIP3    H241270   0.843   4.866   6.773  0.3009  2.3203 -1.5516
 6619TIP3   OH241271   0.700   4.301  15.339  0.2517 -0.3155 -0.5379
 6619TIP3    H141272   0.736   4.213  15.337  0.4560 -0.2201 -1.2075
 6619TIP3    H241273   0.623   4.294  15.395  0.1293 -0.9749 -0.7808
 6620TIP3   OH241274   6.523   3.523  11.266  0.0753  0.1110  0.5560
 6620TIP3    H141275   6.470   3.595  11.234  0.8416  0.1937 -0.6153
 6620TIP3    H241276   6.595   3.517  11.203  1.8576  0.4759  2.4682
 6621TIP3   OH241277   5.318   3.290   3.782  0.4517  0.4126  0.3053
 6621TIP3    H141278   5.264   3.359   3.743 -0.9653 -0.0041  1.4633
 6621TIP3    H241279   5.319   3.221   3.716 -3.1576 -0.9075  1.3836
 6622TIP3   OH241280   1.543   6.021   5.408  0.2233  0.6148 -0.3881
 6622TIP3    H141281   1.611   5.964   5.374 -0.1504 -0.9768  1.3203
 6622TIP3    H241282   1.583   6.107   5.413  1.4853  0.0931 -1.1800
 6623TIP3   OH241283   1.946   3.996   3.365 -0.0502  0.1651  0.2312
 6623TIP3    H141284   2.004   4.015   3.438  2.4212  0.3201 -1.6329
 6623TIP3    H241285   1.904   4.080   3.345 -0.7536  0.1145  1.4277
 6624TIP3   OH241286   1.796   0.330   5.594  0.2999 -0.0830 -0.7639
 6624TIP3    H141287   1.837   0.350   5.510 -0.1616  1.9705 -0.5631
 6624TIP3    H241288   1.731   0.262   5.575  1.1406 -0.6247 -1.7834
 6625TIP3   OH241289   6.481   3.737  17.155 -0.1293 -0.2655 -0.2484
 6625TIP3    H141290   6.436   3.674  17.211 -0.0240  1.0572  1.3721
 6625TIP3    H241291   6.571   3.705  17.151  0.0715  0.0797  1.0746
 6626TIP3   OH241292   2.811   2.038   0.280  0.2043 -0.1509  0.0973
 6626TIP3    H141293   2.877   1.990   0.231  2.7284  2.0201  1.1686
 6626TIP3    H241294   2.763   2.088   0.213  0.3188 -0.9329 -0.5884
 6627TIP3   OH241295   5.889   2.847  10.893  0.3090  0.4159  0.2181
 6627TIP3    H141296   5.891   2.866  10.987 -1.6852 -0.2214  0.4374
 6627TIP3    H241297   5.853   2.927  10.854  0.0798  0.2702  0.1303
 6628TIP3   OH241298   5.309   0.366   1.375  0.2832 -0.2415 -0.4772
 6628TIP3    H141299   5.245   0.352   1.305 -0.0250 -0.8764 -0.0777
 6628TIP3    H241300   5.255   0.383   1.452  0.6169  0.1732 -0.3336
 6629TIP3   OH241301   2.660   6.610   2.079  0.0747  0.4721  0.0801
 6629TIP3    H141302   2.704   6.660   2.148 -0.4528 -0.5154  1.1659
 6629TIP3    H241303   2.567   6.621   2.097 -0.0601 -1.4686  0.8076
 6630TIP3   OH241304   2.727   5.511  13.059 -0.9627  0.4087 -0.7524
 6630TIP3    H141305   2.703   5.492  12.969 -0.5674 -0.2017 -0.7291
 6630TIP3    H241306   2.736   5.607  13.061 -2.9479  0.6490 -0.8581
 6631TIP3   OH241307   3.763   0.516   0.659 -0.0626 -0.0810  0.2725
 6631TIP3    H141308   3.810   0.499   0.741 -0.7974 -2.3085  0.3007
 6631TIP3    H241309   3.825   0.567   0.606  1.2130 -0.3641  1.4303
 6632TIP3   OH241310   0.313   3.776   2.820  0.0525  0.4789  0.1494
 6632TIP3    H141311   0.228   3.806   2.854  1.0602  1.2307  2.2120
 6632TIP3    H241312   0.343   3.847   2.763 -0.7982  0.0870 -0.8134
 6633TIP3   OH241313   6.328   1.671   5.515  0.1654 -0.3555  0.4175
 6633TIP3    H141314   6.322   1.757   5.556  2.0045 -1.0740  2.3468
 6633TIP3    H241315   6.262   1.618   5.559  0.0198 -0.3164  0.2475
 6634TIP3   OH241316   6.714   4.890   0.647  0.1643  0.8248 -0.2944
 6634TIP3    H141317   6.735   4.802   0.618  0.6450  0.6000  0.6834
 6634TIP3    H241318   6.793   4.941   0.629  0.1509  0.8859 -0.1816
 6635TIP3   OH241319   6.318   3.715   1.785  0.0645  0.1379 -0.4347
 6635TIP3    H141320   6.357   3.639   1.827  0.8427  0.0071 -1.3566
 6635TIP3    H241321   6.286   3.683   1.701  0.5870  0.8574 -0.9244
 6636TIP3   OH241322   5.420   0.060  11.986 -0.2747 -0.5203 -0.0982
 6636TIP3    H141323   5.453  -0.007  12.046  0.5707  0.6089  0.7324
 6636TIP3    H241324   5.412   0.014  11.902  3.5025 -0.9317 -0.3942
 6637TIP3   OH241325   0.474   4.212  14.928 -0.3060  0.2571 -0.3654
 6637TIP3    H141326   0.522   4.131  14.908 -1.9191 -0.5264 -1.2881
 6637TIP3    H241327   0.531   4.259  14.989  1.0195 -1.2206 -0.3893
 6638TIP3   OH241328   1.961   6.744  11.255 -0.2076  0.0326  0.1055
 6638TIP3    H141329   2.021   6.695  11.199 -0.9765 -2.1776  1.1037
 6638TIP3    H241330   1.988   6.722  11.344 -0.5246  1.5633  0.6029
 6639TIP3   OH241331   2.386   3.735  13.717 -0.0096  0.3980 -0.0316
 6639TIP3    H141332   2.437   3.768  13.790  0.7055  0.5300 -0.5819
 6639TIP3    H241333   2.428   3.652  13.693  0.0189  0.5571 -0.5529
 6640TIP3   OH241334   3.294   5.361   5.935  0.0334 -0.0807  0.3621
 6640TIP3    H141335   3.385   5.338   5.949  0.3200  1.2869  0.8293
 6640TIP3    H241336   3.255   5.281   5.898  0.9618 -1.2976  1.9040
 6641TIP3   OH241337   6.698   4.565  10.604  0.1231 -0.1469  0.8532
 6641TIP3    H141338   6.791   4.544  10.593  0.1023  0.2684 -0.2486
 6641TIP3    H241339   6.656   4.480  10.620  0.4409 -0.6173 -0.6228
 6642TIP3   OH241340   5.381   3.765  10.374 -0.0799  0.6176  0.3086
 6642TIP3    H141341   5.318   3.805  10.433  0.0675  0.5663  0.5031
 6642TIP3    H241342   5.436   3.837  10.344 -0.4065  0.7053 -0.0831
 6643TIP3   OH241343   4.356   6.576   2.857 -0.6993 -0.5175  0.4994
 6643TIP3    H141344   4.443   6.586   2.820 -0.3098  0.0166  1.5128
 6643TIP3    H241345   4.318   6.501   2.810  0.2633 -0.7044 -0.0090
 6644TIP3   OH241346   1.991   1.285  16.566 -0.2562  0.1500 -0.0155
 6644TIP3    H141347   1.905   1.281  16.608 -0.4543 -0.3277 -0.4563
 6644TIP3    H241348   2.034   1.203  16.590 -0.6186 -0.4250 -1.2377
 6645TIP3   OH241349   5.950   2.348   1.511 -0.1130  0.1043  0.6244
 6645TIP3    H141350   5.869   2.316   1.469  0.7877 -1.4961  0.0235
 6645TIP3    H241351   6.020   2.316   1.454  1.0428 -0.3508  2.2541
 6646TIP3   OH241352   4.192   4.575  15.005  0.2344 -0.2956  0.3336
 6646TIP3    H141353   4.138   4.498  14.985 -0.8826  0.4027  0.6004
 6646TIP3    H241354   4.235   4.596  14.922  0.4989 -1.1532  0.2403
 6647TIP3   OH241355   0.928   2.792   1.057 -0.0376  0.3294 -0.2862
 6647TIP3    H141356   0.852   2.740   1.031  0.3926  0.5302 -2.0589
 6647TIP3    H241357   0.892   2.881   1.069 -0.0434  0.5065 -1.4970
 6648TIP3   OH241358   4.279   5.289  10.556  0.4230 -0.3956  0.0631
 6648TIP3    H141359   4.343   5.360  10.556 -1.0041  0.9750  1.3955
 6648TIP3    H241360   4.313   5.227  10.621  0.5145  0.2106  0.6007
 6649TIP3   OH241361   4.664   6.630   4.311 -0.4362 -0.5277  0.0565
 6649TIP3    H141362   4.619   6.712   4.293 -2.3547 -1.7951 -1.3127
 6649TIP3    H241363   4.650   6.615   4.405  0.9413  1.2213  0.5886
 6650TIP3   OH241364   6.163   1.081   1.228  0.4628  0.2266 -0.4021
 6650TIP3    H141365   6.144   1.100   1.136  1.9958  1.7398 -0.4423
 6650TIP3    H241366   6.204   1.160   1.261  1.6343 -0.9477  1.0897
 6651TIP3   OH241367   6.049   5.091   1.547 -0.1014 -0.0857  0.1430
 6651TIP3    H141368   6.080   5.117   1.634  1.3217  1.0591 -0.6477
 6651TIP3    H241369   6.114   5.027   1.517 -0.5993 -0.4946 -0.0669
 6652TIP3   OH241370   6.525   2.889  11.625  0.5099 -0.2876  0.4077
 6652TIP3    H141371   6.516   2.858  11.715 -0.0930  1.9381  1.1897
 6652TIP3    H241372   6.514   2.984  11.631  0.9537 -0.0154 -1.9615
 6653TIP3   OH241373   3.096   2.356  12.453  0.4252 -0.1644 -0.4640
 6653TIP3    H141374   3.020   2.344  12.509 -0.3559  1.7071 -1.0512
 6653TIP3    H241375   3.065   2.410  12.381  2.9102  3.5410  0.8918
 6654TIP3   OH241376   5.785   1.473  11.946  0.5815  0.6353 -0.2273
 6654TIP3    H141377   5.762   1.554  11.991  0.1483  2.3405 -3.2266
 6654TIP3    H241378   5.710   1.416  11.960  0.3451  1.1898  0.9207
 6655TIP3   OH241379   5.194   5.494   5.827 -0.8025 -0.2220 -0.2516
 6655TIP3    H141380   5.146   5.451   5.898 -0.5119  1.5827  1.1263
 6655TIP3    H241381   5.141   5.570   5.805 -0.0808  0.1267 -0.8404
 6656TIP3   OH241382   4.641   5.428  13.715  0.1664  0.1364 -0.1822
 6656TIP3    H141383   4.555   5.471  13.706  0.6945  1.6785  1.5363
 6656TIP3    H241384   4.662   5.398  13.626 -2.3938 -0.8413 -0.5529
 6657TIP3   OH241385   6.090   0.505  16.409 -0.0239  0.3110 -0.0472
 6657TIP3    H141386   6.105   0.449  16.333 -2.4470 -0.1645 -0.2473
 6657TIP3    H241387   6.050   0.584  16.374 -2.3428 -0.4097  0.7418
 6658TIP3   OH241388   2.746   1.547  13.146  0.6435  0.7030  0.0366
 6658TIP3    H141389   2.666   1.594  13.169  0.3558 -1.1316  3.4156
 6658TIP3    H241390   2.792   1.536  13.229  3.5199  0.0755 -1.5200
 6659TIP3   OH241391   3.208   1.067  15.171  0.0802  0.3658  0.3003
 6659TIP3    H141392   3.246   1.121  15.240  0.5235  1.3541 -0.6858
 6659TIP3    H241393   3.183   1.130  15.103 -1.3316 -0.4739  0.0070
 6660TIP3   OH241394   6.553   5.708  12.156 -0.4718  0.1300 -0.0920
 6660TIP3    H141395   6.524   5.727  12.245 -0.4871  1.2647 -0.3199
 6660TIP3    H241396   6.626   5.768  12.142 -1.0708  0.6258 -1.1614
 6661TIP3   OH241397   5.107   1.935   2.094  1.1614 -0.0166  0.6471
 6661TIP3    H141398   5.137   1.853   2.056  0.7982 -0.8030  2.0052
 6661TIP3    H241399   5.147   2.003   2.039  0.8273 -1.0825 -0.9760
 6662TIP3   OH241400   3.569   6.607  17.106 -0.2046 -0.6326 -0.5903
 6662TIP3    H141401   3.641   6.549  17.083 -0.3439 -0.2084 -2.1603
 6662TIP3    H241402   3.610   6.672  17.165 -0.2253 -2.6821  1.8632
 6663TIP3   OH241403   3.007   0.704  11.341  0.2021 -0.6293  0.0007
 6663TIP3    H141404   3.060   0.775  11.306  0.4788 -0.4767  0.7190
 6663TIP3    H241405   3.042   0.688  11.428 -1.1737 -0.2582  0.6570
 6664TIP3   OH241406   5.369   0.792   2.453 -0.1760  0.0639  0.0477
 6664TIP3    H141407   5.287   0.824   2.416 -0.1973  1.5472  1.2572
 6664TIP3    H241408   5.369   0.698   2.435 -1.0817  0.4017 -1.9000
 6665TIP3   OH241409   1.962   5.510   6.646  0.2520 -0.3997 -0.1954
 6665TIP3    H141410   1.909   5.450   6.699  0.1446 -0.3314 -0.2251
 6665TIP3    H241411   2.044   5.518   6.694 -0.7306  1.6521  1.3102
 6666TIP3   OH241412   4.677   5.138  13.766  0.4011  0.3326 -0.1741
 6666TIP3    H141413   4.670   5.233  13.761 -0.2410  0.2257 -1.6702
 6666TIP3    H241414   4.617   5.105  13.699  0.6132 -1.1319  0.3127
 6667TIP3   OH241415   2.981   3.085  14.554 -0.2573  0.4127  0.1171
 6667TIP3    H141416   2.983   3.027  14.478  1.3025  1.6504 -0.8456
 6667TIP3    H241417   2.919   3.154  14.531  0.7877  1.2072 -0.3906
 6668TIP3   OH241418   6.614   1.542   0.461  0.0537  0.2743  0.0276
 6668TIP3    H141419   6.547   1.546   0.529  0.7678  2.7120  0.6749
 6668TIP3    H241420   6.612   1.451   0.431 -1.3055 -0.5161  2.2640
 6669TIP3   OH241421   2.653   6.309  12.621 -0.1402 -0.3043 -0.3881
 6669TIP3    H141422   2.710   6.374  12.580 -1.0968  0.1098 -1.0790
 6669TIP3    H241423   2.653   6.332  12.714  0.9258 -0.4033 -0.3495
 6670TIP3   OH241424   2.954   3.599  13.847 -0.0267 -0.7416 -0.4484
 6670TIP3    H141425   2.966   3.692  13.830  0.3863 -0.4532  1.2060
 6670TIP3    H241426   3.023   3.556  13.797  0.4914 -0.0562 -0.3337
 6671TIP3   OH241427   5.065   2.945  15.346 -0.0092 -0.0121  0.3388
 6671TIP3    H141428   5.051   2.870  15.288  1.6230 -0.0163 -0.1005
 6671TIP3    H241429   5.069   3.020  15.287  1.2583  0.0332  0.4449
 6672TIP3   OH241430   1.287   0.869   3.246  0.2436  0.1030 -0.3165
 6672TIP3    H141431   1.230   0.920   3.304  1.2541  1.4607 -0.4540
 6672TIP3    H241432   1.319   0.797   3.302  1.6247  1.6823  1.0651
 6673TIP3   OH241433   4.999   4.763   4.464 -0.2335  0.1677  0.2062
 6673TIP3    H141434   4.972   4.683   4.508 -0.1673 -0.4767 -0.8744
 6673TIP3    H241435   5.089   4.745   4.436 -0.4917  0.2952 -0.7443
 6674TIP3   OH241436   5.772   6.142  11.848 -0.2302  0.7029  0.1012
 6674TIP3    H141437   5.734   6.113  11.765  0.3270  1.7917 -0.5700
 6674TIP3    H241438   5.737   6.230  11.861  1.4840  1.4894 -0.2200
 6675TIP3   OH241439   3.213   6.072  14.384  0.7806  0.4911 -0.0644
 6675TIP3    H141440   3.162   6.015  14.326 -1.0534  0.7941  1.1817
 6675TIP3    H241441   3.202   6.159  14.347  0.4241  0.5477  0.1685
 6676TIP3   OH241442   3.499   1.528   0.860  0.7493  0.2079  0.3936
 6676TIP3    H141443   3.501   1.570   0.774 -1.8720 -1.1728 -0.4601
 6676TIP3    H241444   3.503   1.601   0.922  2.7757  1.2303 -0.8361
 6677TIP3   OH241445   6.540   2.533   1.526  0.4136 -0.1852  0.7904
 6677TIP3    H141446   6.621   2.584   1.520 -0.4561  1.2266  0.5956
 6677TIP3    H241447   6.491   2.558   1.447 -1.3677  1.1057  2.2249
 6678TIP3   OH241448   4.988   6.109   0.826 -0.1264 -0.2726 -0.2047
 6678TIP3    H141449   4.979   6.138   0.917 -0.5780 -0.3820 -0.2085
 6678TIP3    H241450   5.068   6.151   0.795  0.2312 -0.5191  0.3546
 6679TIP3   OH241451   1.558   3.505   0.968 -0.0174  0.4837 -0.2076
 6679TIP3    H141452   1.614   3.446   1.019 -0.4855 -0.8959 -1.2301
 6679TIP3    H241453   1.608   3.587   0.962  0.7509  0.1260  1.0482
 6680TIP3   OH241454   5.587   2.791  14.652  0.0739  0.1220 -0.5311
 6680TIP3    H141455   5.548   2.704  14.658 -0.5021  0.4649  2.8357
 6680TIP3    H241456   5.650   2.784  14.580  0.5251 -3.2714  0.0219
 6681TIP3   OH241457   1.474   4.111  14.775  0.2098  0.0895  0.0507
 6681TIP3    H141458   1.421   4.191  14.774 -0.0155 -0.0546  0.5527
 6681TIP3    H241459   1.564   4.142  14.758 -0.0902  0.2810 -1.3321
 6682TIP3   OH241460   4.264   4.583  16.388  0.6969  0.0561 -0.1095
 6682TIP3    H141461   4.234   4.581  16.479  3.1775 -0.3803  0.7642
 6682TIP3    H241462   4.279   4.491  16.366  3.9553  0.3237  0.4997
 6683TIP3   OH241463   6.465   5.454   0.863  0.2006  0.4686 -0.2777
 6683TIP3    H141464   6.538   5.515   0.866  2.6384 -2.0425 -2.2583
 6683TIP3    H241465   6.438   5.454   0.771 -1.5614  0.4988  0.2136
 6684TIP3   OH241466   5.698   5.037   4.044 -0.1727  0.5522 -0.2580
 6684TIP3    H141467   5.728   4.957   4.087  1.6942 -0.2393 -2.8283
 6684TIP3    H241468   5.626   5.010   3.988 -1.1249  1.1723  0.6197
 6685TIP3   OH241469   1.028   1.311  13.896 -0.1659 -0.1561 -0.2234
 6685TIP3    H141470   1.029   1.225  13.854  1.0210  0.1942 -0.9558
 6685TIP3    H241471   1.115   1.347  13.878 -0.3671  0.8660  0.7683
 6686TIP3   OH241472   4.250   1.481   2.749  0.0624 -0.3174  0.1516
 6686TIP3    H141473   4.249   1.391   2.718 -0.0159 -0.0197 -0.7509
 6686TIP3    H241474   4.308   1.527   2.688  1.7200 -0.1457  1.7857
 6687TIP3   OH241475   3.196   3.479   6.372  0.3302 -0.3752  0.0675
 6687TIP3    H141476   3.196   3.561   6.420 -1.6920  0.3666 -1.0841
 6687TIP3    H241477   3.223   3.413   6.436  1.0412  1.0198  1.2638
 6688TIP3   OH241478   5.722   5.393  12.473  0.2439 -0.3784  0.1303
 6688TIP3    H141479   5.791   5.332  12.499  0.2925 -0.3578  0.0491
 6688TIP3    H241480   5.668   5.343  12.412  0.5274 -0.2061 -0.2682
 6689TIP3   OH241481   0.800   6.613  11.550  0.3665 -0.2752 -0.5218
 6689TIP3    H141482   0.807   6.582  11.460 -0.7930  0.5788 -0.9193
 6689TIP3    H241483   0.730   6.678  11.549  0.0630 -0.5222  1.0740
 6690TIP3   OH241484   6.173   5.865  14.465  0.1913 -0.0078  0.5635
 6690TIP3    H141485   6.202   5.949  14.429  0.1016 -0.2841 -0.1634
 6690TIP3    H241486   6.251   5.828  14.506 -0.0090  0.8978  1.8286
 6691TIP3   OH241487   1.739   4.743  14.701 -0.2382 -0.1392 -0.7939
 6691TIP3    H141488   1.721   4.713  14.790  2.0080 -0.8697 -0.5186
 6691TIP3    H241489   1.816   4.692  14.674  0.5097  1.6737 -2.2950
 6692TIP3   OH241490   3.030   2.590  13.466  0.4918  0.2710  0.4841
 6692TIP3    H141491   2.935   2.587  13.477  0.6477  0.0003  1.8462
 6692TIP3    H241492   3.056   2.499  13.455  0.5977  0.3542 -0.0105
 6693TIP3   OH241493   1.104   0.510  12.781 -0.0955 -0.0563 -0.2023
 6693TIP3    H141494   1.110   0.579  12.847 -1.9807  1.2480 -1.2787
 6693TIP3    H241495   1.036   0.452  12.814  0.9845 -1.0402  0.3523
 6694TIP3   OH241496   3.611   5.908  15.513 -0.2152  1.2208  0.1291
 6694TIP3    H141497   3.660   5.984  15.546 -0.9669  2.2536 -1.0873
 6694TIP3    H241498   3.522   5.940  15.502 -0.7772 -0.1431  0.5632
 6695TIP3   OH241499   6.338   5.877  11.047 -0.0093 -0.4209  0.1477
 6695TIP3    H141500   6.425   5.889  11.085  1.0742  1.2249 -2.5810
 6695TIP3    H241501   6.351   5.880  10.953 -2.9298 -1.1359 -0.4002
 6696TIP3   OH241502   4.978   2.807  12.468 -0.1979  0.2813  0.0550
 6696TIP3    H141503   5.002   2.899  12.476  0.7744  0.4012 -2.9925
 6696TIP3    H241504   5.061   2.760  12.476 -0.8042 -0.5075  2.5758
 6697TIP3   OH241505   2.852   2.942   3.108 -1.2465 -0.4027 -0.5461
 6697TIP3    H141506   2.848   2.960   3.015 -0.7388 -0.1496 -0.5182
 6697TIP3    H241507   2.760   2.947   3.137 -1.1325  3.0906 -0.3486
 6698TIP3   OH241508   4.882   5.065   0.934 -0.4359  0.2989  0.3937
 6698TIP3    H141509   4.960   5.064   0.990  0.1967  2.3991 -0.3661
 6698TIP3    H241510   4.841   5.150   0.952 -1.7781 -0.1798 -0.2718
 6699TIP3   OH241511   3.929   6.554  10.984  0.0515 -0.5716  0.2170
 6699TIP3    H141512   3.863   6.622  10.974  0.6901  0.4525  2.3806
 6699TIP3    H241513   3.937   6.515  10.897 -2.3024  0.2659 -0.4350
 6700TIP3   OH241514   3.759   2.276   5.269  0.2211 -0.5255  0.0553
 6700TIP3    H141515   3.778   2.209   5.335 -1.0599 -1.5315 -0.5542
 6700TIP3    H241516   3.707   2.231   5.203  0.8766  0.6310 -1.3137
 6701TIP3   OH241517   0.507   1.859  15.782  0.8908 -0.5962  0.3610
 6701TIP3    H141518   0.471   1.925  15.840  0.4018  1.2673 -1.9051
 6701TIP3    H241519   0.582   1.901  15.740  0.0701 -1.0788 -1.7562
 6702TIP3   OH241520   3.986   2.433   3.266 -0.3222  1.1794 -0.6896
 6702TIP3    H141521   4.003   2.419   3.173  1.4275  0.3947 -0.2862
 6702TIP3    H241522   3.989   2.528   3.276 -1.2671  1.3221 -1.5308
 6703TIP3   OH241523   4.469   4.158  13.189 -0.0107  0.1037 -0.8920
 6703TIP3    H141524   4.480   4.070  13.154  4.2490 -0.1720  0.5764
 6703TIP3    H241525   4.422   4.146  13.272  0.7350 -0.8227 -0.5914
 6704TIP3   OH241526   0.435   6.649  16.627 -0.4494 -0.3538  0.8790
 6704TIP3    H141527   0.411   6.635  16.719 -0.1369  0.2175  1.0529
 6704TIP3    H241528   0.351   6.661  16.582 -0.6193 -0.9238  1.0372
 6705TIP3   OH241529   3.290   6.292   2.174  0.2344  0.0473  0.6649
 6705TIP3    H141530   3.371   6.301   2.224 -0.0553  0.5346  1.0485
 6705TIP3    H241531   3.308   6.220   2.113  1.3028  0.8188  0.0435
 6706TIP3   OH241532   2.601   5.739   4.337  0.2653 -0.0940 -0.1453
 6706TIP3    H141533   2.657   5.776   4.405 -0.3177 -0.5666  0.6130
 6706TIP3    H241534   2.616   5.794   4.261  1.3590  0.1086  0.1928
 6707TIP3   OH241535   5.279   0.184   3.503  0.0542  0.1445  0.1692
 6707TIP3    H141536   5.361   0.232   3.497  0.1945  0.0308  1.0882
 6707TIP3    H241537   5.211   0.251   3.499  0.2016  0.2830 -0.0342
 6708TIP3   OH241538   3.488   3.088   5.491 -0.2874  0.0735  0.0273
 6708TIP3    H141539   3.532   3.091   5.576  1.4971  0.3413 -0.8632
 6708TIP3    H241540   3.437   3.169   5.488 -1.1170 -0.3641  1.1856
 6709TIP3   OH241541   4.995   4.800   4.927 -0.1306  0.6694  0.0017
 6709TIP3    H141542   5.052   4.866   4.888 -0.2506  1.2285  0.7422
 6709TIP3    H241543   5.049   4.721   4.933 -0.0392  0.6498 -1.0472
 6710TIP3   OH241544   4.309   3.511   1.849  0.4898 -0.1172 -0.1179
 6710TIP3    H141545   4.355   3.509   1.765  2.3750 -0.8297  0.8734
 6710TIP3    H241546   4.306   3.604   1.873  1.7223 -0.0774 -0.0685
 6711TIP3   OH241547   0.464   6.034  15.692  0.0142 -0.4949 -0.1448
 6711TIP3    H141548   0.509   5.995  15.768  0.9311 -2.1033 -1.4293
 6711TIP3    H241549   0.383   5.983  15.684  0.5193 -1.2005 -0.9584
 6712TIP3   OH241550   1.944   3.786   1.207 -0.3397 -0.1620  0.5683
 6712TIP3    H141551   1.975   3.802   1.118  0.9183  0.1596  1.0390
 6712TIP3    H241552   1.861   3.832   1.213 -0.6965 -0.6211 -0.5934
 6713TIP3   OH241553   2.605   1.891   1.336 -0.0901 -0.2826  0.2321
 6713TIP3    H141554   2.650   1.936   1.407  1.4468  0.9449 -1.4140
 6713TIP3    H241555   2.519   1.870   1.371  0.1233  1.5011  2.0009
 6714TIP3   OH241556   2.421   6.633  16.783  0.0050  0.2064  0.6448
 6714TIP3    H141557   2.440   6.549  16.743 -1.6145 -0.1710  0.6021
 6714TIP3    H241558   2.500   6.655  16.832  1.8424  0.4148 -2.2107
 6715TIP3   OH241559   5.616   1.722   1.060  0.3679 -0.5367  0.3658
 6715TIP3    H141560   5.558   1.742   0.987  1.2125 -1.8014 -0.6974
 6715TIP3    H241561   5.629   1.806   1.104 -2.5316 -0.2587  0.8956
 6716TIP3   OH241562   3.889   2.841  14.227 -0.4995  0.5427 -0.2899
 6716TIP3    H141563   3.805   2.886  14.234 -0.5238  0.5697 -0.7577
 6716TIP3    H241564   3.954   2.911  14.224 -0.4681  0.5245 -0.0796
 6717TIP3   OH241565   6.646   4.871   4.795 -0.6093  0.6601 -0.1998
 6717TIP3    H141566   6.627   4.865   4.889  0.4209 -2.0210 -0.0596
 6717TIP3    H241567   6.629   4.962   4.773  0.1291  1.6548  2.8258
 6718TIP3   OH241568   3.475   0.547  15.099 -0.3109 -0.2860  0.4667
 6718TIP3    H141569   3.392   0.588  15.077 -1.0280 -0.7699  2.0915
 6718TIP3    H241570   3.477   0.466  15.048 -0.5481  0.0170 -0.0317
 6719TIP3   OH241571   2.512   0.824   5.016  0.1729 -0.4736  0.6771
 6719TIP3    H141572   2.594   0.874   5.005  0.9002 -1.9464 -1.0267
 6719TIP3    H241573   2.457   0.852   4.943 -0.6871  0.1496  1.5429
 6720TIP3   OH241574   4.691   1.357   4.565 -0.7074 -0.0943 -0.0675
 6720TIP3    H141575   4.771   1.308   4.581 -1.7277 -2.1578 -0.8613
 6720TIP3    H241576   4.695   1.380   4.472 -1.0065 -0.1835 -0.1043
 6721TIP3   OH241577   2.003   0.598  15.725 -0.5920 -0.1196  0.3554
 6721TIP3    H141578   2.061   0.671  15.701 -0.9958  0.7240  1.8143
 6721TIP3    H241579   2.032   0.572  15.812 -0.1182 -2.0909 -0.3474
 6722TIP3   OH241580   5.853   5.314  12.140 -0.0472  0.1775 -0.4893
 6722TIP3    H141581   5.763   5.296  12.166 -0.5183  0.4490 -1.8579
 6722TIP3    H241582   5.861   5.410  12.147 -0.0541  0.2131 -0.9188
 6723TIP3   OH241583   0.691   0.802  11.651 -0.0432 -0.2204  0.6647
 6723TIP3    H141584   0.755   0.769  11.587 -0.0593  1.2827 -0.1782
 6723TIP3    H241585   0.744   0.847  11.717 -0.1831  1.8721 -0.5363
 6724TIP3   OH241586   6.017   5.823   5.416 -0.4547 -1.1219 -0.0877
 6724TIP3    H141587   6.111   5.845   5.421 -0.9328  0.8427  2.4731
 6724TIP3    H241588   6.011   5.734   5.449  0.3032 -0.2730  2.5507
 6725TIP3   OH241589   3.814   3.998   2.732  0.3084 -0.1050 -0.4470
 6725TIP3    H141590   3.740   3.938   2.739  1.0348 -1.3885 -2.6830
 6725TIP3    H241591   3.782   4.070   2.677 -0.2655  1.1300  1.4279
 6726TIP3   OH241592   0.180   0.808  11.843  0.0721 -0.2152  0.6446
 6726TIP3    H141593   0.165   0.901  11.862 -0.1778 -0.3743  1.2647
 6726TIP3    H241594   0.184   0.803  11.748  0.0262  0.4246  0.6049
 6727TIP3   OH241595   1.576   3.700   4.370  0.3601 -0.1619 -0.4066
 6727TIP3    H141596   1.560   3.642   4.295  0.3989 -0.4766 -0.1738
 6727TIP3    H241597   1.627   3.772   4.334 -1.2916  0.7168 -1.1027
 6728TIP3   OH241598   0.731   0.745   5.407 -0.0768  0.1390  0.9005
 6728TIP3    H141599   0.728   0.706   5.495  0.9393 -0.6721  0.5945
 6728TIP3    H241600   0.704   0.674   5.349  0.7500  0.2004  0.4284
 6729TIP3   OH241601   5.308   2.325  16.315 -0.0004 -0.2481 -0.3553
 6729TIP3    H141602   5.401   2.329  16.337  0.0051  0.3283 -0.4616
 6729TIP3    H241603   5.264   2.315  16.399  0.0619  1.2460 -0.1088
 6730TIP3   OH241604   4.705   2.206   2.001 -0.2163 -0.0436 -0.0584
 6730TIP3    H141605   4.715   2.121   2.043  0.0853 -0.5778 -1.1603
 6730TIP3    H241606   4.752   2.197   1.918  0.3875  1.4136  0.0889
 6731TIP3   OH241607   6.623   4.239   2.857 -0.0300  0.0430  0.2851
 6731TIP3    H141608   6.569   4.161   2.872 -0.0375 -0.6682 -2.7190
 6731TIP3    H241609   6.571   4.311   2.892 -1.9142 -0.9111 -0.3907
 6732TIP3   OH241610   5.642   6.296   0.369  0.2913  0.2151  0.8093
 6732TIP3    H141611   5.642   6.318   0.462  0.4206 -0.0683  0.8777
 6732TIP3    H241612   5.588   6.217   0.363 -3.1914  2.4081  0.1158
 6733TIP3   OH241613   6.129   3.814   1.287  0.1451 -0.1593  0.2989
 6733TIP3    H141614   6.103   3.737   1.235  1.9373 -2.2395  2.2338
 6733TIP3    H241615   6.081   3.805   1.369  0.9295  0.3522  0.8301
 6734TIP3   OH241616   2.427   0.092   3.384  0.2306  0.1234  0.1575
 6734TIP3    H141617   2.341   0.065   3.353  0.8043 -0.6318 -0.8158
 6734TIP3    H241618   2.410   0.136   3.467 -0.9413 -1.3934  0.7597
 6735TIP3   OH241619   2.175   1.632  14.072 -0.3852 -0.2378  0.1142
 6735TIP3    H141620   2.146   1.663  14.157  1.1007 -1.9901  1.3366
 6735TIP3    H241621   2.128   1.550  14.059 -1.6514  0.6745 -1.4587
 6736TIP3   OH241622   2.020   0.120  15.229  0.0254  0.0695 -0.0684
 6736TIP3    H141623   2.055   0.163  15.151  0.7141 -3.3481 -1.8272
 6736TIP3    H241624   2.008   0.029  15.203 -0.8437 -0.9925  3.5078
 6737TIP3   OH241625   4.406   6.552  11.854  0.9400 -0.1422  0.4293
 6737TIP3    H141626   4.407   6.600  11.937 -1.5686  0.9182 -0.0501
 6737TIP3    H241627   4.413   6.621  11.787 -2.9050 -0.2399 -0.2801
 6738TIP3   OH241628   2.090   4.290  13.263  0.2363 -0.0023  0.0306
 6738TIP3    H141629   2.048   4.371  13.291  2.3131  1.1008  0.1166
 6738TIP3    H241630   2.096   4.298  13.168 -0.5086 -0.5754 -0.0791
 6739TIP3   OH241631   4.398   4.146   3.442  0.0105 -0.0063 -0.5339
 6739TIP3    H141632   4.484   4.187   3.436 -1.2370  2.8474 -0.3524
 6739TIP3    H241633   4.406   4.085   3.516  2.3809 -1.3122 -1.7675
 6740TIP3   OH241634   6.726   2.567   5.870 -0.2556 -0.8170 -0.4586
 6740TIP3    H141635   6.644   2.576   5.821 -0.8147 -1.3772  0.3349
 6740TIP3    H241636   6.794   2.561   5.803 -0.8142  0.0529 -1.1251
 6741TIP3   OH241637   6.739   5.055  10.778  0.0785  0.1754 -0.2271
 6741TIP3    H141638   6.737   4.987  10.711  1.4286  0.0718 -0.1719
 6741TIP3    H241639   6.651   5.093  10.775  0.1127  0.2129 -2.0880
 6742TIP3   OH241640   4.013   4.718   4.664  0.6569  0.1648 -0.5184
 6742TIP3    H141641   3.922   4.696   4.681  0.4274  0.4032 -1.3769
 6742TIP3    H241642   4.047   4.748   4.749 -0.5983  1.8979 -0.5841
 6743TIP3   OH241643   1.761   0.982  13.754 -0.4051 -0.7150 -0.2130
 6743TIP3    H141644   1.824   0.938  13.696  0.5899 -0.5294  0.6911
 6743TIP3    H241645   1.686   0.922  13.757  0.2122 -1.5168 -0.3843
 6744TIP3   OH241646   4.352   2.822   6.537 -0.4415 -0.3792 -0.6258
 6744TIP3    H141647   4.320   2.772   6.462 -0.4425 -1.7410  0.2553
 6744TIP3    H241648   4.441   2.848   6.512  0.1050 -2.0735 -0.5429
 6745TIP3   OH241649   2.455   4.884   2.211 -0.9731  0.3018  0.4088
 6745TIP3    H141650   2.391   4.955   2.203 -1.3108 -0.0344  0.1606
 6745TIP3    H241651   2.452   4.860   2.304 -0.3530  1.0774  0.6502
 6746TIP3   OH241652   6.401   1.550   1.687  0.7348 -0.2840  0.0310
 6746TIP3    H141653   6.335   1.529   1.621 -0.8294  1.9750  0.7707
 6746TIP3    H241654   6.466   1.479   1.679 -2.0586 -3.0250 -0.2571
 6747TIP3   OH241655   0.726   2.738  14.245  0.0400  0.1777 -1.0756
 6747TIP3    H141656   0.754   2.660  14.197 -1.9615 -1.2545 -0.0883
 6747TIP3    H241657   0.800   2.758  14.303  1.1235 -0.1329 -2.3165
 6748TIP3   OH241658   1.563   4.500   3.672 -0.4197 -0.2508 -0.3166
 6748TIP3    H141659   1.520   4.562   3.613  0.7800 -1.2452 -2.3194
 6748TIP3    H241660   1.500   4.428   3.681 -0.6183 -0.0804 -0.3182
 6749TIP3   OH241661   3.346   1.580   5.222 -0.4355 -0.4414 -0.6142
 6749TIP3    H141662   3.307   1.523   5.157 -2.0293  0.9163 -0.9327
 6749TIP3    H241663   3.280   1.648   5.237  0.4437  0.0675  1.3940
 6750TIP3   OH241664   4.671   6.451  12.409  0.4549 -0.3725 -0.4232
 6750TIP3    H141665   4.622   6.499  12.342 -1.4509 -0.8512  0.5655
 6750TIP3    H241666   4.712   6.519  12.462  0.4052  0.0589 -0.9296
 6751TIP3   OH241667   5.895   2.801  13.788 -0.3470  0.4143 -0.2148
 6751TIP3    H141668   5.970   2.746  13.809 -0.1508  1.0610  0.8547
 6751TIP3    H241669   5.831   2.740  13.750 -0.1886 -0.5833  1.0398
 6752TIP3   OH241670   5.261   5.427   1.999 -0.1550  0.3766  0.0447
 6752TIP3    H141671   5.191   5.366   1.974  0.2505  1.3882 -4.1546
 6752TIP3    H241672   5.342   5.380   1.979  0.3297  0.6143  1.3356
 6753TIP3   OH241673   5.858   4.827   0.336  0.0537  0.6292 -0.3026
 6753TIP3    H141674   5.797   4.775   0.284  0.9274  0.0837 -0.7964
 6753TIP3    H241675   5.845   4.797   0.426  0.4137 -0.3230 -0.5549
 6754TIP3   OH241676   2.001   0.252   4.958 -0.1758  0.6760  0.0523
 6754TIP3    H141677   2.082   0.294   4.988 -0.8148  0.3848  2.3843
 6754TIP3    H241678   2.017   0.158   4.972 -0.2486  0.4503 -1.2683
 6755TIP3   OH241679   0.362   5.047   1.005  0.3047  0.0824  0.7343
 6755TIP3    H141680   0.375   5.069   1.097  0.7203  2.8785  0.0689
 6755TIP3    H241681   0.337   5.129   0.963  0.0645 -1.1212 -1.6569
 6756TIP3   OH241682   4.620   2.045   4.607 -0.2230  0.3141 -0.5627
 6756TIP3    H141683   4.583   2.122   4.650 -0.3357  0.4903 -0.9693
 6756TIP3    H241684   4.544   1.990   4.587  0.0310 -1.2950  2.2897
 6757TIP3   OH241685   3.540   3.492   1.033  0.1434 -0.2405 -0.0964
 6757TIP3    H141686   3.533   3.401   1.003  0.8999 -0.4412  0.2938
 6757TIP3    H241687   3.466   3.504   1.092  0.5615 -0.9170  0.5907
 6758TIP3   OH241688   0.049   6.238  10.900 -0.4658  0.6515 -0.2284
 6758TIP3    H141689  -0.006   6.194  10.965  0.4806  1.0204  0.8564
 6758TIP3    H241690   0.028   6.331  10.911  0.9614  0.8906  0.8248
 6759TIP3   OH241691   6.759   1.029  14.736 -0.2379 -0.1455  0.8254
 6759TIP3    H141692   6.736   0.941  14.764  0.2418 -0.7920 -0.6750
 6759TIP3    H241693   6.761   1.024  14.640  1.7251  0.9676  0.7402
 6760TIP3   OH241694   3.776   5.142   1.979 -0.3962  0.0764  0.0762
 6760TIP3    H141695   3.728   5.059   1.977  2.8529 -1.9910  1.1482
 6760TIP3    H241696   3.821   5.146   1.894 -1.0635  1.1426 -0.2467
 6761TIP3   OH241697   4.501   1.080  17.274  0.8076  0.4343  0.0781
 6761TIP3    H141698   4.480   1.155  17.218 -1.1191 -0.1638 -0.0561
 6761TIP3    H241699   4.439   1.012  17.247  2.8380 -1.4237 -0.1687
 6762TIP3   OH241700   5.325   5.337  10.697 -0.1251 -0.0832  0.0857
 6762TIP3    H141701   5.392   5.391  10.740  0.5284 -0.5918 -0.2718
 6762TIP3    H241702   5.346   5.248  10.724 -0.5570 -0.2651 -0.1764
 6763TIP3   OH241703   1.549   6.211   3.688  0.0680 -0.3476  0.1366
 6763TIP3    H141704   1.524   6.153   3.615 -1.2055  0.9364 -0.4858
 6763TIP3    H241705   1.631   6.251   3.658 -0.3907  0.0938 -0.5653
 6764TIP3   OH241706   1.684   5.095  17.113 -0.2242 -0.3483 -0.4260
 6764TIP3    H141707   1.598   5.102  17.071  0.3013  0.7219 -1.3913
 6764TIP3    H241708   1.724   5.018  17.073  0.0477  0.3307 -1.5013
 6765TIP3   OH241709   4.630   2.407   3.679 -0.5419  0.2163 -0.2601
 6765TIP3    H141710   4.615   2.494   3.643 -2.1326  0.2963  0.5030
 6765TIP3    H241711   4.687   2.422   3.755 -0.2860  0.5035 -0.5064
 6766TIP3   OH241712   0.369   3.612   0.581 -0.2711 -0.3043  0.0736
 6766TIP3    H141713   0.367   3.687   0.640  0.8961  0.0056 -0.2681
 6766TIP3    H241714   0.278   3.601   0.554 -0.4339  1.0825  0.0088
 6767TIP3   OH241715   5.912   4.681   2.897  0.5086  1.2088 -0.2423
 6767TIP3    H141716   5.962   4.740   2.953  0.3424  1.5573 -0.4576
 6767TIP3    H241717   5.871   4.738   2.832  2.2454  0.6636 -1.9332
 6768TIP3   OH241718   5.714   5.902  16.912  0.8385 -0.2483 -0.1951
 6768TIP3    H141719   5.664   5.971  16.956  2.0480  0.5571 -0.0589
 6768TIP3    H241720   5.722   5.932  16.822  0.8175 -0.5274 -0.2904
 6769TIP3   OH241721   2.296   0.128   1.397  0.1530  0.5172 -0.0854
 6769TIP3    H141722   2.215   0.146   1.348 -0.4120 -0.7129  0.3703
 6769TIP3    H241723   2.266   0.111   1.486  0.9072 -0.1640  0.0411
 6770TIP3   OH241724   4.286   1.478   4.970 -0.5081  0.5041 -0.0730
 6770TIP3    H141725   4.233   1.461   4.892  0.5177  1.1776 -0.9353
 6770TIP3    H241726   4.264   1.405   5.029 -1.3409  0.0086 -0.9556
 6771TIP3   OH241727   3.461   5.798   1.817 -0.8969 -0.5377  0.1151
 6771TIP3    H141728   3.453   5.740   1.893  2.5532  0.7563  1.6719
 6771TIP3    H241729   3.371   5.820   1.794 -2.1244 -1.9614  3.0670
 6772TIP3   OH241730   5.333   2.011   3.957 -0.0267 -0.0822 -0.2784
 6772TIP3    H141731   5.287   2.053   4.029  0.1928  0.0340 -0.2051
 6772TIP3    H241732   5.273   2.018   3.883  1.0818  2.8361 -1.0267
 6773TIP3   OH241733   2.793   4.731   5.340  0.0390  0.0040  0.0114
 6773TIP3    H141734   2.732   4.725   5.266  0.0268 -1.1221  0.0886
 6773TIP3    H241735   2.820   4.640   5.356 -0.1426  0.1935  1.5494
 6774TIP3   OH241736   1.746   6.318  15.743 -0.7089 -0.2957  0.3676
 6774TIP3    H141737   1.735   6.359  15.828  2.9189  1.1683  0.2866
 6774TIP3    H241738   1.735   6.224  15.760  2.0596 -0.2983  3.0452
 6775TIP3   OH241739   2.304   4.714   4.934  0.2687 -0.0622 -0.1387
 6775TIP3    H141740   2.243   4.787   4.928 -0.6404 -0.8882 -3.8189
 6775TIP3    H241741   2.387   4.750   4.902  0.0778 -0.3709 -1.0005
 6776TIP3   OH241742   4.139   1.999  15.343  0.9305 -0.0830 -0.2183
 6776TIP3    H141743   4.215   1.982  15.400  0.1174 -0.7550  0.7114
 6776TIP3    H241744   4.125   2.093  15.350  2.8073  0.3817 -1.9079
 6777TIP3   OH241745   2.656   3.898  13.019  0.3163 -0.6011 -0.3200
 6777TIP3    H141746   2.641   3.993  13.020  0.8543 -0.5139 -0.3633
 6777TIP3    H241747   2.614   3.868  12.939  0.7594 -0.2946 -0.6683
 6778TIP3   OH241748   5.764   3.505   5.663  0.7260 -0.0125  0.0843
 6778TIP3    H141749   5.801   3.454   5.735 -1.4781 -0.4410  1.0250
 6778TIP3    H241750   5.726   3.439   5.604 -0.2183  0.4249  0.1806
 6779TIP3   OH241751   0.154   4.558  15.104 -0.4868  0.2777  0.2316
 6779TIP3    H141752   0.199   4.637  15.074  1.2771 -0.5624  0.5723
 6779TIP3    H241753   0.136   4.508  15.024  1.5270 -0.5661  0.2609
 6780TIP3   OH241754   2.306   0.453   5.546  0.5116 -0.1581  0.3776
 6780TIP3    H141755   2.264   0.479   5.628  1.9146 -1.3761  1.5462
 6780TIP3    H241756   2.264   0.369   5.523  2.7021 -1.8142  1.9973
 6781TIP3   OH241757   4.414   6.652   3.457  0.4252  0.1482 -0.0339
 6781TIP3    H141758   4.443   6.661   3.547  0.4863 -1.7756  0.1859
 6781TIP3    H241759   4.465   6.716   3.408  0.3296  1.2762  1.2892
 6782TIP3   OH241760   5.693   0.513   5.470  0.4794 -0.3370 -0.4300
 6782TIP3    H141761   5.614   0.509   5.524  2.6879  2.0052  3.3208
 6782TIP3    H241762   5.736   0.429   5.486 -0.2624 -0.8398 -0.9698
 6783TIP3   OH241763   4.832   4.174  14.709 -0.0157 -0.3996 -0.0158
 6783TIP3    H141764   4.910   4.129  14.742  0.0900  0.3818  0.8268
 6783TIP3    H241765   4.864   4.260  14.683 -0.4765 -0.3205 -0.3182
 6784TIP3   OH241766   6.680   4.921  14.700 -0.2736 -0.2930  0.0109
 6784TIP3    H141767   6.690   4.826  14.699 -1.3982 -0.4294 -1.6801
 6784TIP3    H241768   6.616   4.938  14.770 -0.9982 -0.9045 -0.4860
 6785TIP3   OH241769   0.227   5.109  16.048  0.4645 -0.5259 -0.1305
 6785TIP3    H141770   0.146   5.070  16.078  0.2305 -0.1816 -0.3002
 6785TIP3    H241771   0.272   5.039  16.001  1.0954 -1.2315  1.4716
 6786TIP3   OH241772   6.409   0.852  15.332  0.3066 -0.6051 -0.0111
 6786TIP3    H141773   6.446   0.890  15.252  1.2353 -1.4731 -0.0204
 6786TIP3    H241774   6.326   0.813  15.304 -1.5707  2.7682  0.3233
 6787TIP3   OH241775   3.485   3.787  14.403  0.0205 -0.2475 -0.5337
 6787TIP3    H141776   3.435   3.708  14.421 -2.3507  1.6243  2.1106
 6787TIP3    H241777   3.558   3.784  14.465 -1.9877  1.0479  2.1042
 6788TIP3   OH241778   2.945   5.896   2.324  0.1805 -0.0993  0.3621
 6788TIP3    H141779   2.954   5.825   2.388 -0.8831  0.5325  1.2427
 6788TIP3    H241780   3.008   5.962   2.353  0.4756 -0.2629  0.1061
 6789TIP3   OH241781   1.110   1.686  12.443 -0.2918 -0.7208  0.1204
 6789TIP3    H141782   1.090   1.594  12.460 -1.4205 -0.7474 -1.2004
 6789TIP3    H241783   1.035   1.719  12.394 -0.6111  1.3305  1.8650
 6790TIP3   OH241784   4.128   6.186  10.384  0.3574  0.0325  0.4649
 6790TIP3    H141785   4.069   6.240  10.436  2.6963  1.7394  1.4829
 6790TIP3    H241786   4.177   6.135  10.448 -0.5716 -2.0945 -0.4115
 6791TIP3   OH241787   3.848   3.013  12.096 -0.4043 -0.5779 -0.0970
 6791TIP3    H141788   3.874   3.058  12.016  0.6192 -0.4246  0.3104
 6791TIP3    H241789   3.901   2.934  12.098 -1.1568 -1.0937 -0.0764
 6792TIP3   OH241790   1.521   0.500  17.121  0.2863 -0.1065  0.6274
 6792TIP3    H141791   1.483   0.499  17.208 -0.2198 -0.4215  0.4080
 6792TIP3    H241792   1.445   0.498  17.062  0.5570  1.7234  0.1634
 6793TIP3   OH241793   1.815   6.345   4.320 -0.2039  0.1666 -0.3581
 6793TIP3    H141794   1.907   6.345   4.348 -0.2609  0.1671 -0.1713
 6793TIP3    H241795   1.770   6.292   4.386 -0.5933  1.3782  0.3669
 6794TIP3   OH241796   3.877   0.245  11.707  0.1023  0.7580 -0.1014
 6794TIP3    H141797   3.861   0.203  11.792  3.2367 -0.5434 -0.0254
 6794TIP3    H241798   3.890   0.338  11.729  0.5066  0.5031  0.7894
 6795TIP3   OH241799   4.750   1.918   1.159  0.3740  0.0182  0.2810
 6795TIP3    H141800   4.760   2.001   1.111  1.5571 -0.0500  0.4011
 6795TIP3    H241801   4.706   1.943   1.241 -0.3468  0.3426 -0.1914
 6796TIP3   OH241802   4.327   4.467  11.462 -0.2117 -0.0876 -0.0376
 6796TIP3    H141803   4.381   4.546  11.456  1.8941 -1.2804  1.6206
 6796TIP3    H241804   4.385   4.396  11.436 -0.9057 -1.4564  1.9230
 6797TIP3   OH241805   2.514   2.588   3.096 -0.6222  0.0250  0.0217
 6797TIP3    H141806   2.531   2.520   3.031 -0.5858  0.4443 -0.4118
 6797TIP3    H241807   2.602   2.616   3.124 -0.6202 -1.2477  1.4277
 6798TIP3   OH241808   3.014   6.385  12.683 -0.0911  1.0381  0.0155
 6798TIP3    H141809   3.073   6.439  12.735 -1.4141  2.0984  0.4549
 6798TIP3    H241810   2.975   6.324  12.746  1.5909 -0.6804 -0.5176
 6799TIP3   OH241811   0.549   0.002   2.603 -0.0575 -0.3793  0.2792
 6799TIP3    H141812   0.467   0.040   2.636  0.8925  0.6853  1.5044
 6799TIP3    H241813   0.596  -0.025   2.682  2.0479  1.7076 -0.1589
 6800TIP3   OH241814   6.396   4.122   5.420 -0.2767 -0.0511 -0.3018
 6800TIP3    H141815   6.478   4.073   5.418  0.0254  0.4684 -1.6065
 6800TIP3    H241816   6.340   4.077   5.357 -0.9356 -0.2699  0.4222
 6801TIP3   OH241817   4.547   3.831  14.195  0.2130  0.1937 -0.2140
 6801TIP3    H141818   4.567   3.865  14.108  0.0495 -0.3228 -0.4564
 6801TIP3    H241819   4.468   3.877  14.222 -0.1176 -0.1338 -0.6203
 6802TIP3   OH241820   1.988   1.132   2.388 -0.2652  0.4329 -0.5674
 6802TIP3    H141821   2.039   1.212   2.370 -1.0396  0.7955 -1.2138
 6802TIP3    H241822   2.053   1.062   2.382  0.4510  1.0162  0.1234
 6803TIP3   OH241823   2.761   6.569  13.757 -0.0711 -0.0771 -0.2461
 6803TIP3    H141824   2.719   6.484  13.769  2.9446 -1.6891 -0.0810
 6803TIP3    H241825   2.826   6.554  13.688  1.4996  1.6943  0.7623
 6804TIP3   OH241826   2.635   2.483   3.387  0.5077  0.1149  0.8877
 6804TIP3    H141827   2.714   2.516   3.429  0.2414 -0.6252  2.0103
 6804TIP3    H241828   2.564   2.502   3.449  0.0010 -0.3690  0.4765
 6805TIP3   OH241829   3.911   1.858  13.585 -0.7375 -0.2208 -0.7824
 6805TIP3    H141830   3.824   1.866  13.624 -1.5474 -0.5460 -2.4547
 6805TIP3    H241831   3.899   1.879  13.493  1.1301  0.5730 -0.8929
 6806TIP3   OH241832   3.719   1.780  12.054 -0.2294 -0.4494  0.1306
 6806TIP3    H141833   3.783   1.710  12.069 -1.8399 -1.4406  3.4933
 6806TIP3    H241834   3.663   1.748  11.983  1.9397 -0.2360 -1.7920
 6807TIP3   OH241835   2.320   4.727   3.737 -0.3587  0.2128  0.0166
 6807TIP3    H141836   2.237   4.757   3.775 -2.6636 -1.8188 -2.9892
 6807TIP3    H241837   2.333   4.640   3.774 -0.1419  0.0936 -0.3412
 6808TIP3   OH241838   1.712   3.726   6.006  0.3280  0.0700  0.6109
 6808TIP3    H141839   1.701   3.807   5.955 -1.5450  0.1293  1.0149
 6808TIP3    H241840   1.709   3.755   6.097 -1.1057 -0.4902  0.7663
 6809TIP3   OH241841   1.318   6.470   5.743 -0.6190  0.0933  0.2965
 6809TIP3    H141842   1.335   6.546   5.687 -0.1757  0.3502  0.7647
 6809TIP3    H241843   1.333   6.394   5.686 -0.3200  0.3514  0.0235
 6810TIP3   OH241844   3.659   0.428  14.293  0.0592 -0.3236 -0.4716
 6810TIP3    H141845   3.726   0.493  14.315  0.3822  0.0096 -2.2721
 6810TIP3    H241846   3.680   0.352  14.348  0.3016  0.7075  0.9011
 6811TIP3   OH241847   1.836   0.718  16.084 -0.0862  0.0595  0.1836
 6811TIP3    H141848   1.778   0.653  16.125 -1.7364  1.1320 -0.3324
 6811TIP3    H241849   1.903   0.665  16.041 -1.1406 -1.3188  0.1291
 6812TIP3   OH241850   6.213   3.184  15.394  0.6874 -0.4895  0.0159
 6812TIP3    H141851   6.185   3.269  15.360  1.2051 -0.0059  0.7605
 6812TIP3    H241852   6.133   3.142  15.425  0.0420 -1.3515 -2.5968
 6813TIP3   OH241853   5.548   1.890   1.508  0.0749 -0.1856 -0.3002
 6813TIP3    H141854   5.593   1.834   1.571 -1.2962 -0.1503  0.7834
 6813TIP3    H241855   5.455   1.884   1.534 -0.1317  2.5213 -0.1502
 6814TIP3   OH241856   1.101   0.897  11.484 -0.1958 -0.7329  0.1030
 6814TIP3    H141857   1.104   0.813  11.529 -2.8876  0.2848  2.4983
 6814TIP3    H241858   1.032   0.886  11.418  0.7703 -0.9418 -0.8876
 6815TIP3   OH241859   3.230   0.318   3.864  0.0020  0.1655 -0.3825
 6815TIP3    H141860   3.261   0.270   3.787 -1.1245 -2.0854  0.4816
 6815TIP3    H241861   3.157   0.266   3.897 -0.9373  2.2238  0.9847
 6816TIP3   OH241862   6.178   4.387  15.547 -0.5789  0.2350 -0.5618
 6816TIP3    H141863   6.182   4.468  15.599 -3.3718  0.4010 -0.4637
 6816TIP3    H241864   6.262   4.385  15.501 -0.0844  2.7905  0.0275
 6817TIP3   OH241865   6.342   2.542   6.103 -0.6284 -0.1617  0.1344
 6817TIP3    H141866   6.247   2.555   6.104 -0.6344  0.0331  2.1045
 6817TIP3    H241867   6.361   2.506   6.017 -2.3912  0.4922 -0.5739
 6818TIP3   OH241868   0.516   0.679   1.876 -0.3018  0.2159 -0.4401
 6818TIP3    H141869   0.489   0.668   1.785  0.7196 -1.0252 -0.6159
 6818TIP3    H241870   0.608   0.656   1.877 -0.3265  0.0933  0.9384
 6819TIP3   OH241871   1.555   5.024   2.676 -0.0741  0.4795 -0.5352
 6819TIP3    H141872   1.633   5.024   2.732  0.0324 -1.2908 -0.6259
 6819TIP3    H241873   1.482   5.014   2.738  0.1458 -3.7071 -0.6316
 6820TIP3   OH241874   2.044   4.712  16.893  0.5850  0.1757  0.7874
 6820TIP3    H141875   1.986   4.760  16.835  1.5570  0.4627  0.0245
 6820TIP3    H241876   2.127   4.760  16.888  1.3400 -1.1135  0.6388
 6821TIP3   OH241877   0.018   1.790   1.405 -0.6122  0.1921  0.0444
 6821TIP3    H141878   0.111   1.807   1.393 -0.2968 -1.1149  0.4625
 6821TIP3    H241879   0.008   1.697   1.385 -1.4199 -0.2252  2.1427
 6822TIP3   OH241880   3.237   0.338  15.249 -0.4484 -0.1737 -0.2365
 6822TIP3    H141881   3.222   0.426  15.216 -0.7224 -0.6551 -1.4561
 6822TIP3    H241882   3.187   0.281  15.190 -0.5608 -1.1212  0.7316
 6823TIP3   OH241883   5.659   4.687   6.063  0.7591 -0.3145  0.2026
 6823TIP3    H141884   5.576   4.647   6.092  1.2050  0.0939  2.2255
 6823TIP3    H241885   5.644   4.710   5.971 -1.5454  0.1419  0.6246
 6824TIP3   OH241886   3.920   4.497  15.792 -0.4176 -0.5270  0.7092
 6824TIP3    H141887   3.852   4.561  15.770 -0.7380 -1.1637 -0.2215
 6824TIP3    H241888   4.002   4.544  15.784 -0.5796 -0.4734 -0.9963
 6825TIP3   OH241889   2.425   4.380  16.535 -0.0970 -0.5284 -0.1383
 6825TIP3    H141890   2.503   4.335  16.502  0.1587  1.0405 -1.8926
 6825TIP3    H241891   2.362   4.372  16.463 -0.1185  1.6140 -0.4174
 6826TIP3   OH241892   0.230   3.453   4.341  0.6264  0.2666  0.1444
 6826TIP3    H141893   0.218   3.362   4.367 -0.8058  0.4480  0.1748
 6826TIP3    H241894   0.324   3.468   4.351  1.1219 -1.5856 -1.1373
 6827TIP3   OH241895   4.424   3.400  10.799  0.5966  0.0828 -0.3669
 6827TIP3    H141896   4.475   3.346  10.738 -1.0512 -0.1482 -1.5946
 6827TIP3    H241897   4.490   3.441  10.854  1.9790 -3.4801  0.9722
 6828TIP3   OH241898   2.117   6.748  11.813  0.3567  0.3027 -0.4308
 6828TIP3    H141899   2.100   6.666  11.860  0.5905 -0.5882 -1.8490
 6828TIP3    H241900   2.206   6.739  11.780 -0.3536  0.1681 -2.4462
 6829TIP3   OH241901   6.456   5.251   1.856 -0.4213  0.4446  0.1694
 6829TIP3    H141902   6.454   5.251   1.952 -1.6914  0.7058  0.1522
 6829TIP3    H241903   6.521   5.317   1.834  2.5925 -2.0442  0.8380
 6830TIP3   OH241904   2.326   4.209  13.508 -0.0699 -0.4503  0.4277
 6830TIP3    H141905   2.337   4.303  13.519 -2.5841  0.0873 -0.8440
 6830TIP3    H241906   2.383   4.187  13.434  0.2137  0.1520  0.4577
 6831TIP3   OH241907   3.917   3.709  13.130  0.6259  0.0788 -0.2702
 6831TIP3    H141908   3.954   3.690  13.216  2.1303  0.7095 -0.7476
 6831TIP3    H241909   3.870   3.792  13.142 -1.6415 -1.2343  0.5883
 6832TIP3   OH241910   5.772   0.314   0.824 -0.2626 -0.4407  0.1448
 6832TIP3    H141911   5.760   0.295   0.731  0.4734  1.0453 -0.2898
 6832TIP3    H241912   5.745   0.233   0.869  0.0613 -1.4408 -1.3817
 6833TIP3   OH241913   4.734   4.208  13.226  0.0130 -0.1680  0.1262
 6833TIP3    H141914   4.641   4.193  13.208  0.1932  0.6402 -1.7650
 6833TIP3    H241915   4.780   4.160  13.157  0.8740  1.5516 -0.5548
 6834TIP3   OH241916   0.280   1.986   4.575 -0.7212  0.0998  0.8225
 6834TIP3    H141917   0.315   1.961   4.660 -2.1942 -1.0023  1.1499
 6834TIP3    H241918   0.235   1.907   4.544 -0.8074  0.7021 -0.6689
 6835TIP3   OH241919   5.170   1.201  14.450  0.5136  0.1927  0.4656
 6835TIP3    H141920   5.084   1.163  14.467 -0.4412  1.9979 -0.1131
 6835TIP3    H241921   5.228   1.125  14.441 -1.2737 -1.1299 -0.5097
 6836TIP3   OH241922   6.315   3.962  14.470  0.2451 -0.4155 -0.3677
 6836TIP3    H141923   6.347   4.005  14.391 -0.6623  0.5195 -0.2446
 6836TIP3    H241924   6.391   3.957  14.528  0.5118  0.4524 -0.6357
 6837TIP3   OH241925   2.347   2.679  15.255 -0.3336 -0.0312  0.1184
 6837TIP3    H141926   2.304   2.613  15.200 -2.8708  0.7108  1.0382
 6837TIP3    H241927   2.410   2.722  15.197  0.0409 -1.9928 -1.0010
 6838TIP3   OH241928   6.231   2.481  12.054 -0.0392 -0.2261  0.0161
 6838TIP3    H141929   6.172   2.485  12.130 -0.3504 -1.7173 -0.1127
 6838TIP3    H241930   6.210   2.559  12.003 -0.4020  0.3770  1.0432
 6839TIP3   OH241931   6.625   3.018   3.226 -0.0674 -0.3096  0.6046
 6839TIP3    H141932   6.565   3.092   3.232  1.2062  0.8153 -0.0617
 6839TIP3    H241933   6.691   3.035   3.293  0.2925 -0.7862  0.3748
 6840TIP3   OH241934   1.214   0.469  15.893 -0.1512  0.8599 -0.0388
 6840TIP3    H141935   1.161   0.411  15.838 -1.5235  1.3367  0.7332
 6840TIP3    H241936   1.161   0.482  15.972  1.3959  0.8833  1.0347
 6841TIP3   OH241937   0.662   2.152  12.215  0.0284  0.2170  0.2814
 6841TIP3    H141938   0.659   2.230  12.159 -0.2520 -0.3498 -0.5076
 6841TIP3    H241939   0.715   2.089  12.166 -2.1804 -1.1416 -0.4725
 6842TIP3   OH241940   5.043   2.543   2.376  0.0458 -0.0883  0.0659
 6842TIP3    H141941   4.962   2.549   2.426 -0.3344 -2.3013 -0.1777
 6842TIP3    H241942   5.015   2.542   2.284  0.6106  2.1225 -0.1904
 6843TIP3   OH241943   6.425   1.536   0.284 -0.9178 -0.0211 -0.2047
 6843TIP3    H141944   6.442   1.560   0.193 -2.2178 -0.3163 -0.5420
 6843TIP3    H241945   6.509   1.547   0.328 -0.7529  2.3611 -0.9499
 6844TIP3   OH241946   0.666   4.978   1.424 -0.0299 -0.5954 -1.0255
 6844TIP3    H141947   0.633   5.014   1.342  0.3874 -3.1430 -2.4242
 6844TIP3    H241948   0.758   4.956   1.405  0.6953  0.5897  0.8071
 6845TIP3   OH241949   6.586   6.221   5.957  0.5090  0.1100 -0.5365
 6845TIP3    H141950   6.536   6.279   5.900  1.7714  1.9308  0.1182
 6845TIP3    H241951   6.673   6.217   5.916  1.6164  1.8976  1.4367
 6846TIP3   OH241952   1.163   3.162  16.056  0.8229  0.1116 -0.4378
 6846TIP3    H141953   1.165   3.236  16.117  1.7001  0.3439 -0.7270
 6846TIP3    H241954   1.160   3.203  15.970  1.6220 -0.1694 -0.6087
 6847TIP3   OH241955   0.551   3.523  14.415  0.1358 -0.2322 -0.1814
 6847TIP3    H141956   0.478   3.577  14.384  0.8896  0.7098 -0.3828
 6847TIP3    H241957   0.510   3.451  14.462 -0.9171  1.0679  1.0034
 6848TIP3   OH241958   2.579   1.501   0.290  0.5098  0.1591  0.3880
 6848TIP3    H141959   2.545   1.413   0.274 -1.3649  0.7787  0.7118
 6848TIP3    H241960   2.654   1.488   0.348 -0.7106 -1.1273  1.7587
 6849TIP3   OH241961   3.626   6.737   2.774  0.2606  0.6212 -0.5562
 6849TIP3    H141962   3.663   6.669   2.719 -0.3715  0.2267 -0.5035
 6849TIP3    H241963   3.535   6.744   2.746  0.3660  1.5863 -0.6981
 6850TIP3   OH241964   0.893   3.055   2.531 -0.2337  0.0391 -0.7675
 6850TIP3    H141965   0.913   3.143   2.562 -0.1254  0.0444 -0.8517
 6850TIP3    H241966   0.802   3.039   2.559  0.0819 -0.2176  0.1485
 6851TIP3   OH241967   0.384   2.374   5.905  0.5190  0.1342  0.5214
 6851TIP3    H141968   0.444   2.366   5.980 -0.7775  1.0724  1.7081
 6851TIP3    H241969   0.430   2.331   5.833  2.2965  0.1637  1.5732
 6852TIP3   OH241970   2.141   6.381   3.337 -0.1442  0.3852  0.0119
 6852TIP3    H141971   2.187   6.466   3.341  2.2509 -0.8492  0.7614
 6852TIP3    H241972   2.184   6.334   3.265 -0.7631 -0.5750  0.2523
 6853TIP3   OH241973   6.040   2.213   5.786  0.3525  0.2290 -0.0422
 6853TIP3    H141974   6.006   2.301   5.801  1.6208  0.8183 -0.4417
 6853TIP3    H241975   5.974   2.171   5.731 -0.3559  0.8749  0.3017
 6854TIP3   OH241976   0.015   1.416   0.042  0.1506  0.2192  0.5647
 6854TIP3    H141977   0.052   1.401   0.129  2.9685  1.5420 -0.2801
 6854TIP3    H241978   0.063   1.492   0.008 -0.3872 -0.6100 -2.3676
 6855TIP3   OH241979   3.904   1.395   2.382  0.0983  0.4592  0.2932
 6855TIP3    H141980   3.972   1.345   2.428  1.2833  1.0205 -0.8038
 6855TIP3    H241981   3.942   1.482   2.369 -0.6125  0.6185 -0.8338
 6856TIP3   OH241982   0.591   6.394  15.563  0.4024 -0.2623  0.0620
 6856TIP3    H141983   0.534   6.368  15.635  0.1769  1.9762  0.7638
 6856TIP3    H241984   0.669   6.429  15.606  1.0568 -0.5728 -0.8468
 6857TIP3   OH241985   5.116   4.558   4.999 -0.3916 -0.6261  0.0973
 6857TIP3    H141986   5.099   4.554   5.093  2.0242  2.8732  0.9023
 6857TIP3    H241987   5.212   4.553   4.992 -0.2582  2.1101 -1.7606
 6858TIP3   OH241988   3.101   2.483   6.211  0.1217 -0.3761  0.2236
 6858TIP3    H141989   3.168   2.551   6.206 -2.0802  1.9346  0.3494
 6858TIP3    H241990   3.121   2.436   6.292  1.2387  0.6498  0.5816
 6859TIP3   OH241991   2.186   6.463   0.794 -0.5705 -0.3646 -0.2599
 6859TIP3    H141992   2.166   6.551   0.763 -1.2155 -0.6214 -0.5910
 6859TIP3    H241993   2.207   6.474   0.887  0.2832  0.2576 -0.5183
 6860TIP3   OH241994   3.643   2.610   2.308 -0.2979  1.1262  0.0289
 6860TIP3    H141995   3.639   2.700   2.340 -0.7810  0.3664  2.2363
 6860TIP3    H241996   3.557   2.594   2.270 -0.3789  1.4328  0.0799
 6861TIP3   OH241997   4.504   5.789   6.468 -0.2920  0.2191  0.4550
 6861TIP3    H141998   4.600   5.794   6.468 -0.1394 -1.3580  2.5545
 6861TIP3    H241999   4.476   5.878   6.446  1.5899  0.2660 -2.1798
 6862TIP3   OH242000   0.697   0.552   1.626  0.2308 -0.2161  0.1788
 6862TIP3    H142001   0.747   0.632   1.646  1.1999 -0.7263 -0.1377
 6862TIP3    H242002   0.607   0.582   1.615  0.5739  0.8294  0.1166
 6863TIP3   OH242003   1.872   5.614  13.444 -0.3961  0.0670  0.3729
 6863TIP3    H142004   1.803   5.558  13.480  0.9639 -2.8562 -1.2091
 6863TIP3    H242005   1.950   5.590  13.494  0.6723 -1.1718 -1.7489
 6864TIP3   OH242006   0.141   1.454  16.408 -0.0010  0.1312  0.2632
 6864TIP3    H142007   0.079   1.522  16.433  0.4647  0.4765  0.4875
 6864TIP3    H242008   0.208   1.455  16.477  0.0762 -0.4637  0.2031
 6865TIP3   OH242009   5.758   0.056   1.167 -0.5155  0.4251  0.0703
 6865TIP3    H142010   5.712   0.092   1.091  1.6435  1.0277 -1.0310
 6865TIP3    H242011   5.813  -0.013   1.131 -0.0969  0.1348  1.2253
 6866TIP3   OH242012   3.842   1.922   3.994 -0.0388  0.0128 -0.7744
 6866TIP3    H142013   3.780   1.936   3.922 -1.3792 -0.6955  0.1743
 6866TIP3    H242014   3.915   1.875   3.955  0.0602  1.1474 -2.0013
 6867TIP3   OH242015   6.057   3.905  15.173  0.6254  0.0928 -0.2101
 6867TIP3    H142016   6.132   3.847  15.187  0.8348  0.6322  1.0914
 6867TIP3    H242017   6.089   3.975  15.117  0.6358 -0.5238 -0.9897
 6868TIP3   OH242018   3.179   0.981   1.372 -0.2536 -0.9568 -0.7944
 6868TIP3    H142019   3.087   0.963   1.391  0.0850 -0.8133  1.2572
 6868TIP3    H242020   3.179   1.068   1.332 -0.7774  1.4204  3.7089
 6869TIP3   OH242021   1.903   1.779   1.151 -0.0780 -0.3285 -0.3033
 6869TIP3    H142022   1.858   1.758   1.233  1.7315 -1.5388  0.4504
 6869TIP3    H242023   1.866   1.864   1.125 -1.7871 -0.6355  0.9360
 6870TIP3   OH242024   4.831   4.762  11.473 -0.3772 -0.0754 -0.3979
 6870TIP3    H142025   4.796   4.819  11.542  1.7626  0.9697 -0.1087
 6870TIP3    H242026   4.882   4.820  11.417  1.2906 -1.5751 -0.5214
 6871TIP3   OH242027   0.175   3.787   1.133 -0.5277  0.2712 -0.0192
 6871TIP3    H142028   0.129   3.843   1.071 -1.6446 -0.6045 -0.0095
 6871TIP3    H242029   0.207   3.714   1.081  3.5248  2.1902 -0.6409
 6872TIP3   OH242030   0.826   0.710  12.852 -0.6209 -0.0789 -0.4507
 6872TIP3    H142031   0.878   0.788  12.868  0.9830 -1.0034 -0.8772
 6872TIP3    H242032   0.805   0.714  12.758 -0.5715 -0.1444 -0.4646
 6873TIP3   OH242033   0.063   5.732   2.596 -0.1730  0.6381 -0.2183
 6873TIP3    H142034   0.018   5.815   2.611 -3.7584 -1.5167  2.6901
 6873TIP3    H242035   0.011   5.689   2.528  0.0762 -0.2549  0.1433
 6874TIP3   OH242036   4.864   4.567  15.060  0.6739  0.5606 -0.4286
 6874TIP3    H142037   4.856   4.526  15.146  1.4955  0.5186 -0.3665
 6874TIP3    H242038   4.791   4.532  15.009 -0.7380  1.7333  0.6979
 6875TIP3   OH242039   0.094   6.230   3.161 -0.2547  0.0730  0.2630
 6875TIP3    H142040   0.152   6.269   3.096 -1.4995  0.4988 -0.6207
 6875TIP3    H242041   0.015   6.208   3.113 -0.8754 -0.4277  1.4619
 6876TIP3   OH242042   2.652   3.925   1.887 -0.1373  0.4031  0.0985
 6876TIP3    H142043   2.700   3.946   1.967 -1.8498 -1.2105  1.6514
 6876TIP3    H242044   2.696   3.848   1.852 -0.1432  0.3645  0.1767
 6877TIP3   OH242045   6.720   1.039  16.247  0.3263  0.0102 -0.2905
 6877TIP3    H142046   6.807   1.074  16.266  1.1951 -1.6680 -0.9709
 6877TIP3    H242047   6.698   1.075  16.161  0.9038 -0.5627 -0.6790
 6878TIP3   OH242048   4.822   4.499   3.957  0.2714  0.2090 -0.5928
 6878TIP3    H142049   4.892   4.465   3.900  1.6048  0.6585  0.7000
 6878TIP3    H242050   4.755   4.431   3.956  2.1053 -1.7446  0.5468
 6879TIP3   OH242051   2.978   2.335  15.579 -0.0084  0.1383 -0.1261
 6879TIP3    H142052   3.040   2.280  15.627 -0.4234  0.9537  1.3987
 6879TIP3    H242053   2.892   2.302  15.605 -0.2950  1.9692  1.4778
 6880TIP3   OH242054   2.195   4.448  13.979  0.1529 -0.3462  0.2234
 6880TIP3    H142055   2.270   4.392  13.956 -0.2213 -0.3854 -0.9965
 6880TIP3    H242056   2.181   4.501  13.901 -0.2058  0.6670  0.9663
 6881TIP3   OH242057   6.610   1.293  14.529  0.3918 -0.0993  0.5736
 6881TIP3    H142058   6.646   1.286  14.618  0.8277  0.3413  0.4403
 6881TIP3    H242059   6.680   1.261  14.472  0.5184  0.5868  0.3247
 6882TIP3   OH242060   5.388   6.191  14.974  0.8613  0.3662 -0.0410
 6882TIP3    H142061   5.334   6.223  15.046  3.2718 -0.2237  2.1611
 6882TIP3    H242062   5.424   6.270  14.933  0.4377  0.6640  0.1573
 6883TIP3   OH242063   1.269   5.601  14.148 -0.4445 -0.0757  0.1858
 6883TIP3    H142064   1.179   5.626  14.130 -0.6572 -1.7015 -1.3034
 6883TIP3    H242065   1.292   5.541  14.077  1.7020  0.0305  0.7170
 6884TIP3   OH242066   0.472   3.604   3.542  0.3552 -0.2304 -0.2218
 6884TIP3    H142067   0.443   3.592   3.451 -2.8943 -1.6318  0.8415
 6884TIP3    H242068   0.425   3.681   3.572  0.1524 -0.6921  0.6915
 6885TIP3   OH242069   2.865   2.367  12.605 -0.2390  0.1953  0.4469
 6885TIP3    H142070   2.843   2.460  12.618 -0.2489  0.0467  1.5637
 6885TIP3    H242071   2.795   2.319  12.648  1.0098 -0.3010  2.0361
 6886TIP3   OH242072   4.710   5.802   2.515  0.2739  0.1227  0.0712
 6886TIP3    H142073   4.740   5.778   2.603  3.5337 -1.2131 -1.2403
 6886TIP3    H242074   4.618   5.775   2.513  0.5006 -1.1397  2.6209
 6887TIP3   OH242075   6.462   2.064   3.846  0.3011  0.4170  0.0987
 6887TIP3    H142076   6.482   2.105   3.762 -0.7803 -2.2850 -1.6220
 6887TIP3    H242077   6.502   1.977   3.840 -0.1467  0.0077  2.2470
 6888TIP3   OH242078   5.755   4.376  15.584  0.3153 -0.1601 -0.2096
 6888TIP3    H142079   5.751   4.472  15.584 -0.5455 -0.1888 -0.7350
 6888TIP3    H242080   5.845   4.356  15.558  0.3331  0.5051 -0.7003
 6889TIP3   OH242081   2.615   3.189   5.255 -0.3167  0.0947 -0.0320
 6889TIP3    H142082   2.587   3.254   5.319 -0.7753 -0.8532  0.7507
 6889TIP3    H242083   2.605   3.105   5.299  0.5865 -0.5035 -0.8991
 6890TIP3   OH242084   5.800   2.678  15.168 -0.3682 -0.3478 -0.0215
 6890TIP3    H142085   5.756   2.593  15.162  1.0511 -1.0358 -1.6477
 6890TIP3    H242086   5.730   2.742  15.169 -1.4776 -1.5140  1.2417
 6891TIP3   OH242087   3.377   4.284  12.751 -0.2348 -0.1345  0.2594
 6891TIP3    H142088   3.330   4.242  12.822 -0.1249 -3.9260 -1.6711
 6891TIP3    H242089   3.468   4.289  12.782 -0.3924 -0.6203  0.8150
 6892TIP3   OH242090   3.375   0.964  11.537  0.2815  0.0402 -0.6797
 6892TIP3    H142091   3.343   1.049  11.568 -0.8864 -0.5113 -0.3380
 6892TIP3    H242092   3.319   0.900  11.579 -1.0603 -0.7920 -3.4682
 6893TIP3   OH242093   1.997   4.604   3.200  0.2962 -0.1836 -0.0313
 6893TIP3    H142094   2.056   4.583   3.272 -1.7131 -2.2725  1.1308
 6893TIP3    H242095   1.914   4.625   3.242 -0.2964  0.9851 -1.6830
 6894TIP3   OH242096   3.397   4.867   1.900  0.1485  0.1967  0.6494
 6894TIP3    H142097   3.427   4.778   1.883  1.4277  0.7069  0.1036
 6894TIP3    H242098   3.448   4.896   1.975 -0.0800  0.5514  0.6722
 6895TIP3   OH242099   2.870   5.818   5.079  0.5627  0.5858  0.0527
 6895TIP3    H142100   2.862   5.732   5.037  0.1898  0.6511 -0.0137
 6895TIP3    H242101   2.789   5.864   5.056  0.7406  0.9417  0.1217
 6896TIP3   OH242102   3.124   0.245  11.734 -0.0338  0.1532  0.2181
 6896TIP3    H142103   3.111   0.330  11.692 -1.0518 -1.1606 -2.3681
 6896TIP3    H242104   3.039   0.223  11.771 -0.2159 -0.3918 -0.4987
 6897TIP3   OH242105   5.268   2.434   4.103 -0.2348  0.1742  0.8753
 6897TIP3    H142106   5.326   2.478   4.041  1.6678 -1.0023  1.7176
 6897TIP3    H242107   5.299   2.343   4.104 -3.0899 -0.9439  0.2639
 6898TIP3   OH242108   6.269   4.118  13.558 -0.7039  0.2361 -0.4572
 6898TIP3    H142109   6.310   4.053  13.502 -2.5141 -1.9235  0.5242
 6898TIP3    H242110   6.329   4.128  13.632 -0.4779 -0.4380 -0.5491
 6899TIP3   OH242111   0.887   2.536   3.652 -0.1899 -0.1061 -0.5443
 6899TIP3    H142112   0.861   2.508   3.564 -0.6266 -2.2643  0.2114
 6899TIP3    H242113   0.950   2.470   3.680  1.2106  1.4638  0.1740
 6900TIP3   OH242114   3.118   4.042   0.617  0.0076 -0.3032 -0.0991
 6900TIP3    H142115   3.090   3.966   0.566 -0.7873 -0.2213  0.2033
 6900TIP3    H242116   3.063   4.040   0.695 -0.1724  0.6996 -0.1889
 6901TIP3   OH242117   5.150   1.727  11.559 -0.1644 -0.1990 -0.3066
 6901TIP3    H142118   5.120   1.721  11.468 -2.1478  0.1331  0.2637
 6901TIP3    H242119   5.104   1.803  11.594 -0.2880 -0.9413  1.2509
 6902TIP3   OH242120   0.892   2.317   0.727 -0.2489  0.3437  0.1373
 6902TIP3    H142121   0.811   2.368   0.731  0.0027  1.0312 -2.1443
 6902TIP3    H242122   0.923   2.315   0.818 -3.1924 -0.6507  1.2371
 6903TIP3   OH242123   5.068   5.938   4.359 -1.0040 -0.0459  0.2450
 6903TIP3    H142124   5.035   5.993   4.287 -0.2458 -0.0350 -0.1114
 6903TIP3    H242125   5.160   5.923   4.336 -1.2012 -1.5045  0.3121
 6904TIP3   OH242126   1.749   0.123  15.065 -0.0065  0.0208 -0.5003
 6904TIP3    H142127   1.804   0.176  15.122 -0.0527  0.6469 -1.0250
 6904TIP3    H242128   1.747   0.036  15.106 -0.1291  0.4895  0.4947
 6905TIP3   OH242129   2.330   1.840  16.979  0.3415  0.2479 -0.4363
 6905TIP3    H142130   2.264   1.887  17.030 -0.0645 -0.7842  0.0154
 6905TIP3    H242131   2.289   1.827  16.894  0.0395 -0.1933 -0.2286
 6906TIP3   OH242132   3.802   5.426  14.998 -0.2043  0.3908 -0.3725
 6906TIP3    H142133   3.846   5.404  15.080 -0.0794  2.5447  0.2016
 6906TIP3    H242134   3.722   5.372  14.999 -0.5527  0.8770  1.5180
 6907TIP3   OH242135   0.039   0.855   0.604 -0.1802  0.0383 -0.2328
 6907TIP3    H142136   0.059   0.948   0.594 -1.5477  0.2390 -1.4053
 6907TIP3    H242137  -0.051   0.854   0.638 -0.3887 -0.8563 -0.7857
 6908TIP3   OH242138   4.571   2.054   0.663  0.7128 -0.3808  0.0249
 6908TIP3    H142139   4.642   2.050   0.599  0.5821 -0.4854 -0.1141
 6908TIP3    H242140   4.594   1.987   0.728  0.8779 -0.2298  0.1223
 6909TIP3   OH242141   1.609   2.695  12.891  0.5639 -0.0651  0.2555
 6909TIP3    H142142   1.520   2.674  12.863  0.6127 -0.8843  0.6746
 6909TIP3    H242143   1.664   2.667  12.818  0.4563  0.8342 -0.1817
 6910TIP3   OH242144   6.382   6.450   5.397  0.2508 -0.4215 -0.7417
 6910TIP3    H142145   6.459   6.500   5.423  0.2070 -1.1405  0.9019
 6910TIP3    H242146   6.309   6.510   5.412  0.4142 -0.0365 -1.4627
 6911TIP3   OH242147   4.617   0.259  16.502 -0.3292 -0.2550  0.3761
 6911TIP3    H142148   4.627   0.183  16.560  4.1471 -0.4594 -0.2652
 6911TIP3    H242149   4.549   0.312  16.543 -1.4294 -3.1104  2.5737
 6912TIP3   OH242150   4.010   3.640  13.608  0.6254 -0.3395  0.0096
 6912TIP3    H142151   3.990   3.559  13.560  0.7050 -0.5574  0.3427
 6912TIP3    H242152   3.935   3.653  13.665  1.6473 -1.4851  1.7049
 6913TIP3   OH242153   1.326   1.223  15.114 -0.6612 -0.1051 -0.4625
 6913TIP3    H142154   1.393   1.160  15.140 -0.7993  0.5850  1.7856
 6913TIP3    H242155   1.243   1.178  15.129 -0.7441  0.3290  0.4647
 6914TIP3   OH242156   4.039   2.186  14.586  0.2008 -0.7175 -0.5240
 6914TIP3    H142157   4.116   2.182  14.642  0.1396 -1.4766 -0.4758
 6914TIP3    H242158   3.966   2.197  14.647  0.3599  1.2340 -0.6487
 6915TIP3   OH242159   4.596   3.553  12.473 -0.1682 -0.2538 -0.3887
 6915TIP3    H142160   4.549   3.577  12.393  0.6646  0.3286 -0.7137
 6915TIP3    H242161   4.655   3.626  12.490  2.6952 -2.1301 -1.5807
 6916TIP3   OH242162   4.130   2.375   1.225  0.5042 -1.0225 -0.0156
 6916TIP3    H142163   4.154   2.335   1.309 -2.7431 -2.0679  0.5722
 6916TIP3    H242164   4.178   2.457   1.222 -0.1163 -0.4038  3.4405
 6917TIP3   OH242165   0.288   4.516  11.905 -0.7989 -0.0163 -0.3747
 6917TIP3    H142166   0.272   4.459  11.830  2.1594 -0.9094 -0.4746
 6917TIP3    H242167   0.324   4.458  11.972  0.7419  1.4335  0.1209
 6918TIP3   OH242168   4.920   3.646  12.368 -0.2584 -0.6005  0.3070
 6918TIP3    H142169   5.010   3.623  12.390 -0.2754 -0.3054  0.7057
 6918TIP3    H242170   4.899   3.593  12.291  0.9591  0.8087 -1.0844
 6919TIP3   OH242171   4.071   0.575  16.648 -0.0093  0.0422  0.2093
 6919TIP3    H142172   4.041   0.662  16.676 -1.0635 -0.7547  1.6996
 6919TIP3    H242173   4.137   0.593  16.581 -0.7054  1.9764 -0.0296
 6920TIP3   OH242174   1.556   2.795  16.289  0.0701 -0.1052 -0.2989
 6920TIP3    H142175   1.474   2.827  16.250 -0.0910 -0.3538 -0.1648
 6920TIP3    H242176   1.607   2.875  16.306  0.2448 -0.0079 -1.2346
 6921TIP3   OH242177   5.847   5.824   2.256  0.4836 -0.3102  0.0754
 6921TIP3    H142178   5.765   5.804   2.211 -0.2489 -0.5090  1.4554
 6921TIP3    H242179   5.856   5.919   2.247  1.3861 -0.5341 -2.1459
 6922TIP3   OH242180   2.879   2.623  15.715 -0.1189  0.1374 -0.4595
 6922TIP3    H142181   2.966   2.651  15.745 -0.0230  0.7674 -1.2902
 6922TIP3    H242182   2.880   2.528  15.725  0.7653  0.1065 -0.6901
 6923TIP3   OH242183   3.804   2.014  14.355 -0.2505 -0.1674 -0.0948
 6923TIP3    H142184   3.792   1.974  14.441 -0.3724  1.7068  0.8114
 6923TIP3    H242185   3.717   2.043  14.329 -0.0884 -0.0330 -0.5096
 6924TIP3   OH242186   4.601   4.044  14.617 -0.2238 -0.1780  0.0665
 6924TIP3    H142187   4.681   4.086  14.649 -1.1165 -0.0075  2.2624
 6924TIP3    H242188   4.625   3.953  14.604  0.1022 -0.4011  1.8685
 6925TIP3   OH242189   3.389   4.649   3.692  0.3030  0.4882 -0.3632
 6925TIP3    H142190   3.471   4.659   3.741  1.2222 -1.9388 -1.2499
 6925TIP3    H242191   3.345   4.576   3.735 -1.5546  1.8651  0.2058
 6926TIP3   OH242192   3.786   3.928   0.243  0.6336  0.5486 -0.1432
 6926TIP3    H142193   3.773   3.954   0.152 -1.4822  2.0370  0.5028
 6926TIP3    H242194   3.853   3.989   0.276  0.2997  1.0072 -0.3064
 6927TIP3   OH242195   0.817   4.807   3.434  0.5096  0.6010  0.5475
 6927TIP3    H142196   0.850   4.777   3.349  0.8764  1.5422  0.3470
 6927TIP3    H242197   0.829   4.732   3.492  0.3862 -0.0071 -0.1908
 6928TIP3   OH242198   4.171   5.466   5.150 -0.1235  0.2925 -0.0149
 6928TIP3    H142199   4.258   5.504   5.139 -0.4276  0.7272 -1.0388
 6928TIP3    H242200   4.172   5.386   5.098 -0.5288  0.6172 -0.5254
 6929TIP3   OH242201   2.253   5.931   0.048  0.2289  0.4823 -0.1748
 6929TIP3    H142202   2.170   5.914   0.004  0.0099  2.0985 -0.4425
 6929TIP3    H242203   2.240   5.899   0.137 -1.4006  2.3997  0.3608
 6930TIP3   OH242204   6.581   4.741  14.263  0.4983 -0.4901  0.7029
 6930TIP3    H142205   6.513   4.796  14.301 -0.1571 -0.3675 -0.5976
 6930TIP3    H242206   6.547   4.652  14.271 -0.3130 -0.3524 -0.8500
 6931TIP3   OH242207   4.221   4.268  12.361  0.1121 -0.2823 -0.0924
 6931TIP3    H142208   4.174   4.185  12.367 -0.6339  0.0547 -1.0780
 6931TIP3    H242209   4.311   4.247  12.387 -0.0271 -1.4353 -0.5180
 6932TIP3   OH242210   3.492   6.326  14.609 -0.1774 -0.0822  0.1689
 6932TIP3    H142211   3.549   6.279  14.670 -3.3193 -3.7712  0.6888
 6932TIP3    H242212   3.508   6.285  14.524  0.2393  1.1540 -0.3648
 6933TIP3   OH242213   6.499   6.313   5.071 -0.4590  0.5141 -0.2608
 6933TIP3    H142214   6.552   6.351   5.141  0.6927  0.0504 -0.8576
 6933TIP3    H242215   6.461   6.388   5.026 -2.6182  0.8239  1.8301
 6934TIP3   OH242216   4.196   2.938   0.114 -0.3895 -0.4058  0.0862
 6934TIP3    H142217   4.141   2.862   0.132 -1.0569 -0.6268 -2.5611
 6934TIP3    H242218   4.249   2.913   0.039 -0.1872  1.5465 -0.4820
 6935TIP3   OH242219   4.618   3.874  11.055 -0.4430  0.0968 -0.2206
 6935TIP3    H142220   4.544   3.819  11.080 -0.2705 -0.5413 -1.0796
 6935TIP3    H242221   4.687   3.812  11.029  0.5540  0.6592  0.9647
 6936TIP3   OH242222   5.865   6.576   3.866 -0.3499  0.5441  0.0159
 6936TIP3    H142223   5.867   6.490   3.823 -0.1960  1.3400 -1.6338
 6936TIP3    H242224   5.806   6.629   3.812  0.0613  1.6736  0.6342
 6937TIP3   OH242225   5.153   4.105  15.223 -0.5509 -0.2633 -0.2028
 6937TIP3    H142226   5.066   4.120  15.261 -0.8099  0.3332 -0.9762
 6937TIP3    H242227   5.204   4.067  15.294 -0.1761  3.3020  1.7067
 6938TIP3   OH242228   5.815   4.838   2.697  0.0491 -0.7251  0.4690
 6938TIP3    H142229   5.790   4.906   2.635  0.0512 -2.5444 -1.6666
 6938TIP3    H242230   5.871   4.779   2.646  1.0405 -1.6844  2.5622
 6939TIP3   OH242231   0.878   2.896  16.004 -0.3284 -0.3078 -0.2453
 6939TIP3    H142232   0.906   2.816  16.048  0.4577  1.0323  1.8328
 6939TIP3    H242233   0.942   2.909  15.934 -0.5542 -1.5260 -0.7142
 6940TIP3   OH242234   4.273   2.528   5.986  0.1791  0.1809  0.4199
 6940TIP3    H142235   4.311   2.541   6.073 -0.3402 -1.1959  0.8850
 6940TIP3    H242236   4.341   2.484   5.935  0.4070  0.7924  0.1946
 6941TIP3   OH242237   5.207   5.082  11.219  0.0227 -0.5709  0.2303
 6941TIP3    H142238   5.300   5.104  11.224 -0.1144  0.0555  0.1557
 6941TIP3    H242239   5.201   5.022  11.144  0.3857 -0.7427  0.3351
 6942TIP3   OH242240   6.292   3.082  12.257 -0.4308 -0.5946  0.0815
 6942TIP3    H142241   6.318   3.022  12.327 -0.0352  0.1192  0.5575
 6942TIP3    H242242   6.371   3.135  12.241 -1.6211  1.9435  1.8645
 6943TIP3   OH242243   4.301   1.837   0.221  0.1911 -0.8667 -0.1715
 6943TIP3    H142244   4.239   1.898   0.261  0.6767 -0.0351 -0.6597
 6943TIP3    H242245   4.360   1.812   0.292  0.9084  0.4237 -0.2728
 6944TIP3   OH242246   5.532   3.270   3.942 -0.4731  0.0300 -0.0712
 6944TIP3    H142247   5.457   3.290   3.886  0.0223 -0.1177 -0.8036
 6944TIP3    H242248   5.505   3.193   3.992 -0.6049 -0.3721 -0.7493
 6945TIP3   OH242249   4.536   1.867  11.971  0.0643  0.0531  0.7259
 6945TIP3    H142250   4.582   1.858  12.054  1.5180 -1.2068 -0.1677
 6945TIP3    H242251   4.605   1.866  11.905 -1.1683 -0.6285 -0.5999
 6946TIP3   OH242252   1.202   5.436  12.265  0.3028 -0.1316  0.1373
 6946TIP3    H142253   1.143   5.429  12.191  0.4570 -2.7725  0.1621
 6946TIP3    H242254   1.286   5.404  12.232  0.6725 -0.2393  1.1408
 6947TIP3   OH242255   5.125   3.994  11.704 -0.3344 -0.0564  0.0034
 6947TIP3    H142256   5.127   3.912  11.654 -0.8129  0.4770 -0.9381
 6947TIP3    H242257   5.031   4.012  11.715 -0.2881  1.2180 -1.3128
 6948TIP3   OH242258   6.298   3.782  11.719  0.3595 -0.5934 -0.0867
 6948TIP3    H142259   6.207   3.758  11.704  0.5012 -1.7579  0.7922
 6948TIP3    H242260   6.343   3.699  11.729  1.1959  0.0011  1.3040
 6949TIP3   OH242261   0.736   0.864   3.977  0.2905  0.1793 -0.4365
 6949TIP3    H142262   0.686   0.860   4.058  1.6739  3.3030  0.7292
 6949TIP3    H242263   0.672   0.845   3.908 -2.5717  3.5217  0.9869
 6950TIP3   OH242264   1.821   1.513   6.201  0.1697 -0.2603  0.3832
 6950TIP3    H142265   1.883   1.585   6.211 -0.7591  0.7446 -0.8079
 6950TIP3    H242266   1.735   1.555   6.210 -0.4774 -0.7402 -2.6513
 6951TIP3   OH242267   6.611   2.949  12.014 -0.2039 -0.4882 -0.4157
 6951TIP3    H142268   6.682   2.972  12.073  0.4557 -0.8447 -1.0548
 6951TIP3    H242269   6.632   2.993  11.931 -1.9047  1.2574  0.0223
 6952TIP3   OH242270   4.325   1.313   4.104 -0.1314 -0.1150  0.1975
 6952TIP3    H142271   4.259   1.273   4.048  1.2945 -0.9277 -0.9649
 6952TIP3    H242272   4.287   1.309   4.192 -1.6969 -0.3649 -0.4490
 6953TIP3   OH242273   2.366   1.963  15.861  0.1032 -0.0554  0.6149
 6953TIP3    H142274   2.295   2.027  15.864 -0.2206 -0.4127  0.7290
 6953TIP3    H242275   2.321   1.878  15.856  0.5238 -0.2887  0.7580
 6954TIP3   OH242276   3.899   4.611  16.534 -0.2742 -0.4443  0.1851
 6954TIP3    H142277   3.949   4.529  16.536  0.6601  0.0808 -0.5368
 6954TIP3    H242278   3.953   4.674  16.581 -0.6530 -0.0716  0.1308
 6955TIP3   OH242279   3.169   4.777  15.936 -0.5915 -0.1058  0.4832
 6955TIP3    H142280   3.131   4.712  15.995 -1.7967 -0.2445 -0.4112
 6955TIP3    H242281   3.099   4.840  15.920  0.5170  1.3883  1.2202
 6956TIP3   OH242282   0.594   2.121   2.748  0.2434  0.3711  0.5725
 6956TIP3    H142283   0.590   2.083   2.836  0.3138 -0.1152  0.3696
 6956TIP3    H242284   0.688   2.136   2.733  0.2264  0.5056  0.6046
 6957TIP3   OH242285   3.582   4.684   1.804  0.0558  0.3313  0.0611
 6957TIP3    H142286   3.644   4.721   1.867 -1.1174 -0.0826  1.5384
 6957TIP3    H242287   3.579   4.747   1.732  2.6446  0.0256 -0.3832
 6958TIP3   OH242288   4.910   5.617  13.616  0.0667 -0.3507  0.5217
 6958TIP3    H142289   4.904   5.712  13.607  1.5450  0.0339  2.8240
 6958TIP3    H242290   4.853   5.583  13.547  0.4738  2.1532 -1.1824
 6959TIP3   OH242291   4.707   2.070  17.237 -0.1494 -0.3794  0.2903
 6959TIP3    H142292   4.617   2.066  17.268 -0.0676  0.1413  0.5938
 6959TIP3    H242293   4.710   2.147  17.180 -0.4766 -1.6972 -1.6012
 6960TIP3   OH242294   0.205   2.780   5.984  0.6145 -0.1454 -0.2831
 6960TIP3    H142295   0.286   2.828   5.971 -0.2804  1.4802 -0.0701
 6960TIP3    H242296   0.202   2.718   5.911  2.6759 -1.2015  0.4536
 6961TIP3   OH242297   1.980   5.057  14.219  0.2812  1.0318 -0.1820
 6961TIP3    H142298   1.940   5.084  14.302  0.7380 -0.4227  0.5522
 6961TIP3    H242299   1.906   5.026  14.166  0.0064  1.8123 -0.2582
 6962TIP3   OH242300   1.042   5.424   1.227  0.6342 -0.2641 -0.0461
 6962TIP3    H142301   1.055   5.499   1.285  2.8058  0.9973 -1.9984
 6962TIP3    H242302   1.108   5.361   1.254  1.0464 -0.0492 -0.5344
 6963TIP3   OH242303   3.866   5.805  16.554 -0.0384  0.1448 -0.1790
 6963TIP3    H142304   3.941   5.751  16.580 -0.8278 -1.2339 -0.6117
 6963TIP3    H242305   3.793   5.768  16.603 -0.5278  1.1642 -0.1170
 6964TIP3   OH242306   6.192   4.730  12.587 -0.0311  0.0656  0.4771
 6964TIP3    H142307   6.241   4.722  12.669 -1.1385 -1.0900  1.0635
 6964TIP3    H242308   6.259   4.739  12.519  1.3461 -5.2117  0.7344
 6965TIP3   OH242309   3.483   5.815  11.337 -0.0797  0.2752  0.2891
 6965TIP3    H142310   3.526   5.881  11.282 -1.0226  1.0752  0.4772
 6965TIP3    H242311   3.397   5.853  11.357 -0.9786 -1.3540 -0.2681
 6966TIP3   OH242312   0.421   1.278   6.756  0.1735  0.1512 -0.1463
 6966TIP3    H142313   0.454   1.366   6.775  1.1573  0.2899 -2.1293
 6966TIP3    H242314   0.336   1.293   6.715  0.1976  0.1821 -0.1870
 6967TIP3   OH242315   4.069   1.003   1.747  0.1150 -0.1773 -0.0373
 6967TIP3    H142316   4.051   1.055   1.825  1.7420  1.1202 -0.4500
 6967TIP3    H242317   4.101   0.919   1.781  0.8748  0.3939  0.7220
 6968TIP3   OH242318   1.204   6.075  10.371  0.2719  0.4486 -0.4609
 6968TIP3    H142319   1.163   6.022  10.439 -0.3798 -0.4582 -1.5205
 6968TIP3    H242320   1.133   6.131  10.338  0.5623  0.8305 -0.4465
 6969TIP3   OH242321   1.762   6.171  17.048  0.5569 -0.0399 -0.4706
 6969TIP3    H142322   1.855   6.153  17.032  0.7949  0.6515  0.0431
 6969TIP3    H242323   1.747   6.256  17.005  0.4793  0.4320  0.4479
 6970TIP3   OH242324   5.051   5.684  16.255  0.1073  0.2026  0.0276
 6970TIP3    H142325   5.133   5.649  16.221  2.0116  3.8277  0.3208
 6970TIP3    H242326   5.043   5.647  16.343  0.8509 -1.0484 -0.4134
 6971TIP3   OH242327   4.082   3.145  16.059 -0.0864  0.3351  0.5001
 6971TIP3    H142328   4.019   3.097  16.112  0.1086 -0.8121 -0.2691
 6971TIP3    H242329   4.163   3.093  16.064 -0.3298 -0.3662 -1.6755
 6972TIP3   OH242330   4.673   4.903  12.896 -0.0703 -0.4219 -0.4249
 6972TIP3    H142331   4.637   4.992  12.887 -0.9844 -0.9293 -2.1359
 6972TIP3    H242332   4.656   4.880  12.987 -3.3804 -0.2932 -0.8872
 6973TIP3   OH242333   4.470   4.424  17.009 -0.0580 -0.2773  0.0978
 6973TIP3    H142334   4.377   4.403  17.023 -0.5490  1.4714 -0.2973
 6973TIP3    H242335   4.478   4.515  17.035  1.5846 -0.4009  0.1344
 6974TIP3   OH242336   1.312   1.037   5.570 -0.0158  0.4432  0.1824
 6974TIP3    H142337   1.388   1.072   5.615 -1.0904  2.5124  0.4931
 6974TIP3    H242338   1.281   0.966   5.626 -0.7837  2.3684  2.3391
 6975TIP3   OH242339   0.194   5.547   4.191  0.1372 -0.1024  0.3243
 6975TIP3    H142340   0.232   5.634   4.182 -0.4739  0.1192 -0.1733
 6975TIP3    H242341   0.265   5.493   4.225  0.3133  0.7538  1.3786
 6976TIP3   OH242342   3.575   0.945  14.149  0.2751 -0.1169 -0.1201
 6976TIP3    H142343   3.507   0.902  14.201  1.3318  0.1311  1.5455
 6976TIP3    H242344   3.638   0.876  14.131 -0.3124 -0.3204 -1.5729
 6977TIP3   OH242345   0.347   3.899   4.415  0.1004  0.5575 -0.2399
 6977TIP3    H142346   0.361   3.875   4.507  3.8924  0.2706 -0.7308
 6977TIP3    H242347   0.320   3.818   4.373 -3.2618  1.0093  0.7250
 6978TIP3   OH242348   3.689   1.366  17.118  0.0614  0.4581 -0.4228
 6978TIP3    H142349   3.693   1.348  17.024 -0.2001 -0.6554 -0.2344
 6978TIP3    H242350   3.612   1.423  17.128  0.3539  0.9527 -0.9230
 6979TIP3   OH242351   2.343   2.766   5.986 -0.1730 -1.1689  0.0588
 6979TIP3    H142352   2.321   2.752   6.078 -0.1804  1.0344  0.4394
 6979TIP3    H242353   2.416   2.827   5.987 -1.1569  0.1358 -1.3805
 6980TIP3   OH242354   5.861   3.492  16.799  0.3185 -0.3500 -0.7739
 6980TIP3    H142355   5.929   3.550  16.834 -0.5315 -0.2979  0.8686
 6980TIP3    H242356   5.906   3.442  16.730  1.9355 -0.0732  0.0212
 6981TIP3   OH242357   1.876   6.499  11.742  0.8796 -0.5760  0.2438
 6981TIP3    H142358   1.807   6.541  11.793  0.3573 -0.4355 -0.5603
 6981TIP3    H242359   1.876   6.408  11.773 -0.7745 -1.0010 -0.8408
 6982TIP3   OH242360   1.708   5.027  15.006  0.5465 -0.3299 -0.5155
 6982TIP3    H142361   1.696   4.985  15.092  2.6696 -0.2234 -0.1059
 6982TIP3    H242362   1.625   5.012  14.960 -0.9742  0.3318  1.8387
 6983TIP3   OH242363   6.286   2.083  11.895 -0.0295  0.3039 -0.1378
 6983TIP3    H142364   6.307   1.997  11.860  1.1043  0.2413  0.6619
 6983TIP3    H242365   6.337   2.144  11.841  0.2036  0.3644  0.1507
 6984TIP3   OH242366   4.135   4.686   3.708 -0.4799 -0.0548 -0.4081
 6984TIP3    H142367   4.108   4.747   3.640  2.3260  2.1291  0.2331
 6984TIP3    H242368   4.128   4.600   3.667 -1.8515  0.8790 -2.3345
 6985TIP3   OH242369   0.403   4.731   5.277 -0.5108  0.0477 -0.1859
 6985TIP3    H142370   0.354   4.789   5.218  0.2110 -0.3204 -1.1639
 6985TIP3    H242371   0.486   4.776   5.292 -0.2765 -0.3402 -0.2953
 6986TIP3   OH242372   3.688   2.486  15.761  0.1323 -0.3083  0.0254
 6986TIP3    H142373   3.734   2.449  15.835 -1.0800  0.9817  1.4907
 6986TIP3    H242374   3.643   2.563  15.796 -1.6058 -0.4462 -1.7132
 6987TIP3   OH242375   5.919   5.073  12.798  0.0028  0.5460 -0.0187
 6987TIP3    H142376   5.933   5.120  12.716 -2.9910  0.7915 -0.4969
 6987TIP3    H242377   5.942   4.982  12.778  1.9933  1.0381 -0.2370
 6988TIP3   OH242378   3.444   4.538   2.916  0.3697  0.0004 -0.0616
 6988TIP3    H142379   3.421   4.446   2.909  1.9319 -0.4072 -0.2773
 6988TIP3    H242380   3.539   4.538   2.925  0.3539  1.5685  0.4764
 6989TIP3   OH242381   0.959   0.940  16.430 -0.1392 -0.2158 -0.1540
 6989TIP3    H142382   0.885   1.001  16.427  0.7331  0.9619  1.0788
 6989TIP3    H242383   1.033   0.990  16.394  0.6643 -0.3927  1.1886
 6990TIP3   OH242384   3.768   3.114   1.534  0.6746 -0.5010  0.0466
 6990TIP3    H142385   3.780   3.055   1.608  0.4287  0.1147  0.5898
 6990TIP3    H242386   3.813   3.195   1.560  1.6436 -0.6703 -0.9845
 6991TIP3   OH242387   3.665   2.552  16.812  0.1843  0.2730 -0.3064
 6991TIP3    H142388   3.628   2.518  16.893  0.7934  2.1294  0.8172
 6991TIP3    H242389   3.614   2.511  16.743 -1.4075 -0.1664  1.0738
 6992TIP3   OH242390   4.819   0.062  11.145 -0.2473  0.0327  0.2237
 6992TIP3    H142391   4.775   0.086  11.064 -0.9506 -2.5888 -0.2559
 6992TIP3    H242392   4.770   0.109  11.213  0.3032  2.1964 -0.7752
 6993TIP3   OH242393   5.323   0.293  14.805  0.3809  0.4746 -0.5277
 6993TIP3    H142394   5.345   0.200  14.797  1.4287  0.4592  1.6482
 6993TIP3    H242395   5.395   0.338  14.760 -0.1431  0.2591 -1.6096
 6994TIP3   OH242396   2.510   2.316  16.791  0.2312  0.5577  0.2748
 6994TIP3    H142397   2.434   2.260  16.776 -1.2817  2.1424  1.5736
 6994TIP3    H242398   2.483   2.402  16.759  1.7765  1.0256  0.1250
 6995TIP3   OH242399   2.802   5.750  17.120 -0.0240 -0.5790 -0.1327
 6995TIP3    H142400   2.814   5.773  17.212 -0.7414 -0.1911 -0.1301
 6995TIP3    H242401   2.878   5.696  17.099  1.4292  1.2990  0.0159
 6996TIP3   OH242402   5.450   6.640   1.471  0.4183  0.4430  0.6550
 6996TIP3    H142403   5.387   6.701   1.433 -0.9654 -1.6145 -0.5247
 6996TIP3    H242404   5.534   6.665   1.432 -0.1230  1.5143  0.1206
 6997TIP3   OH242405   3.165   4.649  15.422 -0.3478 -0.1948 -0.8008
 6997TIP3    H142406   3.111   4.610  15.353  0.4524  1.6922 -2.6020
 6997TIP3    H242407   3.102   4.689  15.482 -1.0486 -1.5544 -0.6049
 6998TIP3   OH242408   5.986   0.044   1.430 -0.0569 -0.4454  0.2484
 6998TIP3    H142409   5.932   0.085   1.497 -1.8625 -0.8438 -0.9077
 6998TIP3    H242410   6.075   0.048   1.466 -0.4770  2.2615  1.2287
 6999TIP3   OH242411   5.955   5.749  14.272 -0.0077 -0.3796  0.2313
 6999TIP3    H142412   5.975   5.817  14.207  1.5316 -1.4664 -0.5170
 6999TIP3    H242413   6.019   5.763  14.342 -0.9554  0.1142  1.0153
 7000TIP3   OH242414   4.459   3.269  11.677 -0.6910  0.1374  0.2017
 7000TIP3    H142415   4.475   3.353  11.633  0.6911 -0.1133  0.1776
 7000TIP3    H242416   4.546   3.238  11.701 -1.2893 -0.5948  1.5331
 7001TIP3   OH242417   3.400   1.332  14.587  0.0261  0.1640 -0.4928
 7001TIP3    H142418   3.360   1.268  14.528 -0.1013 -0.9787  0.7707
 7001TIP3    H242419   3.490   1.301  14.598 -0.1351 -0.0164  0.3989
 7002TIP3   OH242420   1.613   6.592   3.275  0.3256  0.3574 -0.1302
 7002TIP3    H142421   1.673   6.665   3.262  0.4253  0.4895  1.0398
 7002TIP3    H242422   1.586   6.598   3.366 -0.3549 -0.5510 -0.2551
 7003TIP3   OH242423   6.032   6.000  14.107  0.1883  0.3094  0.0960
 7003TIP3    H142424   5.963   6.055  14.070  0.5652  0.3014 -0.6289
 7003TIP3    H242425   6.105   6.008  14.046  1.0809  0.8423  1.2018
 7004TIP3   OH242426   6.362   4.699   3.422 -0.3836  0.3004 -0.3358
 7004TIP3    H142427   6.421   4.773   3.430 -0.8877  0.8883 -1.7578
 7004TIP3    H242428   6.294   4.716   3.487  0.6046 -0.0369  0.8351
 7005TIP3   OH242429   4.966   1.994  10.600  0.0205  0.3278  0.4902
 7005TIP3    H142430   4.922   2.058  10.544 -2.9329 -1.2433  0.7944
 7005TIP3    H242431   5.007   1.932  10.539 -0.2724  0.4876  0.1317
 7006TIP3   OH242432   5.357   5.888   6.261  0.2418  0.4165 -0.2509
 7006TIP3    H142433   5.271   5.895   6.303  1.0281  0.2322  1.4538
 7006TIP3    H242434   5.419   5.910   6.330  1.6614 -1.0526 -1.0046
 7007TIP3   OH242435   1.350   4.112   0.286 -0.2305  0.5358 -0.4246
 7007TIP3    H142436   1.286   4.146   0.349 -0.6079  0.2778 -0.6645
 7007TIP3    H242437   1.420   4.177   0.286  0.9172 -0.5476  2.0118
 7008TIP3   OH242438   1.915   5.727  14.992  0.5946  0.2151 -0.5462
 7008TIP3    H142439   1.929   5.779  14.913 -1.1461 -0.5670 -1.4191
 7008TIP3    H242440   1.858   5.782  15.047 -0.2493 -0.2632 -0.9380
 7009TIP3   OH242441   1.800   1.981  15.352  0.5469  0.3293 -0.4057
 7009TIP3    H142442   1.749   2.020  15.422  0.2764  0.3820 -0.6312
 7009TIP3    H242443   1.767   1.891  15.345  1.8419 -0.2825  0.7823
 7010TIP3   OH242444   5.730   3.798   2.986  0.0007 -0.4476 -0.3385
 7010TIP3    H142445   5.665   3.731   2.964  0.1903 -0.8619  0.3216
 7010TIP3    H242446   5.750   3.781   3.078 -0.6946  1.1613  0.1406
 7011TIP3   OH242447   6.528   4.667  16.903 -0.1350  0.7641  0.0823
 7011TIP3    H142448   6.478   4.742  16.936  0.0825  1.2611 -0.6791
 7011TIP3    H242449   6.470   4.627  16.838 -0.8994 -0.6989  1.5796
 7012TIP3   OH242450   4.309   3.018   5.190  0.5419 -0.3508 -0.5604
 7012TIP3    H142451   4.339   2.962   5.262 -2.5242 -0.9272  0.4174
 7012TIP3    H242452   4.371   3.090   5.188  1.6545 -1.1594  1.5756
 7013TIP3   OH242453   4.383   6.662   5.141  0.1458  0.3688 -0.0730
 7013TIP3    H142454   4.443   6.702   5.078  0.0321  0.0174 -0.4063
 7013TIP3    H242455   4.391   6.568   5.125  0.7274  0.2262  0.9867
 7014TIP3   OH242456   2.536   3.139  14.461  0.1867  0.7954 -0.0058
 7014TIP3    H142457   2.506   3.064  14.513 -0.7974  1.9500  1.1717
 7014TIP3    H242458   2.584   3.193  14.524 -0.7735  2.0799 -0.3214
 7015TIP3   OH242459   1.285   3.714   2.849  0.1348  0.4359  0.1348
 7015TIP3    H142460   1.241   3.677   2.926 -1.0984 -0.0557 -0.7671
 7015TIP3    H242461   1.288   3.808   2.866 -2.9660  0.7835 -0.4905
 7016TIP3   OH242462   1.154   6.004  14.493  0.1743  0.2944  0.5001
 7016TIP3    H142463   1.096   5.969  14.425  1.5566 -0.2248 -0.4796
 7016TIP3    H242464   1.137   5.950  14.570  0.7725 -1.2285 -0.3785
 7017TIP3   OH242465   5.845   1.071   0.765 -0.3484 -0.2693 -0.1833
 7017TIP3    H142466   5.804   1.146   0.722  0.1455  0.6586  0.9143
 7017TIP3    H242467   5.843   1.093   0.858  1.5435 -0.7255  0.0089
 7018TIP3   OH242468   4.926   1.654  13.970 -0.1661  0.0800 -0.3069
 7018TIP3    H142469   4.839   1.618  13.957 -0.1104 -0.3299  0.4233
 7018TIP3    H242470   4.912   1.740  14.008 -0.2520  0.0191 -0.2014
 7019TIP3   OH242471   5.490   1.287  13.761  0.2682 -0.1864 -0.5638
 7019TIP3    H142472   5.554   1.347  13.722  0.8937 -0.9226 -0.7062
 7019TIP3    H242473   5.542   1.211  13.789 -0.3381 -0.1691  0.6711
 7020TIP3   OH242474   5.008   2.589   1.344  0.4668  0.0773  0.1421
 7020TIP3    H142475   5.021   2.495   1.352  1.0704 -0.1142 -2.2306
 7020TIP3    H242476   4.964   2.615   1.425  1.9548 -1.8994  1.6782
 7021TIP3   OH242477   5.421   0.545   3.313 -0.6486 -0.1639  0.2692
 7021TIP3    H142478   5.345   0.579   3.362 -1.2934  1.0299 -1.4375
 7021TIP3    H242479   5.410   0.581   3.225  1.1243 -1.2129 -0.4309
 7022TIP3   OH242480   6.117   5.340  16.353 -0.2108 -0.1072  0.1488
 7022TIP3    H142481   6.063   5.381  16.286 -0.7530 -0.6950  0.2126
 7022TIP3    H242482   6.162   5.413  16.396 -0.5626  0.3473 -0.2500
 7023TIP3   OH242483   1.752   4.123   1.724 -0.2094 -0.0706  0.1607
 7023TIP3    H142484   1.680   4.081   1.677 -2.7410 -0.2030  3.7684
 7023TIP3    H242485   1.825   4.063   1.715 -1.5595 -1.6593 -0.7675
 7024TIP3   OH242486   2.486   1.319   0.496  0.7605  0.5869  0.4334
 7024TIP3    H142487   2.411   1.378   0.490 -1.5079 -2.1695 -0.9058
 7024TIP3    H242488   2.500   1.306   0.589 -0.2375  1.3491  0.7038
 7025TIP3   OH242489   5.654   4.623   5.228  0.0420 -0.2695 -0.6773
 7025TIP3    H142490   5.703   4.550   5.191  0.6252 -0.4064  0.3487
 7025TIP3    H242491   5.640   4.599   5.320  1.2389  1.3983 -0.0069
 7026TIP3   OH242492   3.580   2.192   1.684  0.4720  0.3475  0.5802
 7026TIP3    H142493   3.598   2.215   1.775  1.4790  0.1838  0.4364
 7026TIP3    H242494   3.547   2.102   1.688 -0.6581  0.7639  0.8811
 7027TIP3   OH242495   2.272   4.076  16.678  0.6965 -0.0877  0.4462
 7027TIP3    H142496   2.215   4.050  16.605  1.2552 -1.0236  0.3131
 7027TIP3    H242497   2.215   4.123  16.739 -0.2793 -1.2022  0.4271
 7028TIP3   OH242498   1.633   4.336   2.673  0.1804 -0.7485 -0.0257
 7028TIP3    H142499   1.727   4.353   2.678  0.4530 -1.8169 -0.9653
 7028TIP3    H242500   1.593   4.422   2.668  1.0314 -0.2421  1.2103
 7029TIP3   OH242501   6.372   1.129   2.019  0.5565  0.8176 -0.5356
 7029TIP3    H142502   6.433   1.181   2.071  0.3457  0.9246 -0.3913
 7029TIP3    H242503   6.390   1.038   2.044 -1.3470  0.9830  1.7701
 7030TIP3   OH242504   4.148   1.510  16.672 -0.7183  0.2901 -0.1549
 7030TIP3    H142505   4.220   1.573  16.681  0.2369 -0.8983  0.8685
 7030TIP3    H242506   4.167   1.442  16.736 -2.1647 -0.6460 -0.6605
 7031TIP3   OH242507   1.663   0.850  16.426 -0.4552 -0.3316  0.5654
 7031TIP3    H142508   1.626   0.792  16.360  0.6423 -1.1706  0.6601
 7031TIP3    H242509   1.640   0.938  16.397 -0.2544 -0.7033 -0.7681
 7032TIP3   OH242510   6.243   2.776  14.829  0.4847 -0.0869 -0.5088
 7032TIP3    H142511   6.280   2.762  14.741 -2.6606  1.1624 -2.1929
 7032TIP3    H242512   6.149   2.787  14.814 -0.1112  0.7743  2.9976
 7033TIP3   OH242513   1.491   2.067  15.090  0.1931  0.1342 -0.1146
 7033TIP3    H142514   1.403   2.095  15.066  0.3514  0.1721 -0.6469
 7033TIP3    H242515   1.492   2.073  15.186 -0.3230  0.3039 -0.1164
 7034TIP3   OH242516   5.579   1.737  13.807 -0.5684  0.6533 -0.0233
 7034TIP3    H142517   5.526   1.674  13.857 -2.7310  2.3718  0.0213
 7034TIP3    H242518   5.621   1.684  13.739 -0.3437 -1.1832  1.4560
 7035TIP3   OH242519   2.107   2.352   2.385  0.1168  0.0632  0.0120
 7035TIP3    H142520   2.096   2.300   2.464 -0.9473  1.0346  0.5423
 7035TIP3    H242521   2.182   2.408   2.402  0.9558 -0.9132 -0.3659
 7036TIP3   OH242522   4.951   2.901  13.668 -0.4815 -0.0626 -0.0457
 7036TIP3    H142523   4.976   2.967  13.732  2.6145  1.0233 -2.1241
 7036TIP3    H242524   4.905   2.949  13.599  1.8523  0.0996 -1.6047
 7037TIP3   OH242525   6.175   3.400   3.414  0.2505 -0.0289 -0.4370
 7037TIP3    H142526   6.197   3.417   3.505 -1.0359  1.4235 -0.3582
 7037TIP3    H242527   6.222   3.468   3.365  0.7881 -0.6876 -0.8674
 7038TIP3   OH242528   3.102   5.356  10.889  0.3820 -0.4389  0.2095
 7038TIP3    H142529   3.119   5.347  10.795  0.4796  1.1121  0.0566
 7038TIP3    H242530   3.076   5.447  10.900  0.0380 -0.6895  1.6502
 7039TIP3   OH242531   2.567   6.476   1.663 -0.7850 -0.6206  0.5298
 7039TIP3    H142532   2.583   6.513   1.577 -3.0766 -0.5407  0.0675
 7039TIP3    H242533   2.629   6.521   1.721  0.5397 -0.4242 -0.9849
 7040TIP3   OH242534   2.317   2.772   3.030 -0.5567  0.0855  0.3432
 7040TIP3    H142535   2.376   2.840   2.999  1.8355 -1.0158  2.1748
 7040TIP3    H242536   2.370   2.692   3.031 -2.4274 -1.2209  0.9767
 7041TIP3   OH242537   1.467   0.791  13.857  0.2396  0.3724 -0.0598
 7041TIP3    H142538   1.471   0.698  13.837  0.5014 -0.0477  1.7837
 7041TIP3    H242539   1.429   0.831  13.778  0.2973 -1.2508 -0.9469
 7042TIP3   OH242540   6.596   2.425  11.246 -0.1242  0.0182 -0.3251
 7042TIP3    H142541   6.615   2.342  11.201  0.4115 -0.4345  0.7118
 7042TIP3    H242542   6.602   2.491  11.176  0.6434 -0.6699 -0.9403
 7043TIP3   OH242543   6.526   4.486   0.641  0.0935  0.3338  0.2109
 7043TIP3    H142544   6.449   4.523   0.596  0.6918  0.6778 -0.5430
 7043TIP3    H242545   6.512   4.509   0.733 -0.7782  0.2665  0.1086
 7044TIP3   OH242546   0.822   4.350   5.482 -0.0345 -0.2374 -0.3344
 7044TIP3    H142547   0.914   4.326   5.479  0.1735  0.0011  2.0647
 7044TIP3    H242548   0.821   4.444   5.470 -0.2007 -0.4671 -2.4574
 7045TIP3   OH242549   1.486   6.223  13.933  0.3429 -0.5985 -0.6213
 7045TIP3    H142550   1.483   6.319  13.937 -0.1876 -0.6612  1.1865
 7045TIP3    H242551   1.535   6.198  14.012 -1.5048 -1.8955  0.1591
 7046TIP3   OH242552   6.595   6.660   5.380 -0.3027 -0.4021 -0.2374
 7046TIP3    H142553   6.514   6.688   5.338 -1.1926 -1.0494  0.9720
 7046TIP3    H242554   6.616   6.730   5.441  1.4674  0.9603 -2.2443
 7047TIP3   OH242555   0.335   2.574  14.778 -0.0393  0.5208 -0.2286
 7047TIP3    H142556   0.397   2.502  14.778  0.5812  1.0490 -0.2514
 7047TIP3    H242557   0.340   2.610  14.689  0.4497  1.2635  0.0913
 7048TIP3   OH242558   2.019   6.024  17.234 -0.1262 -0.4935  0.7648
 7048TIP3    H142559   2.034   6.117  17.246 -1.3768 -0.2438  0.5110
 7048TIP3    H242560   2.009   6.014  17.139  2.7716 -1.3545  0.4451
 7049TIP3   OH242561   2.630   0.526   4.897  0.4992 -0.0126 -0.2345
 7049TIP3    H142562   2.575   0.579   4.954 -1.0469 -2.5219  0.7933
 7049TIP3    H242563   2.587   0.531   4.811 -0.7892 -1.0387  0.3031
 7050TIP3   OH242564   5.667   0.456   2.570  0.6243 -0.3761  0.0779
 7050TIP3    H142565   5.710   0.537   2.597 -2.6618  1.9471 -1.0008
 7050TIP3    H242566   5.677   0.454   2.475  3.8321 -3.3923  0.2774
 7051TIP3   OH242567   4.459   6.093   4.107  0.6983 -0.1726  0.4271
 7051TIP3    H142568   4.460   5.998   4.118 -1.3575 -0.1511  1.1119
 7051TIP3    H242569   4.418   6.126   4.187  2.2117  1.3907  0.6172
 7052TIP3   OH242570   3.363   5.599   5.837 -0.1376 -0.6989 -0.3194
 7052TIP3    H142571   3.338   5.527   5.895 -1.5127 -0.3866 -0.4843
 7052TIP3    H242572   3.302   5.593   5.763  1.4699 -0.9873 -1.6880
 7053TIP3   OH242573   1.441   4.668   3.493 -0.1151 -0.1130 -0.4077
 7053TIP3    H142574   1.466   4.760   3.491  0.2491 -0.2216 -1.0471
 7053TIP3    H242575   1.345   4.668   3.494 -0.1545  0.2485 -2.2601
 7054TIP3   OH242576   2.601   4.050  11.309  0.6910 -0.2557  0.4680
 7054TIP3    H142577   2.570   4.020  11.223  0.8215 -2.3934  1.0877
 7054TIP3    H242578   2.674   3.991  11.329 -0.2473 -0.7866  2.6447
 7055TIP3   OH242579   1.838   0.715   3.099 -0.8595 -0.0294  0.1551
 7055TIP3    H142580   1.823   0.804   3.132 -0.7393 -0.2610  0.8557
 7055TIP3    H242581   1.912   0.683   3.151  1.2890  0.6176 -2.2874
 7056TIP3   OH242582   6.325   1.486  14.241  0.5303 -0.0487 -0.6669
 7056TIP3    H142583   6.360   1.497  14.153  1.5570  2.2944 -0.0511
 7056TIP3    H242584   6.394   1.519  14.299 -1.7357  2.6888  0.7492
 7057TIP3   OH242585   3.859   3.989   4.253 -0.2772  0.0275 -0.3893
 7057TIP3    H142586   3.851   4.059   4.318  2.7062  1.1228 -1.0336
 7057TIP3    H242587   3.912   3.922   4.296 -1.2547 -0.8785 -0.5437
 7058TIP3   OH242588   0.606   2.095   3.309 -0.5424 -0.7109 -0.5903
 7058TIP3    H142589   0.647   2.132   3.387 -0.3334  0.0474 -1.0502
 7058TIP3    H242590   0.603   2.001   3.326  1.8068 -0.8594 -0.7264
 7059TIP3   OH242591   5.367   5.156   5.203  0.5508 -0.1641  0.5575
 7059TIP3    H142592   5.273   5.163   5.187  0.3855  0.6266  1.7975
 7059TIP3    H242593   5.406   5.216   5.139  0.1858 -0.1279  0.3659
 7060TIP3   OH242594   4.119   4.022  15.410 -0.6061  0.4589 -0.1598
 7060TIP3    H142595   4.064   3.947  15.433 -2.3859  1.6057 -0.4946
 7060TIP3    H242596   4.085   4.095  15.462  1.7267  0.8809  0.9119
 7061TIP3   OH242597   2.982   4.116   1.765 -0.1378  0.1892  0.4967
 7061TIP3    H142598   3.073   4.093   1.782 -0.3835 -1.3821 -0.1946
 7061TIP3    H242599   2.935   4.086   1.842 -0.4402 -1.6437 -0.3515
 7062TIP3   OH242600   1.846   6.490  14.965 -0.0571  0.0129  0.3273
 7062TIP3    H142601   1.769   6.526  14.920  0.0367  1.1586  1.0299
 7062TIP3    H242602   1.907   6.467  14.894 -0.5888  0.1776 -0.1934
 7063TIP3   OH242603   0.133   3.718   5.506  0.4107  0.1349 -0.7215
 7063TIP3    H142604   0.154   3.715   5.413 -2.7318  0.6323 -1.5555
 7063TIP3    H242605   0.098   3.631   5.525 -0.4280  0.5260 -0.4307
 7064TIP3   OH242606   3.191   3.521   5.762 -0.4542 -0.1112 -0.0277
 7064TIP3    H142607   3.184   3.617   5.762  2.0368  0.1502 -0.1143
 7064TIP3    H242608   3.277   3.503   5.800 -0.5971 -2.2949 -0.5800
 7065TIP3   OH242609   2.921   0.293  12.954  0.3851  0.2425 -0.5130
 7065TIP3    H142610   2.885   0.319  13.039 -0.8543  0.1091 -0.9743
 7065TIP3    H242611   2.870   0.217  12.929  0.6810  0.3405 -1.4308
 7066TIP3   OH242612   3.250   2.456   3.537 -0.4026 -0.2736 -0.2128
 7066TIP3    H142613   3.286   2.388   3.481  0.9211 -0.0845  0.3699
 7066TIP3    H242614   3.239   2.413   3.622 -2.2184 -0.5078 -0.5310
 7067TIP3   OH242615   0.197   4.712  16.544  0.3920  0.6817 -0.0302
 7067TIP3    H142616   0.113   4.712  16.590 -0.3866  0.6179 -1.4055
 7067TIP3    H242617   0.255   4.662  16.601 -1.0972 -1.2115 -0.0527
 7068TIP3   OH242618   4.261   6.389  14.189 -0.1996 -0.1402  0.3506
 7068TIP3    H142619   4.343   6.416  14.231  0.8600 -0.2196 -1.5157
 7068TIP3    H242620   4.231   6.467  14.142  0.5322 -0.8933 -1.4940
 7069TIP3   OH242621   0.244   3.433  17.019 -0.1708 -0.2901  0.0279
 7069TIP3    H142622   0.338   3.434  17.001 -0.3417 -0.7703 -0.9755
 7069TIP3    H242623   0.210   3.510  16.973 -0.3083 -0.2871  0.1353
 7070TIP3   OH242624   1.892   2.300   1.689 -0.1674  0.3281  0.0143
 7070TIP3    H142625   1.798   2.284   1.689 -0.2944  0.7250  2.4054
 7070TIP3    H242626   1.903   2.379   1.636 -1.2338  0.4929  0.0177
 7071TIP3   OH242627   2.873   6.379   0.681 -0.5479  0.5544  0.2005
 7071TIP3    H142628   2.840   6.375   0.770 -1.7083 -0.8943 -0.2522
 7071TIP3    H242629   2.830   6.456   0.643 -0.2077  1.0532  0.8235
 7072TIP3   OH242630   3.019   2.313   3.985  0.3393 -0.7455 -0.0719
 7072TIP3    H142631   2.974   2.349   4.062 -1.1437  0.3248 -1.3609
 7072TIP3    H242632   2.985   2.224   3.977  0.0976 -0.6784  0.1838
 7073TIP3   OH242633   2.559   1.606   4.416 -0.0682 -0.0343  0.6628
 7073TIP3    H142634   2.516   1.690   4.410  0.8063  0.4724  1.2223
 7073TIP3    H242635   2.504   1.546   4.365  1.0358  1.5592 -2.7157
 7074TIP3   OH242636   5.200   2.655   1.146  0.2185 -0.2315 -0.0870
 7074TIP3    H142637   5.121   2.678   1.195 -0.8380 -3.2104 -0.1918
 7074TIP3    H242638   5.170   2.638   1.057  0.7367 -2.3464  0.0856
 7075TIP3   OH242639   3.508   4.010  13.271  0.4168  0.0265  0.3347
 7075TIP3    H142640   3.514   3.979  13.362  0.3671 -0.2988  0.2254
 7075TIP3    H242641   3.468   4.097  13.279 -1.5089 -0.8225  0.4830
 7076TIP3   OH242642   1.467   6.652   0.857  0.3541  0.5475 -0.1526
 7076TIP3    H142643   1.440   6.718   0.794  1.3883  1.4437  0.3155
 7076TIP3    H242644   1.448   6.691   0.943 -0.7138 -0.5145  0.1217
 7077TIP3   OH242645   1.489   0.337   3.514  0.5705 -0.4563 -0.0383
 7077TIP3    H142646   1.538   0.354   3.595  1.4990 -2.1406 -0.2014
 7077TIP3    H242647   1.427   0.268   3.538 -1.3186  1.1513 -0.0256
 7078TIP3   OH242648   5.772   5.535   5.388 -0.0413 -0.1731  0.2277
 7078TIP3    H142649   5.828   5.537   5.466  0.7929  0.7453 -0.3681
 7078TIP3    H242650   5.695   5.586   5.412  0.8099  1.2358  0.0410
 7079TIP3   OH242651   4.461   0.051   0.654 -0.1077 -0.2407 -0.2971
 7079TIP3    H142652   4.513   0.017   0.582  0.1273 -0.3343 -0.0834
 7079TIP3    H242653   4.516   0.118   0.694 -1.0682  1.3740 -1.5426
 7080TIP3   OH242654   6.768   2.891  12.390  0.5815 -0.2021 -0.5186
 7080TIP3    H142655   6.682   2.869  12.426  0.7020 -0.9764 -0.6705
 7080TIP3    H242656   6.794   2.970  12.436  0.7351 -1.1597  1.1365
 7081TIP3   OH242657   3.093   4.869  15.159 -0.0433  1.0299 -0.0566
 7081TIP3    H142658   3.047   4.939  15.206  0.8391  2.5615 -1.3942
 7081TIP3    H242659   3.082   4.891  15.067  0.4156 -0.5228 -0.5028
 7082TIP3   OH242660   4.952   4.691   2.012  0.2817 -0.1484  0.2753
 7082TIP3    H142661   4.995   4.771   2.043 -1.3590  0.2561  1.7038
 7082TIP3    H242662   4.957   4.695   1.917  1.1982  1.0883  0.3609
 7083TIP3   OH242663   0.379   3.938   5.257  0.1247 -0.9004  0.6009
 7083TIP3    H142664   0.383   3.994   5.180  1.6350 -3.5527 -1.4426
 7083TIP3    H242665   0.310   3.976   5.312 -1.1734  0.9831 -2.1407
 7084TIP3   OH242666   5.654   4.632  11.003 -0.3672 -0.6965  0.5139
 7084TIP3    H142667   5.729   4.669  11.047 -0.4372 -0.2363  0.2551
 7084TIP3    H242668   5.686   4.550  10.965 -0.0111 -0.5215  0.4373
 7085TIP3   OH242669   0.918   4.833   6.059 -0.8948 -0.1769  0.3721
 7085TIP3    H142670   0.975   4.910   6.055 -1.6605  0.4186  0.4374
 7085TIP3    H242671   0.977   4.759   6.073  0.2393 -0.0890 -3.0215
 7086TIP3   OH242672   3.147   6.556   0.132  1.0395 -0.2565 -0.3151
 7086TIP3    H142673   3.215   6.578   0.070  0.4974 -0.2063 -0.8996
 7086TIP3    H242674   3.108   6.475   0.098  0.7915 -0.2749 -0.0005
 7087TIP3   OH242675   5.952   0.117  13.886  0.0198  0.2873  0.0301
 7087TIP3    H142676   5.897   0.080  13.955  1.6162  0.9250  1.6934
 7087TIP3    H242677   5.959   0.210  13.907  0.0331  0.6324 -1.3769
 7088TIP3   OH242678   3.452   0.127   1.186 -0.3546 -0.0296 -0.2495
 7088TIP3    H142679   3.380   0.099   1.243  0.1727 -0.7625  0.0745
 7088TIP3    H242680   3.412   0.192   1.128 -0.5405  2.1314  2.0950
 7089TIP3   OH242681   1.994   6.230  14.563  0.1930 -0.0107 -0.2062
 7089TIP3    H142682   2.075   6.202  14.606 -0.0172 -0.4693 -0.1045
 7089TIP3    H242683   2.011   6.320  14.536  0.3464  0.2738  0.8091
 7090TIP3   OH242684   3.945   0.917  13.277 -0.3912 -0.1956  0.0896
 7090TIP3    H142685   3.879   0.962  13.330  0.5456  1.6461 -0.2089
 7090TIP3    H242686   4.001   0.873  13.341 -0.3301  0.5016  0.5304
 7091TIP3   OH242687   5.220   0.111   2.678 -0.1619 -0.4434  0.2639
 7091TIP3    H142688   5.292   0.052   2.700 -1.7486 -2.5691  0.0612
 7091TIP3    H242689   5.247   0.152   2.595  1.6174  0.3397  1.1528
 7092TIP3   OH242690   0.988   5.316   3.793 -0.2346 -0.3348 -0.1924
 7092TIP3    H142691   1.018   5.249   3.855  0.5665 -1.3004 -1.5808
 7092TIP3    H242692   1.058   5.382   3.792 -1.0175  0.5673  1.1644
 7093TIP3   OH242693   0.056   6.492  13.704 -0.1617  0.1320  0.1020
 7093TIP3    H142694   0.139   6.520  13.742 -0.0493 -1.0132  0.7470
 7093TIP3    H242695  -0.005   6.491  13.777 -0.5458  0.1875 -0.2123
 7094TIP3   OH242696   2.791   1.191   1.007  0.1948  0.1573 -0.1323
 7094TIP3    H142697   2.860   1.229   0.953 -1.3682  1.3653 -1.4083
 7094TIP3    H242698   2.806   1.097   1.002  1.6886  0.3933 -0.4330
 7095TIP3   OH242699   2.829   4.521  14.327  0.0546 -0.1887 -0.0488
 7095TIP3    H142700   2.789   4.435  14.313 -0.0239 -0.2176  0.3385
 7095TIP3    H242701   2.881   4.537  14.248  0.7084 -0.9408  0.2162
 7096TIP3   OH242702   5.779   1.251  14.266 -1.2058  0.3158  0.0597
 7096TIP3    H142703   5.772   1.204  14.183 -1.6655 -0.5144  0.5607
 7096TIP3    H242704   5.691   1.247  14.303 -1.0728  0.9373  0.4624
 7097TIP3   OH242705   2.946   0.205   3.018  0.3112 -0.8272  0.2689
 7097TIP3    H142706   2.888   0.129   3.022  0.9243 -1.2664  1.0658
 7097TIP3    H242707   2.900   0.272   3.069 -0.7265 -0.2902 -1.3048
 7098TIP3   OH242708   4.051   2.675  16.553 -0.4232  0.4402  0.0662
 7098TIP3    H142709   3.984   2.633  16.608 -2.2307  2.1826 -0.6715
 7098TIP3    H242710   4.063   2.613  16.480 -0.8264 -0.1528  0.4880
 7099TIP3   OH242711   0.684   2.236   4.418  1.0626 -0.3558  0.4679
 7099TIP3    H142712   0.728   2.217   4.335  2.7761  2.2312  0.6665
 7099TIP3    H242713   0.594   2.256   4.393  0.9892 -1.7505 -0.4743
 7100TIP3   OH242714   0.823   3.843  15.022  0.2383 -0.2137 -0.1577
 7100TIP3    H142715   0.905   3.872  14.982  0.2110 -0.7001 -0.5806
 7100TIP3    H242716   0.850   3.781  15.090  0.2469  0.0082  0.0409
 7101TIP3   OH242717   6.419   5.215   3.625  0.1857 -0.0106 -0.3965
 7101TIP3    H142718   6.421   5.132   3.672  3.3686 -0.1734 -0.5606
 7101TIP3    H242719   6.448   5.280   3.689  0.3387  0.4945 -0.9657
 7102TIP3   OH242720   2.417   5.687   3.092 -0.2727  0.5406  0.0965
 7102TIP3    H142721   2.436   5.682   3.186  2.1871 -0.0368 -0.3526
 7102TIP3    H242722   2.489   5.639   3.051 -1.2887  0.7882 -2.1033
 7103TIP3   OH242723   1.622   0.953   5.473  0.3794  0.3073  0.4697
 7103TIP3    H142724   1.646   0.869   5.510  0.5641  0.4545  0.6822
 7103TIP3    H242725   1.543   0.935   5.421  0.3597  0.0257  0.5991
 7104TIP3   OH242726   2.696   3.252  16.745 -0.5772  0.0501 -0.3811
 7104TIP3    H142727   2.627   3.281  16.806  0.4267  0.6411  0.5123
 7104TIP3    H242728   2.730   3.172  16.784 -0.4172  0.0411 -0.5420
 7105TIP3   OH242729   2.761   0.642  13.431 -0.1054  0.2282 -0.6746
 7105TIP3    H142730   2.815   0.632  13.353  0.4017  1.3151 -0.4751
 7105TIP3    H242731   2.815   0.608  13.503  0.0884  0.7433 -0.5679
 7106TIP3   OH242732   4.240   2.250  13.074  0.0767  0.0792 -0.3572
 7106TIP3    H142733   4.329   2.266  13.108 -0.3753 -0.7290  1.2978
 7106TIP3    H242734   4.254   2.195  12.997  0.9966 -0.4213  0.1461
 7107TIP3   OH242735   1.946   5.470   5.584  0.6822 -0.2823 -0.5052
 7107TIP3    H142736   1.908   5.556   5.566 -2.1915 -1.2750  0.2662
 7107TIP3    H242737   1.888   5.409   5.539  1.9689 -1.9165 -0.0365
 7108TIP3   OH242738   0.847   3.838  16.192  0.2054  0.0651 -0.1650
 7108TIP3    H142739   0.840   3.893  16.270  0.8513  1.0772 -0.8073
 7108TIP3    H242740   0.866   3.899  16.121 -0.9543 -0.7713 -1.2339
 7109TIP3   OH242741   2.398   1.717  15.386  0.5201 -0.2141 -0.0337
 7109TIP3    H142742   2.366   1.798  15.345 -0.6196  0.1520  1.4952
 7109TIP3    H242743   2.357   1.647  15.334 -1.4907  0.2449  0.8325
 7110TIP3   OH242744   4.027   1.680   4.694 -0.4503 -0.4416  0.5514
 7110TIP3    H142745   3.979   1.600   4.713 -1.8109  0.6480  1.9547
 7110TIP3    H242746   3.959   1.747   4.686  0.7026  0.7255  0.2175
 7111TIP3   OH242747   1.428   6.591  16.414  0.2107  0.0871 -0.1600
 7111TIP3    H142748   1.379   6.513  16.442  0.6285 -0.9047 -2.0088
 7111TIP3    H242749   1.440   6.642  16.494  0.8195 -2.2480  1.3300
 7112TIP3   OH242750   1.699   5.468   0.972  0.5902  0.2026 -0.0251
 7112TIP3    H142751   1.726   5.408   1.041  1.9135 -0.6130 -1.1778
 7112TIP3    H242752   1.610   5.493   0.994  0.3015 -1.5541  0.9324
 7113TIP3   OH242753   1.690   2.574  16.327  0.3034  0.3025  0.1709
 7113TIP3    H142754   1.634   2.652  16.322  1.0026  0.7649 -0.9032
 7113TIP3    H242755   1.634   2.507  16.365 -0.7152  0.9925 -0.0573
 7114TIP3   OH242756   3.901   1.404  16.625  0.2963  0.0263 -0.3366
 7114TIP3    H142757   3.978   1.459  16.637  0.0607  0.5677 -1.2305
 7114TIP3    H242758   3.842   1.456  16.572 -0.2038 -0.8334 -0.6497
 7115TIP3   OH242759   6.363   3.128   2.898 -0.1463 -0.5073 -0.1766
 7115TIP3    H142760   6.339   3.209   2.944 -0.7321  0.1307 -1.5493
 7115TIP3    H242761   6.290   3.068   2.915 -0.4455 -0.2153 -0.4160
 7116TIP3   OH242762   5.493   0.636  10.684  0.1810 -0.3501  0.4473
 7116TIP3    H142763   5.585   0.608  10.679  0.4698  0.6534  0.0684
 7116TIP3    H242764   5.446   0.568  10.636  0.8630 -0.2803 -0.3548
 7117TIP3   OH242765   2.031   2.788  12.653 -0.4759 -0.4788 -0.1389
 7117TIP3    H142766   2.029   2.858  12.589  0.3594 -1.9128 -1.8273
 7117TIP3    H242767   2.089   2.820  12.722  0.6110  0.1502 -1.3123
 7118TIP3   OH242768   3.974   2.037   1.083 -0.2712  0.1918  0.6236
 7118TIP3    H142769   4.030   2.090   1.026 -1.7328 -0.4273 -1.5260
 7118TIP3    H242770   4.034   1.997   1.145  0.9701  4.0262  2.2054
 7119TIP3   OH242771   4.833   0.005  13.402 -0.2442  0.5032  0.9901
 7119TIP3    H142772   4.898   0.070  13.377  1.4680 -1.6652 -0.6398
 7119TIP3    H242773   4.869  -0.037  13.480 -1.5306  1.6735  2.2753
 7120TIP3   OH242774   5.060   5.845  11.896  0.5032  0.0126 -0.6852
 7120TIP3    H142775   5.087   5.934  11.915  1.3410 -0.5603  1.0100
 7120TIP3    H242776   5.137   5.791  11.916 -0.5369 -1.2498  0.1389
 7121TIP3   OH242777   0.854   3.653   3.914 -0.2603 -0.1107  0.4075
 7121TIP3    H142778   0.908   3.588   3.870  2.0898  2.3305 -0.6227
 7121TIP3    H242779   0.846   3.621   4.004  0.0893 -2.1780 -0.2399
 7122TIP3   OH242780   2.760   0.177  16.816 -0.3148 -0.7014 -0.0547
 7122TIP3    H142781   2.790   0.096  16.776 -1.7085 -0.8206 -0.9212
 7122TIP3    H242782   2.759   0.240  16.745  1.8416  0.4579  0.8202
 7123TIP3   OH242783   3.105   5.233   4.765 -0.4701 -0.9080 -0.8771
 7123TIP3    H142784   3.033   5.287   4.733  0.3260  1.2043  0.6991
 7123TIP3    H242785   3.184   5.280   4.738  0.2367 -0.9820  0.9393
 7124TIP3   OH242786   5.555   4.885  12.300 -0.2748  0.1043  0.0391
 7124TIP3    H142787   5.486   4.916  12.242  1.3475  1.3027 -1.3625
 7124TIP3    H242788   5.553   4.789  12.291 -2.8556 -0.0613  1.4442
 7125TIP3   OH242789   4.067   5.591  11.678 -0.0721 -0.1290  0.5486
 7125TIP3    H142790   3.999   5.656  11.658 -0.6573 -0.7046  0.6136
 7125TIP3    H242791   4.138   5.641  11.718 -0.4088  0.5057  0.3531
 7126TIP3   OH242792   2.968   4.353   4.180  0.0661 -0.5251  0.6257
 7126TIP3    H142793   2.989   4.274   4.231  0.8336 -0.7226  0.0249
 7126TIP3    H242794   2.872   4.357   4.181  0.0582 -0.7741  1.6972
 7127TIP3   OH242795   5.928   0.227   0.443 -0.3239 -0.1145  0.1690
 7127TIP3    H142796   5.979   0.191   0.371  0.1342 -1.0846  0.9590
 7127TIP3    H242797   5.988   0.286   0.488 -0.4066 -0.0196  0.1561
 7128TIP3   OH242798   0.331   3.636  13.266 -0.1940 -0.1210  0.1389
 7128TIP3    H142799   0.242   3.602  13.276  0.0024 -0.6267  0.2082
 7128TIP3    H242800   0.341   3.699  13.337 -1.0983  1.2461 -0.9129
 7129TIP3   OH242801   0.145   0.941  12.252  0.7905 -0.0757 -0.1640
 7129TIP3    H142802   0.054   0.932  12.223  0.8103  0.2184 -0.3225
 7129TIP3    H242803   0.194   0.879  12.198  0.6253 -0.5491  0.2192
 7130TIP3   OH242804   4.006   5.907   3.584  0.5532 -0.3365 -0.2035
 7130TIP3    H142805   3.931   5.868   3.540 -0.0388  0.3053  0.2153
 7130TIP3    H242806   4.003   5.872   3.673 -0.2231  0.9283  0.3005
 7131TIP3   OH242807   4.748   0.768   4.361  0.1974  0.0325 -0.3839
 7131TIP3    H142808   4.763   0.741   4.270  0.8964  0.5587 -0.4329
 7131TIP3    H242809   4.761   0.863   4.360  0.9199 -0.0465  0.3946
 7132TIP3   OH242810   3.043   1.978  13.322  0.4859 -0.5276  0.8224
 7132TIP3    H142811   3.132   1.965  13.289  0.9508  0.1541  1.7515
 7132TIP3    H242812   3.052   2.047  13.388 -1.0431  0.9140 -0.4014
 7133TIP3   OH242813   6.656   3.075  16.228  0.5646 -0.4839  0.2083
 7133TIP3    H142814   6.722   3.143  16.215  1.9673 -1.8019  0.0689
 7133TIP3    H242815   6.573   3.118  16.213  1.3856  1.2706  0.4731
 7134TIP3   OH242816   4.729   2.959  16.188 -0.2733 -0.2747 -0.1229
 7134TIP3    H142817   4.721   2.937  16.281  0.8854  1.5640  0.4479
 7134TIP3    H242818   4.660   3.024  16.173  0.7879  0.8871 -0.0501
 7135TIP3   OH242819   2.347   3.547  12.655 -0.2532 -0.4049  0.1597
 7135TIP3    H142820   2.408   3.506  12.717 -0.6125 -0.5025  0.4494
 7135TIP3    H242821   2.398   3.619  12.617 -0.0255 -0.3428  0.5644
 7136TIP3   OH242822   2.747   0.110  16.096  0.5116 -0.4203 -0.7559
 7136TIP3    H142823   2.769   0.019  16.119  0.4034  0.0069  1.1815
 7136TIP3    H242824   2.793   0.163  16.160  1.3150  0.9846 -2.4367
 7137TIP3   OH242825   3.384   5.409   3.512  0.1258 -0.3990  0.2411
 7137TIP3    H142826   3.372   5.481   3.574 -0.4305 -0.5475  0.3080
 7137TIP3    H242827   3.296   5.389   3.481 -0.1298 -2.7855  2.1640
 7138TIP3   OH242828   1.520   6.294   2.651  0.2160 -0.8398  0.3929
 7138TIP3    H142829   1.560   6.211   2.679  2.4893 -0.5762 -1.7488
 7138TIP3    H242830   1.593   6.356   2.649 -0.6588  0.2248 -1.6356
 7139TIP3   OH242831   1.451   3.757  15.329  0.1084  0.7197 -0.1059
 7139TIP3    H142832   1.490   3.835  15.290  0.5602  1.1404  1.1490
 7139TIP3    H242833   1.441   3.696  15.256  1.6439  1.1971 -0.7401
 7140TIP3   OH242834   2.945   3.040   1.608 -0.2004  0.0331 -0.5952
 7140TIP3    H142835   3.019   2.982   1.627 -0.7225 -0.5340 -0.2323
 7140TIP3    H242836   2.985   3.123   1.584  0.5662 -0.5112 -1.2385
 7141TIP3   OH242837   2.988   5.069  15.530  0.2042  0.7063 -0.4177
 7141TIP3    H142838   2.945   5.096  15.611  1.1555 -0.9611  0.7075
 7141TIP3    H242839   2.921   5.023  15.480  0.2348 -0.4635  0.5858
 7142TIP3   OH242840   5.885   4.656   1.070 -0.2782 -0.6192 -0.2922
 7142TIP3    H142841   5.881   4.572   1.024 -0.0875 -1.0435  0.4565
 7142TIP3    H242842   5.927   4.636   1.153 -0.2050  0.2283 -0.1173
 7143TIP3   OH242843   1.161   4.598  16.642  0.2418  0.3456  0.0402
 7143TIP3    H142844   1.126   4.558  16.722 -0.5555  1.7116  0.4178
 7143TIP3    H242845   1.243   4.639  16.669 -1.6194  3.8185  1.1595
 7144TIP3   OH242846   0.104   6.338   1.761 -0.5244 -0.1718 -0.4135
 7144TIP3    H142847   0.106   6.262   1.702  0.4536 -0.1409 -0.4300
 7144TIP3    H242848   0.013   6.342   1.791 -1.0858 -0.1173 -2.0013
 7145TIP3   OH242849   6.528   2.927   4.903 -0.3191 -0.2828 -0.3943
 7145TIP3    H142850   6.474   2.864   4.951  0.1135 -0.0200  0.4443
 7145TIP3    H242851   6.464   2.982   4.857 -0.7525 -0.3868  0.0709
 7146TIP3   OH242852   5.739   1.890  17.126  0.2057 -0.2016 -0.7492
 7146TIP3    H142853   5.801   1.819  17.141 -1.0261 -1.1932 -0.1503
 7146TIP3    H242854   5.760   1.954  17.194  0.8956 -0.2738 -0.8827
 7147TIP3   OH242855   4.767   4.563   2.673 -0.0703 -0.5670  0.4662
 7147TIP3    H142856   4.810   4.648   2.664 -1.3468  0.3622  2.4391
 7147TIP3    H242857   4.818   4.518   2.740 -0.8687 -0.3267  1.2458
 7148TIP3   OH242858   0.451   2.551   5.423 -0.5249 -0.0378 -0.2865
 7148TIP3    H142859   0.434   2.475   5.368 -1.3586  0.6410 -0.9855
 7148TIP3    H242860   0.434   2.626   5.367  1.2872  0.6895  0.0854
 7149TIP3   OH242861   2.192   0.598  13.548 -0.2677 -0.1318 -1.0579
 7149TIP3    H142862   2.161   0.508  13.538  1.4251 -1.1583  1.8052
 7149TIP3    H242863   2.164   0.624  13.636  2.1314  0.8426 -0.4943
 7150TIP3   OH242864   0.772   3.492   0.137  0.6028 -0.7811 -0.3761
 7150TIP3    H142865   0.731   3.546   0.069 -2.6847 -0.8348  1.3689
 7150TIP3    H242866   0.776   3.550   0.214 -1.7232 -2.4377  1.1402
 7151TIP3   OH242867   2.524   5.232   3.721 -0.5007 -0.9250 -0.1243
 7151TIP3    H142868   2.539   5.147   3.680  0.9842 -0.5023 -0.5185
 7151TIP3    H242869   2.596   5.241   3.784 -1.8865 -0.9014  1.5032
 7152TIP3   OH242870   3.295   5.833  16.474 -0.0995 -0.4156  0.4125
 7152TIP3    H142871   3.277   5.878  16.392 -0.5708 -0.1717  0.6429
 7152TIP3    H242872   3.304   5.903  16.539  2.8886 -0.4167  0.1489
 7153TIP3   OH242873   2.406   4.076  14.967 -0.4678  0.0581  0.2923
 7153TIP3    H142874   2.435   4.168  14.966  2.1433 -0.6680 -0.1931
 7153TIP3    H242875   2.385   4.057  14.876 -0.1121 -0.0429  0.2268
 7154TIP3   OH242876   6.362   1.708   1.932 -0.1860 -0.1672  0.8230
 7154TIP3    H142877   6.267   1.719   1.940 -0.0227  1.2525  1.1191
 7154TIP3    H242878   6.383   1.635   1.990 -1.1830 -1.0158  0.1518
 7155TIP3   OH242879   4.328   6.107   5.632 -0.2068  0.6368  0.2138
 7155TIP3    H142880   4.367   6.114   5.545 -0.6070 -0.3600 -0.0578
 7155TIP3    H242881   4.292   6.194   5.649  1.0331  1.2192 -0.0474
 7156TIP3   OH242882   3.482   4.050   0.174 -0.7024 -0.6941 -0.6910
 7156TIP3    H142883   3.430   4.128   0.155  1.6140  1.0379 -0.3892
 7156TIP3    H242884   3.488   4.047   0.269 -0.9002 -1.3521 -0.6918
 7157TIP3   OH242885   5.499   2.430  16.722  0.2645  0.2547  0.2428
 7157TIP3    H142886   5.551   2.354  16.697 -2.0832 -1.2000 -0.4175
 7157TIP3    H242887   5.499   2.429  16.818 -0.1930 -0.8941  0.2359
 7158TIP3   OH242888   1.565   2.440   0.114  0.5378 -0.2495  0.0692
 7158TIP3    H142889   1.478   2.480   0.109  0.1920 -1.0604 -0.8877
 7158TIP3    H242890   1.570   2.405   0.203  0.1531  0.3706  0.3441
 7159TIP3   OH242891   4.266   4.713   3.300 -0.2292 -0.0489  0.2108
 7159TIP3    H142892   4.349   4.752   3.276  0.0776  1.8258  3.6781
 7159TIP3    H242893   4.288   4.649   3.368 -1.1475 -3.9125 -2.7580
 7160TIP3   OH242894   0.895   2.495  14.564 -0.3073  0.0733  0.0596
 7160TIP3    H142895   0.970   2.548  14.592 -0.3933  1.7243 -2.5427
 7160TIP3    H242896   0.818   2.543  14.596 -0.3233 -0.4944  0.8989
 7161TIP3   OH242897   6.354   4.600   4.820 -0.8747 -0.1348  0.5734
 7161TIP3    H142898   6.303   4.522   4.845 -1.1598 -0.0747  0.1855
 7161TIP3    H242899   6.425   4.603   4.884 -1.7920  0.2205  1.6037
 7162TIP3   OH242900   6.184   3.124  11.997  0.0665 -0.0700 -0.1165
 7162TIP3    H142901   6.202   3.086  12.083  1.7928 -1.1874 -0.9152
 7162TIP3    H242902   6.097   3.090  11.973 -0.1984 -0.1621  0.9487
 7163TIP3   OH242903   0.751   5.550  15.022  0.1141  0.2492 -0.4764
 7163TIP3    H142904   0.665   5.549  15.065  1.8774 -4.2998  3.7442
 7163TIP3    H242905   0.744   5.482  14.955  0.6884 -1.1540  0.8327
 7164TIP3   OH242906   1.128   1.362  14.305  0.4093 -0.8007 -0.4187
 7164TIP3    H142907   1.144   1.435  14.246 -1.4199  0.3530  0.4264
 7164TIP3    H242908   1.059   1.311  14.261 -0.5153 -0.2769  0.3860
 7165TIP3   OH242909   5.390   5.156   6.386 -0.4245 -0.1209 -0.1395
 7165TIP3    H142910   5.418   5.093   6.453 -0.1180  0.4073  0.2325
 7165TIP3    H242911   5.439   5.235   6.405 -0.0382 -0.0742 -1.2238
 7166TIP3   OH242912   4.275   3.371  16.127  0.1878  0.5481 -0.2484
 7166TIP3    H142913   4.201   3.311  16.119  1.5670 -1.0545 -2.2069
 7166TIP3    H242914   4.300   3.366  16.219  0.2803 -2.0144 -0.3309
 7167TIP3   OH242915   6.457   5.013   3.781  0.1991 -0.1791 -0.0273
 7167TIP3    H142916   6.381   4.979   3.828  1.2495 -1.0449  1.1182
 7167TIP3    H242917   6.513   5.051   3.849  0.1829  1.7363 -1.0089
 7168TIP3   OH242918   2.924   4.772  12.366 -0.4693  0.0807  0.0106
 7168TIP3    H142919   2.831   4.769  12.390 -1.1967  0.8889 -2.3517
 7168TIP3    H242920   2.955   4.683  12.382 -1.8810 -0.4248  0.1123
 7169TIP3   OH242921   6.119   6.224   4.732  0.4475 -0.2414  0.5415
 7169TIP3    H142922   6.212   6.219   4.708 -0.1344  0.2904 -2.1552
 7169TIP3    H242923   6.109   6.310   4.772  0.8713  0.3720 -0.6136
 7170TIP3   OH242924   4.946   0.438  13.168 -0.1252  0.0575 -0.1174
 7170TIP3    H142925   4.995   0.376  13.114 -1.6869 -0.3999 -1.0862
 7170TIP3    H242926   4.913   0.503  13.106 -0.1986  0.7270  0.6080
 7171TIP3   OH242927   4.250   2.534  12.931 -0.2557  0.0351 -0.5866
 7171TIP3    H142928   4.228   2.579  13.012 -0.9036 -2.5000  0.7583
 7171TIP3    H242929   4.188   2.461  12.926  0.1190 -0.2127 -3.0972
 7172TIP3   OH242930   1.980   1.609  11.650 -0.0599 -0.1502 -0.0626
 7172TIP3    H142931   1.887   1.633  11.651 -0.1079 -0.3329 -0.3156
 7172TIP3    H242932   1.982   1.519  11.618  0.2086 -0.1320 -0.0991
 7173TIP3   OH242933   2.644   6.490   1.036  0.0274 -0.2351  0.4551
 7173TIP3    H142934   2.627   6.444   1.118  2.4878  0.3721  1.3960
 7173TIP3    H242935   2.672   6.421   0.975 -1.5735 -0.6541  0.1506
 7174TIP3   OH242936   0.249   2.388  15.486 -0.8729 -0.1542  0.0512
 7174TIP3    H142937   0.163   2.415  15.451 -0.1800  0.4442 -1.2783
 7174TIP3    H242938   0.298   2.362  15.408 -0.3062 -1.8644  0.9523
 7175TIP3   OH242939   5.220   0.179   6.369  0.1087  0.0633  0.1841
 7175TIP3    H142940   5.127   0.156   6.375  0.1058 -1.4203 -3.1416
 7175TIP3    H242941   5.222   0.256   6.312  0.9664 -1.3433 -1.7847
 7176TIP3   OH242942   1.320   2.373  13.465 -0.6475  0.3512 -0.1454
 7176TIP3    H142943   1.369   2.388  13.384  0.3755  0.1180  0.4200
 7176TIP3    H242944   1.333   2.452  13.517 -1.3759  0.5378 -0.2335
 7177TIP3   OH242945   2.782   5.613  14.458  0.1257  0.0164  0.6457
 7177TIP3    H142946   2.733   5.598  14.378 -0.8747  1.7340  0.8943
 7177TIP3    H242947   2.874   5.605  14.431 -0.2162 -1.2684 -0.2425
 7178TIP3   OH242948   2.267   5.299   4.115 -0.4619 -0.3650  0.5880
 7178TIP3    H142949   2.245   5.353   4.039 -0.6526  0.6761  1.3563
 7178TIP3    H242950   2.359   5.278   4.104 -0.0048  1.3111  0.9639
 7179TIP3   OH242951   5.997   5.551   6.227  0.8212 -0.1200  0.1346
 7179TIP3    H142952   6.070   5.495   6.253  0.8467 -0.5468 -0.8004
 7179TIP3    H242953   6.038   5.625   6.182  0.7546  0.3953  0.9018
 7180TIP3   OH242954   6.105   3.759   6.366  0.3232  0.2349 -0.3986
 7180TIP3    H142955   6.150   3.838   6.395 -0.3628  0.4095  0.2288
 7180TIP3    H242956   6.139   3.689   6.423 -0.4220  0.4292  0.3125
 7181TIP3   OH242957   0.443   2.741  13.516 -0.6061  0.2606 -0.5550
 7181TIP3    H142958   0.373   2.756  13.453 -1.6944 -1.2746  0.2488
 7181TIP3    H242959   0.463   2.648  13.509  0.8790  0.5266 -0.2621
 7182TIP3   OH242960   6.253   6.162  17.137  0.1614  0.1378 -0.1216
 7182TIP3    H142961   6.241   6.254  17.114  0.2967  0.2297  0.1794
 7182TIP3    H242962   6.340   6.158  17.175 -0.2773  0.0904  0.9210
 7183TIP3   OH242963   3.118   3.222  10.812  0.0573  0.4301  0.1173
 7183TIP3    H142964   3.104   3.260  10.725 -0.0856 -0.9503 -0.4908
 7183TIP3    H242965   3.144   3.296  10.866 -0.2937  1.4018 -0.9909
 7184TIP3   OH242966   2.110   6.139  15.874 -0.7324  0.1530  0.4689
 7184TIP3    H142967   2.096   6.051  15.842 -0.1633  0.3926 -0.4879
 7184TIP3    H242968   2.071   6.140  15.962  1.1913 -1.7043  1.4545
 7185TIP3   OH242969   3.249   5.875   0.637  0.3958  0.0594  0.3924
 7185TIP3    H142970   3.192   5.803   0.612  1.8220 -0.8458 -0.4501
 7185TIP3    H242971   3.221   5.949   0.583  0.7028 -0.6885 -0.8284
 7186TIP3   OH242972   3.198   0.545  13.017  0.3415  0.0485  0.0123
 7186TIP3    H142973   3.230   0.627  13.055 -0.6082  0.9399 -1.0292
 7186TIP3    H242974   3.198   0.561  12.922  0.5162 -1.3103 -0.2453
 7187TIP3   OH242975   0.732   5.401   2.712 -0.0923 -0.1000 -0.2230
 7187TIP3    H142976   0.755   5.484   2.671 -0.2819 -0.1851 -0.5082
 7187TIP3    H242977   0.788   5.395   2.789 -0.9586  0.8865  0.5145
 7188TIP3   OH242978   5.129   1.430   4.640  0.0322 -0.0340 -0.1904
 7188TIP3    H142979   5.216   1.392   4.654 -0.0874 -0.0864  0.4677
 7188TIP3    H242980   5.146   1.513   4.597  0.6164  1.0627  1.9924
 7189TIP3   OH242981   0.389   1.632   2.271  0.1286  0.0114  0.4446
 7189TIP3    H142982   0.482   1.639   2.251  0.0445 -0.9536 -0.3424
 7189TIP3    H242983   0.344   1.672   2.196 -0.1226 -1.3286 -0.1502
 7190TIP3   OH242984   1.950   2.946   5.694  0.0666 -0.0464 -0.7753
 7190TIP3    H142985   1.981   2.906   5.775  2.1981  1.0177 -1.0061
 7190TIP3    H242986   1.942   2.872   5.633  3.8030 -0.3279 -1.1594
 7191TIP3   OH242987   6.659   1.587  10.936 -0.2924 -0.0779 -0.1495
 7191TIP3    H142988   6.648   1.503  10.891  0.3230 -0.2856  0.0667
 7191TIP3    H242989   6.703   1.643  10.872 -0.3356 -0.0535 -0.1579
 7192TIP3   OH242990   2.548   2.352   1.170 -0.9342 -0.1436  0.0863
 7192TIP3    H142991   2.528   2.338   1.078 -0.4371  2.1476 -0.4298
 7192TIP3    H242992   2.466   2.384   1.208 -0.5556  1.1710 -0.1373
 7193TIP3   OH242993   2.199   1.861  14.419  0.2479 -0.1011  0.0308
 7193TIP3    H142994   2.116   1.817  14.402  1.0906 -1.6074 -0.4174
 7193TIP3    H242995   2.178   1.929  14.483 -1.7517  1.1238 -1.8109
 7194TIP3   OH242996   2.403   5.505  15.452  0.4260 -0.2413 -0.1659
 7194TIP3    H142997   2.345   5.474  15.382 -1.3821  0.8133  0.8162
 7194TIP3    H242998   2.405   5.432  15.515 -0.2789 -0.0869  0.0441
 7195TIP3   OH242999   2.317   0.178   4.711 -0.7262 -0.3374 -0.0881
 7195TIP3    H143000   2.284   0.243   4.773 -1.6132 -0.7619 -0.0942
 7195TIP3    H243001   2.251   0.109   4.712  0.1135 -1.1627 -0.2024
 7196TIP3   OH243002   2.567   5.519   1.818 -0.2921 -0.0734 -0.1163
 7196TIP3    H143003   2.510   5.507   1.894 -0.4203 -1.1195 -0.3626
 7196TIP3    H243004   2.617   5.438   1.812  0.3619  0.3557 -0.6191
 7197TIP3   OH243005   5.247   2.780   1.467  0.0799  0.2068  0.0766
 7197TIP3    H143006   5.211   2.748   1.385  0.0309 -0.7286  0.4428
 7197TIP3    H243007   5.174   2.824   1.510 -0.2807 -0.5297  0.2326
 7198TIP3   OH243008   5.669   2.993   3.106 -0.4337 -0.2607 -0.2804
 7198TIP3    H143009   5.689   3.011   3.197  0.4678 -1.8616 -0.1228
 7198TIP3    H243010   5.573   2.988   3.103 -0.5915  1.7026  0.1518
 7199TIP3   OH243011   4.408   6.409   4.660  0.1506  0.3933 -0.1308
 7199TIP3    H143012   4.333   6.455   4.621 -0.0879  1.8466  1.8992
 7199TIP3    H243013   4.386   6.316   4.650 -1.9559  0.7721  0.4340
 7200TIP3   OH243014   0.913   2.935   2.228 -0.6324  0.2932 -0.2862
 7200TIP3    H143015   0.860   2.863   2.194  1.1478  0.0208 -2.8423
 7200TIP3    H243016   0.866   3.014   2.202 -3.0430  0.2462  3.2793
 7201TIP3   OH243017   2.371   0.816  11.295 -0.4273  0.7706 -0.0554
 7201TIP3    H143018   2.462   0.837  11.312  0.0079 -1.8702  1.3904
 7201TIP3    H243019   2.323   0.853  11.369 -0.2552  0.4831  0.2010
 7202TIP3   OH243020   3.886   2.108  15.947  0.5684  0.3228  0.4836
 7202TIP3    H143021   3.974   2.074  15.931  0.2825 -1.1198  1.8327
 7202TIP3    H243022   3.900   2.182  16.007  0.9547  1.0182 -0.4283
 7203TIP3   OH243023   3.448   3.699  14.096  0.3395  0.4192 -0.3603
 7203TIP3    H143024   3.466   3.610  14.129 -0.5153 -0.1257 -1.3058
 7203TIP3    H243025   3.383   3.734  14.156  0.3406  0.2311 -0.2456
 7204TIP3   OH243026   1.623   0.278  13.309  0.0874 -0.7171  0.6270
 7204TIP3    H143027   1.713   0.258  13.283  0.2823  0.4437  0.3778
 7204TIP3    H243028   1.607   0.366  13.276 -1.6956 -1.4879 -0.7525
 7205TIP3   OH243029   0.570   1.315   4.216 -0.3677  0.0741 -0.1368
 7205TIP3    H143030   0.495   1.260   4.237  0.2408 -0.8960 -0.4305
 7205TIP3    H243031   0.588   1.365   4.296 -1.8510  0.9704 -0.3346
 7206TIP3   OH243032   6.578   2.712   0.515 -0.2898  0.3672  0.0486
 7206TIP3    H143033   6.662   2.686   0.476  0.5308  1.1060  1.2417
 7206TIP3    H243034   6.543   2.630   0.551  0.6709  0.2922  0.8754
 7207TIP3   OH243035   0.892   5.787  13.512  0.2087  0.1033  0.5323
 7207TIP3    H143036   0.938   5.707  13.540 -0.0394 -0.2229  0.0317
 7207TIP3    H243037   0.913   5.852  13.579  1.1378 -0.1332  0.4814
 7208TIP3   OH243038   5.028   1.770  15.898  0.1422 -0.1752 -0.5739
 7208TIP3    H143039   5.006   1.755  15.806  1.8058 -0.1412 -1.0181
 7208TIP3    H243040   5.041   1.865  15.905  2.1306 -0.3765 -0.8692
 7209TIP3   OH243041   1.872   5.325  14.999 -0.1397 -0.0374  0.1071
 7209TIP3    H143042   1.828   5.410  14.987  0.7571  0.4937  0.4615
 7209TIP3    H243043   1.835   5.269  14.932 -1.1924  0.4593  0.2529
 7210TIP3   OH243044   3.755   6.022  11.597  0.0821  0.1791 -0.6528
 7210TIP3    H143045   3.687   6.075  11.556 -1.2862  0.5846  1.9416
 7210TIP3    H243046   3.744   6.037  11.691  2.1083 -1.7680 -0.0154
 7211TIP3   OH243047   5.366   6.567  15.134 -0.4415 -0.2647  0.0637
 7211TIP3    H143048   5.432   6.611  15.189 -0.0305  2.0131 -2.0332
 7211TIP3    H243049   5.293   6.628  15.132 -1.3843 -1.3796 -0.0848
 7212TIP3   OH243050   4.783   0.882   4.962 -0.2591  0.3394 -0.2205
 7212TIP3    H143051   4.834   0.872   4.881  0.0823  0.2639  0.0032
 7212TIP3    H243052   4.720   0.810   4.960 -1.6062  1.4875 -1.4077
 7213TIP3   OH243053   3.841   2.875  13.551 -0.4229  0.2330 -0.5451
 7213TIP3    H143054   3.880   2.914  13.473 -1.1532  1.7781 -0.1798
 7213TIP3    H243055   3.770   2.820  13.517 -0.1542  0.1771 -1.0258
 7214TIP3   OH243056   6.022   0.772   3.386 -0.2788 -0.1104  0.3139
 7214TIP3    H143057   6.079   0.835   3.344 -1.0968  0.6378  0.3046
 7214TIP3    H243058   6.051   0.771   3.478 -0.1958  0.1929  0.2907
 7215TIP3   OH243059   1.055   1.137   5.773  0.6582  0.0584 -0.0015
 7215TIP3    H143060   1.019   1.053   5.744 -0.0895  0.3445  0.0630
 7215TIP3    H243061   0.980   1.196   5.774  1.4997  1.2491 -1.9148
 7216TIP3   OH243062   5.831   3.766   3.240 -0.0079 -0.5276  1.0897
 7216TIP3    H143063   5.820   3.856   3.269  0.9375 -0.3955  1.0675
 7216TIP3    H243064   5.925   3.756   3.227 -0.2689 -0.9105 -0.8598
 7217TIP3   OH243065   0.398   2.364  13.965  0.6391 -0.4649 -0.0164
 7217TIP3    H143066   0.449   2.425  13.912  1.1601 -0.1575  0.8106
 7217TIP3    H243067   0.463   2.317  14.017  0.0769  0.3796  1.5157
 7218TIP3   OH243068   2.652   2.244   2.707 -0.7245  0.2094  0.0894
 7218TIP3    H143069   2.647   2.290   2.623  2.1236 -1.1879 -0.9954
 7218TIP3    H243070   2.731   2.279   2.748 -0.6293 -0.9933  0.9797
 7219TIP3   OH243071   0.104   3.718  12.113 -0.1827  1.1557  0.4134
 7219TIP3    H143072   0.155   3.791  12.147  0.1609  0.8517  0.5581
 7219TIP3    H243073   0.045   3.758  12.049 -0.3294  1.6271  0.8294
 7220TIP3   OH243074   3.906   2.902  15.214 -0.3609  0.3038  0.0504
 7220TIP3    H143075   3.967   2.831  15.194 -0.3486  0.1473  0.6427
 7220TIP3    H243076   3.920   2.965  15.143  1.2922  0.7836  0.7348
 7221TIP3   OH243077   3.772   6.421   1.192 -0.4451 -0.1988 -0.3792
 7221TIP3    H143078   3.781   6.399   1.284 -2.5500 -0.4835 -0.1947
 7221TIP3    H243079   3.771   6.336   1.147  0.4565 -0.0666 -0.6802
 7222TIP3   OH243080   1.832   4.543  17.139 -0.0791 -0.5107 -0.6841
 7222TIP3    H143081   1.767   4.601  17.098 -0.7672 -1.1150 -0.4721
 7222TIP3    H243082   1.791   4.457  17.137  0.9821 -1.0204 -1.0924
 7223TIP3   OH243083   5.767   2.467   4.858  1.1260  0.1498  0.6863
 7223TIP3    H143084   5.848   2.417   4.843  1.6089  1.2741 -0.6311
 7223TIP3    H243085   5.734   2.486   4.770  0.4507  1.3182  1.1752
 7224TIP3   OH243086   5.832   3.002  12.814 -0.6307  0.1036 -0.3491
 7224TIP3    H143087   5.859   3.081  12.768 -2.2485  0.2836 -1.0304
 7224TIP3    H243088   5.903   2.986  12.877  1.1380  0.4407 -2.1593
 7225TIP3   OH243089   3.630   2.579  16.168 -0.2554  0.3588  0.1289
 7225TIP3    H143090   3.555   2.521  16.159 -0.7609  1.0350 -0.1194
 7225TIP3    H243091   3.642   2.588  16.263  1.3124 -1.9924  0.2372
 7226TIP3   OH243092   3.948   4.513   4.028  0.4170  0.2545 -0.4319
 7226TIP3    H143093   3.948   4.590   4.084  0.6820  0.6003 -0.9038
 7226TIP3    H243094   4.016   4.457   4.064  0.6162  0.4956 -0.4303
 7227TIP3   OH243095   1.576   3.007   4.155 -0.1765 -0.1041  0.3861
 7227TIP3    H143096   1.486   3.001   4.125  0.9999 -1.9109 -3.5355
 7227TIP3    H243097   1.598   2.918   4.183  0.7336 -0.0108 -0.0007
 7228TIP3   OH243098   1.741   1.777   1.390 -0.1634 -0.1574  0.5948
 7228TIP3    H143099   1.810   1.766   1.455  0.4925  0.0638 -0.0601
 7228TIP3    H243100   1.680   1.838   1.432  1.0586  1.2584  0.3888
 7229TIP3   OH243101   2.724   5.812   2.515  0.0597 -0.0684 -0.1497
 7229TIP3    H143102   2.745   5.725   2.482 -0.1205  0.2633 -1.1901
 7229TIP3    H243103   2.648   5.839   2.464  0.6305  1.0372 -0.4609
 7230TIP3   OH243104   3.442   4.740   2.321 -0.8451  0.1729 -0.0623
 7230TIP3    H143105   3.517   4.698   2.362  0.2873  0.6491 -1.5717
 7230TIP3    H243106   3.380   4.755   2.393  0.4113 -0.4013  1.1724
 7231TIP3   OH243107   0.122   6.224   0.900  0.0194  0.4176 -0.4786
 7231TIP3    H143108   0.182   6.277   0.951  1.2310  1.5487 -2.9438
 7231TIP3    H243109   0.168   6.141   0.885 -1.3186 -0.9440  2.1822
 7232TIP3   OH243110   0.825   5.064   2.707  0.8971 -0.2141 -0.8894
 7232TIP3    H143111   0.730   5.071   2.698  0.6980 -1.6582 -0.1404
 7232TIP3    H243112   0.860   5.098   2.624 -0.2228  0.8663 -0.9503
 7233TIP3   OH243113   4.202   1.477  16.264  0.3149  0.0159  0.2139
 7233TIP3    H143114   4.259   1.417  16.217 -0.9097  0.1784 -1.5959
 7233TIP3    H243115   4.115   1.437  16.258 -0.1459  0.8641  0.9157
 7234TIP3   OH243116   2.171   6.187   5.499 -0.1838 -0.0192 -0.2161
 7234TIP3    H143117   2.228   6.210   5.573 -0.7801  2.1398 -0.3732
 7234TIP3    H243118   2.229   6.184   5.424  0.3220 -1.6294  0.1843
 7235TIP3   OH243119   2.228   4.426  13.672  0.5233  0.6094 -0.0882
 7235TIP3    H143120   2.152   4.467  13.713 -1.8271 -2.1573 -1.3203
 7235TIP3    H243121   2.278   4.499  13.635 -1.4214  2.5558  0.9144
 7236TIP3   OH243122   2.289   3.360  13.116  0.2834  0.5323  0.4560
 7236TIP3    H143123   2.227   3.299  13.076  0.5628 -1.0436  2.2924
 7236TIP3    H243124   2.237   3.437  13.137 -1.1724 -0.8386  2.1416
 7237TIP3   OH243125   2.973   0.173  13.797  0.6571 -0.1529 -0.2371
 7237TIP3    H143126   3.030   0.242  13.831  0.2312  1.0877 -1.9216
 7237TIP3    H243127   2.893   0.182  13.849  0.1920  1.3904 -1.1530
 7238TIP3   OH243128   0.604   2.711   2.720 -0.2357 -0.3324 -0.8901
 7238TIP3    H143129   0.554   2.747   2.793  1.4791  1.4273 -0.5081
 7238TIP3    H243130   0.650   2.636   2.758 -1.1334 -0.8583 -0.7973
 7239TIP3   OH243131   6.087   3.666  16.835 -0.3819 -0.0807 -0.2012
 7239TIP3    H143132   6.029   3.739  16.809 -1.1551  0.0517  1.7352
 7239TIP3    H243133   6.175   3.702  16.828 -0.6275  0.3385 -1.3420
 7240TIP3   OH243134   2.631   6.326  13.700  0.7435 -0.5795 -0.2486
 7240TIP3    H143135   2.555   6.281  13.664 -0.1380  0.4998  0.2084
 7240TIP3    H243136   2.652   6.277  13.780  0.3176 -0.6785 -0.1979
 7241TIP3   OH243137   3.665   0.556   0.358  0.5326  0.4635  0.0280
 7241TIP3    H143138   3.755   0.588   0.346  0.4142  0.2414 -1.7308
 7241TIP3    H243139   3.652   0.556   0.453  2.3543  0.5899  0.3135
 7242TIP3   OH243140   5.066   5.885  12.454 -0.8278 -0.2720 -0.0283
 7242TIP3    H143141   5.035   5.828  12.383 -0.2713 -0.1692 -0.3580
 7242TIP3    H243142   5.159   5.866  12.462 -1.0351 -0.8602  1.2237
 7243TIP3   OH243143   0.810   4.830   3.952 -0.1779  0.7920  0.0078
 7243TIP3    H143144   0.776   4.898   3.893  1.0359  1.4493  0.0333
 7243TIP3    H243145   0.851   4.879   4.024  0.0653  0.0246  0.3978
 7244TIP3   OH243146   0.530   6.066   3.283  0.3442  0.5725  0.1639
 7244TIP3    H143147   0.509   5.973   3.279 -1.9347  1.0498 -0.4790
 7244TIP3    H243148   0.603   6.072   3.345 -0.3960 -1.4773  1.3223
 7245TIP3   OH243149   0.968   3.585  14.719 -0.0626  0.0589 -0.5904
 7245TIP3    H143150   0.964   3.505  14.770 -2.6350  0.4310 -0.0654
 7245TIP3    H243151   0.876   3.608  14.703  0.6148  1.9569 -2.2215
 7246TIP3   OH243152   6.572   6.096  16.128 -0.0394 -0.1233 -0.8068
 7246TIP3    H143153   6.656   6.061  16.098 -0.0493 -1.8446  0.9798
 7246TIP3    H243154   6.564   6.063  16.218 -1.2467  2.5134  0.1224
 7247TIP3   OH243155   5.710   1.792   2.534  0.3359  0.0458  0.1879
 7247TIP3    H143156   5.712   1.712   2.481 -1.0289  0.1392 -0.0389
 7247TIP3    H243157   5.626   1.789   2.579  0.1522  1.4593 -0.0064
 7248TIP3   OH243158   0.328   1.545   2.535  0.5981 -0.2798 -0.1377
 7248TIP3    H143159   0.348   1.594   2.455 -2.0233  1.7769  0.2971
 7248TIP3    H243160   0.329   1.611   2.604  0.0358 -1.4586  1.0331
 7249TIP3   OH243161   1.273   0.831   0.681 -0.1317 -0.1419 -0.0201
 7249TIP3    H143162   1.203   0.786   0.633  1.0943 -0.4417 -1.6100
 7249TIP3    H243163   1.351   0.779   0.662  0.7895  1.0095  0.5253
 7250TIP3   OH243164   1.182   1.444  15.938 -0.6976  0.2669  0.3050
 7250TIP3    H143165   1.220   1.462  16.025  1.5066 -0.9704 -0.3087
 7250TIP3    H243166   1.191   1.526  15.891 -2.8574  1.2597  1.5129
 7251TIP3   OH243167   2.526   3.249  16.503  0.4412  0.2155  0.2824
 7251TIP3    H143168   2.557   3.290  16.584 -1.2228  0.3878  0.8734
 7251TIP3    H243169   2.565   3.301  16.433  2.8473 -0.6263  0.9059
 7252TIP3   OH243170   0.666   4.280   2.922 -0.4378  0.4443 -0.2894
 7252TIP3    H143171   0.735   4.219   2.897 -0.1412  0.9155 -0.6435
 7252TIP3    H243172   0.589   4.226   2.934 -0.2215  0.0243 -0.7690
 7253TIP3   OH243173   1.504   3.500   4.735  0.2139 -0.9304 -0.6954
 7253TIP3    H143174   1.472   3.409   4.738  1.3686 -1.3501 -0.4944
 7253TIP3    H243175   1.491   3.533   4.824 -1.1445 -0.5406 -1.0139
 7254TIP3   OH243176   0.566   2.338   1.664 -0.1467  0.2649 -0.2586
 7254TIP3    H143177   0.632   2.355   1.731  2.3111  0.7571 -2.6661
 7254TIP3    H243178   0.513   2.418   1.663  0.6238  0.7950  0.1837
 7255TIP3   OH243179   6.258   2.262  14.226 -0.3549 -0.3233  0.3983
 7255TIP3    H143180   6.197   2.279  14.298 -0.5340 -1.8347  0.6307
 7255TIP3    H243181   6.324   2.205  14.264 -0.6790 -1.4810 -0.7252
 7256TIP3   OH243182   2.938   0.983  14.120 -0.5575 -0.1972  0.1906
 7256TIP3    H143183   2.896   0.928  14.054 -1.7473 -0.5889  1.2340
 7256TIP3    H243184   2.873   1.050  14.142  0.4781  1.0029 -0.2831
 7257TIP3   OH243185   0.461   2.383   2.762  0.4389  0.3399 -0.6850
 7257TIP3    H143186   0.492   2.293   2.776 -1.2301  0.0573  1.6788
 7257TIP3    H243187   0.523   2.438   2.809 -0.4636  0.0818  0.8729
 7258TIP3   OH243188   0.305   5.271  14.146  0.0952 -0.1197 -0.2122
 7258TIP3    H143189   0.353   5.334  14.199 -0.1291  0.5845 -0.8228
 7258TIP3    H243190   0.304   5.191  14.198  0.0977  0.4755  0.7183
 7259TIP3   OH243191   5.858   2.592   3.742  0.0915  0.6279  0.3588
 7259TIP3    H143192   5.950   2.574   3.765  0.0595 -0.1101 -0.0483
 7259TIP3    H243193   5.863   2.663   3.678  0.3391  1.0124  0.8035
 7260TIP3   OH243194   6.327   3.162  11.476  0.1633  0.6689  0.1393
 7260TIP3    H143195   6.305   3.197  11.389  0.7056  0.0730 -0.2451
 7260TIP3    H243196   6.243   3.141  11.515 -0.0509 -3.0861 -1.9188
 7261TIP3   OH243197   0.554   5.259   0.149  0.4153 -0.1163  0.0433
 7261TIP3    H143198   0.604   5.180   0.129  1.9119  0.7055  0.3643
 7261TIP3    H243199   0.614   5.312   0.201 -0.5036  1.3047 -0.2938
 7262TIP3   OH243200   1.262   3.460  10.583  0.6559  0.0091 -0.1223
 7262TIP3    H143201   1.176   3.502  10.575  0.2293 -0.6694  0.7380
 7262TIP3    H243202   1.262   3.392  10.516  0.2335 -0.4354  0.3110
 7263TIP3   OH243203   1.198   2.369   3.984 -0.4397 -0.0824 -0.0321
 7263TIP3    H143204   1.290   2.361   4.007 -0.3660  0.1390 -0.2382
 7263TIP3    H243205   1.181   2.297   3.924  0.3417  1.4836 -2.2718
 7264TIP3   OH243206   5.655   0.109   5.203 -0.3366  0.3189  0.2537
 7264TIP3    H143207   5.746   0.137   5.207 -0.6275  1.1954  1.5309
 7264TIP3    H243208   5.645   0.051   5.279 -1.1728  1.3396  0.9453
 7265TIP3   OH243209   2.624   0.004   6.517 -0.2625  0.3370  0.0810
 7265TIP3    H143210   2.626  -0.021   6.609  1.0673  1.8605  0.5189
 7265TIP3    H243211   2.569   0.082   6.515 -0.5874  0.0980 -0.4884
 7266TIP3   OH243212   4.457   0.218  13.194  0.4906 -0.2268  0.4081
 7266TIP3    H143213   4.510   0.178  13.262 -0.0645  1.0296  1.6230
 7266TIP3    H243214   4.478   0.311  13.198 -3.0543  0.6634  2.2294
 7267TIP3   OH243215   0.859   3.273   3.366 -0.5751  0.6612  0.5731
 7267TIP3    H143216   0.840   3.214   3.292  2.5463 -1.4979  1.2967
 7267TIP3    H243217   0.836   3.222   3.443  1.3103  0.6805  1.1969
 7268TIP3   OH243218   1.846   2.040   3.010  0.7447  0.2448 -0.4303
 7268TIP3    H143219   1.868   2.114   3.067  0.0679 -0.7598  1.2138
 7268TIP3    H243220   1.898   1.967   3.045 -0.6495 -0.7034 -0.2425
 7269TIP3   OH243221   3.774   4.825  12.801 -0.2139 -0.0489 -0.0896
 7269TIP3    H143222   3.715   4.810  12.727 -1.5341  0.5004  0.8082
 7269TIP3    H243223   3.734   4.898  12.849  1.3343  0.4945  0.4348
 7270TIP3   OH243224   3.187   1.146   2.886 -0.0746  0.1662 -0.3315
 7270TIP3    H143225   3.230   1.126   2.969 -0.9518  0.5517  0.2297
 7270TIP3    H243226   3.184   1.242   2.884 -1.2429  0.1394 -0.1771
 7271TIP3   OH243227   6.315   6.348  13.226 -0.3124  0.2140 -0.0938
 7271TIP3    H143228   6.321   6.257  13.256  1.1305  0.0141 -0.8864
 7271TIP3    H243229   6.261   6.343  13.146 -0.1724  0.0429 -0.1783
 7272TIP3   OH243230   2.470   3.889   0.974  0.1948  0.3124 -0.1902
 7272TIP3    H143231   2.409   3.829   1.018  1.8324 -1.0919  0.2685
 7272TIP3    H243232   2.448   3.975   1.009 -2.1451  0.0183 -0.7771
 7273TIP3   OH243233   2.658   0.575  13.027  0.2821  0.1697 -0.0488
 7273TIP3    H143234   2.585   0.607  13.080  0.2518 -2.0104  1.3585
 7273TIP3    H243235   2.618   0.512  12.966  0.7076  0.6358 -0.8344
 7274TIP3   OH243236   1.539   3.606  12.855  0.0379  0.1330 -0.3443
 7274TIP3    H143237   1.573   3.541  12.793 -0.0199 -0.6644  0.4382
 7274TIP3    H243238   1.558   3.691  12.814  0.6132 -0.3578 -1.1259
 7275TIP3   OH243239   3.336   2.718   1.144  0.1976  0.1514 -0.3693
 7275TIP3    H143240   3.324   2.624   1.154 -0.1754  0.0237 -1.8116
 7275TIP3    H243241   3.367   2.747   1.230 -2.5144 -0.8081  1.0738
 7276TIP3   OH243242   0.183   4.312   1.088  0.0267 -0.2880  0.4855
 7276TIP3    H143243   0.266   4.360   1.086  0.2640 -0.6991  0.1681
 7276TIP3    H243244   0.200   4.234   1.035 -0.8875  0.1396 -0.4693
 7277TIP3   OH243245   2.812   4.309  14.582 -0.3601  0.0495 -0.0461
 7277TIP3    H143246   2.798   4.401  14.604 -0.7026 -0.0383  0.1034
 7277TIP3    H243247   2.907   4.300  14.577 -0.3396  0.6741 -1.1633
 7278TIP3   OH243248   1.654   4.658   4.058  0.3586  0.5106  0.4057
 7278TIP3    H143249   1.647   4.698   3.971  1.7570 -0.3088 -0.1312
 7278TIP3    H243250   1.580   4.692   4.107  0.0614  1.7178 -0.8276
 7279TIP3   OH243251   1.129   3.602  15.839 -0.2808 -0.3079  0.1698
 7279TIP3    H143252   1.059   3.663  15.816 -0.9135 -0.9443  0.3933
 7279TIP3    H243253   1.092   3.548  15.909  0.3332 -0.8298  0.0992
 7280TIP3   OH243254   4.179   2.670   6.349 -0.1589 -0.0822  0.1779
 7280TIP3    H143255   4.248   2.657   6.284  0.7608 -0.0088  1.1190
 7280TIP3    H243256   4.101   2.630   6.309  0.1797  0.6288 -1.2883
 7281TIP3   OH243257   4.411   2.742   4.706 -0.3696 -0.3107 -0.0014
 7281TIP3    H143258   4.408   2.679   4.634  2.6633 -0.3144 -0.2520
 7281TIP3    H243259   4.496   2.727   4.747 -0.2474  2.4845  0.9769
 7282TIP3   OH243260   3.377   0.905   0.183  0.2277 -0.2506  0.5925
 7282TIP3    H143261   3.431   0.872   0.111 -0.8717 -1.6600  0.3575
 7282TIP3    H243262   3.439   0.926   0.252  1.0828 -2.8085  0.7297
 7283TIP3   OH243263   2.799   4.279  12.460  0.2374 -0.0879  0.0091
 7283TIP3    H143264   2.765   4.363  12.431 -1.2767 -1.4087 -2.3559
 7283TIP3    H243265   2.873   4.261  12.402 -0.5919 -1.1715 -0.7520
 7284TIP3   OH243266   2.717   1.303   1.876  0.8603 -0.6234  0.0296
 7284TIP3    H143267   2.799   1.254   1.878  1.9222  1.0851  1.0489
 7284TIP3    H243268   2.730   1.368   1.807  0.5823 -0.0049  0.5492
 7285TIP3   OH243269   3.630   2.744   0.641 -0.1556 -0.5113 -0.0605
 7285TIP3    H143270   3.617   2.818   0.581  0.4042  1.7296  2.4065
 7285TIP3    H243271   3.718   2.712   0.621 -0.3968 -0.5487 -1.1436
 7286TIP3   OH243272   4.665   4.348   1.703  0.0582  0.3799  0.1707
 7286TIP3    H143273   4.740   4.288   1.701 -2.0922 -2.5059  0.6357
 7286TIP3    H243274   4.605   4.309   1.766 -1.9608  2.4689 -0.3534
 7287TIP3   OH243275   2.331   4.626  16.283 -0.5724 -0.3935 -0.4815
 7287TIP3    H143276   2.328   4.530  16.277 -2.5697 -0.4556  0.5344
 7287TIP3    H243277   2.424   4.647  16.289 -0.1245 -2.3920  0.6120
 7288TIP3   OH243278   4.579   2.303   0.823  0.1796  0.3437  0.3873
 7288TIP3    H143279   4.641   2.236   0.792  2.1367  2.3910 -0.3821
 7288TIP3    H243280   4.528   2.258   0.890  0.6844 -2.2126 -0.7977
 7289TIP3   OH243281   5.737   6.034  11.601 -0.6532  0.0350 -0.2738
 7289TIP3    H143282   5.669   6.031  11.533  0.3908  0.7580 -1.3776
 7289TIP3    H243283   5.818   6.050  11.554  0.2465 -0.3862  1.0707
 7290TIP3   OH243284   6.522   5.334  12.292 -0.6195  0.3359 -0.0167
 7290TIP3    H143285   6.517   5.361  12.384 -2.6521 -1.5374  0.5160
 7290TIP3    H243286   6.580   5.258  12.292 -0.0293  0.7746 -0.4334
 7291TIP3   OH243287   5.257   2.337   5.726 -0.0256  0.2649  0.0742
 7291TIP3    H143288   5.343   2.370   5.753 -0.5563  0.7034  1.2889
 7291TIP3    H243289   5.211   2.413   5.692  0.2211 -0.0685 -1.0745
 7292TIP3   OH243290   0.555   1.603  15.720 -0.0070 -0.0999 -0.9780
 7292TIP3    H143291   0.473   1.607  15.670 -0.7166 -1.2326  0.0259
 7292TIP3    H243292   0.564   1.691  15.758 -2.1392 -0.5849  0.9228
 7293TIP3   OH243293   3.204   1.535   4.072 -0.0435 -0.0272  0.0413
 7293TIP3    H143294   3.261   1.502   4.141  1.8879 -0.6384 -1.7525
 7293TIP3    H243295   3.115   1.525   4.107  0.8443 -0.6272  2.2584
 7294TIP3   OH243296   0.501   5.735  11.370 -0.1380 -0.0722 -0.1014
 7294TIP3    H143297   0.571   5.777  11.320  0.6580  0.7929  1.6690
 7294TIP3    H243298   0.421   5.779  11.341  0.5696  2.1208  1.0348
 7295TIP3   OH243299   3.337   6.258  15.648 -0.7340 -0.0140  0.6356
 7295TIP3    H143300   3.413   6.215  15.688  0.9802  1.3004 -1.0264
 7295TIP3    H243301   3.342   6.348  15.679 -2.3616 -0.1774  1.4605
 7296TIP3   OH243302   3.638   4.937  13.882  0.5216 -0.1241 -0.3618
 7296TIP3    H143303   3.708   4.948  13.947 -1.2776  0.0723  1.6628
 7296TIP3    H243304   3.668   4.867  13.825  2.9098  0.8189 -0.3738
 7297TIP3   OH243305   6.750   4.075   2.138 -0.0439  0.4441 -0.2181
 7297TIP3    H143306   6.834   4.107   2.102 -0.4919 -0.6945 -2.4662
 7297TIP3    H243307   6.775   4.009   2.202  0.9090 -1.7960 -2.6935
 7298TIP3   OH243308   5.599   4.606  16.823  0.1651  0.4662  0.8857
 7298TIP3    H143309   5.618   4.540  16.889 -0.9026  0.4699  1.2192
 7298TIP3    H243310   5.540   4.563  16.761  1.7081  0.2387 -0.4934
 7299TIP3   OH243311   1.857   4.408  15.758  0.0458  0.2332  0.6965
 7299TIP3    H143312   1.867   4.317  15.785 -2.1832 -1.2938 -2.8554
 7299TIP3    H243313   1.791   4.443  15.818 -0.8791 -1.3302  0.6663
 7300TIP3   OH243314   0.797   2.075  16.776  0.2938  0.3807  0.0230
 7300TIP3    H143315   0.792   2.064  16.871 -0.9714 -0.8284 -0.1471
 7300TIP3    H243316   0.737   2.146  16.756  0.1597  0.2829  0.0775
 7301TIP3   OH243317   5.747   4.420  14.366  0.1573  0.0300 -0.3950
 7301TIP3    H143318   5.824   4.462  14.328  1.3660 -2.0734 -0.4165
 7301TIP3    H243319   5.742   4.335  14.323 -3.0159  0.5646 -1.3931
 7302TIP3   OH243320   4.637   6.501  14.010  0.0810  0.4811  0.7466
 7302TIP3    H143321   4.559   6.543  13.974 -0.4536 -0.3461  0.9123
 7302TIP3    H243322   4.607   6.459  14.091  0.3535 -1.0382  0.0908
 7303TIP3   OH243323   5.030   4.499   5.524 -0.0069  0.1984 -0.3681
 7303TIP3    H143324   5.067   4.488   5.612 -0.8281 -1.2488 -0.1838
 7303TIP3    H243325   5.012   4.593   5.518  2.0516  0.6951  0.1665
 7304TIP3   OH243326   3.407   0.259  16.540 -0.1324  0.5327 -0.1369
 7304TIP3    H143327   3.364   0.175  16.555  0.5274  0.1516 -0.3627
 7304TIP3    H243328   3.404   0.304  16.625  2.5483 -1.1131  0.9443
 7305TIP3   OH243329   6.426   2.015   5.903  0.0758 -0.4375 -0.8101
 7305TIP3    H143330   6.411   2.096   5.853  1.4535 -0.7474 -1.7622
 7305TIP3    H243331   6.381   2.031   5.987 -1.3059  0.5431 -1.6831
 7306TIP3   OH243332   2.092   6.195  15.016  0.3925  0.0889 -0.1322
 7306TIP3    H143333   2.012   6.143  15.018 -0.0469  0.7610  0.1298
 7306TIP3    H243334   2.111   6.214  15.108  2.1950 -2.0471  0.0200
 7307TIP3   OH243335   1.564   0.976   3.297  0.4193  0.0942  0.1567
 7307TIP3    H143336   1.486   0.936   3.258  1.1104 -1.5507  0.3888
 7307TIP3    H243337   1.534   1.009   3.382 -0.5479  1.6293 -0.7321
 7308TIP3   OH243338   2.058   3.394   5.079 -0.0718 -0.3875  1.1116
 7308TIP3    H143339   2.030   3.329   5.014 -2.5347 -0.1385  1.8025
 7308TIP3    H243340   2.041   3.351   5.163  2.2367 -0.3699  1.6448
 7309TIP3   OH243341   0.509   1.979   1.558  0.1903  0.1077 -0.1998
 7309TIP3    H143342   0.471   1.958   1.644 -0.4158 -1.7895 -0.8691
 7309TIP3    H243343   0.604   1.979   1.573  0.1102 -0.6796  0.3928
 7310TIP3   OH243344   4.168   2.243  16.471 -0.2859  0.1077 -0.1935
 7310TIP3    H143345   4.230   2.314  16.491 -3.0219  3.4344 -2.3571
 7310TIP3    H243346   4.146   2.205  16.556  1.8438  1.3460  0.9927
 7311TIP3   OH243347   6.048   2.506  12.240 -0.2894  0.1010  0.3837
 7311TIP3    H143348   5.957   2.522  12.213 -0.5786  0.4408  1.5057
 7311TIP3    H243349   6.051   2.536  12.331  1.2084  1.0291  0.0542
 7312TIP3   OH243350   3.334   4.529  14.399  0.0455  0.5565 -0.3565
 7312TIP3    H143351   3.249   4.560  14.429  0.5487 -0.0102  1.8556
 7312TIP3    H243352   3.394   4.602  14.417  0.3074  0.3325 -0.3094
 7313TIP3   OH243353   2.418   2.347   1.891  0.6091  0.7266 -0.6684
 7313TIP3    H143354   2.329   2.341   1.857  0.3769  2.6458 -0.4971
 7313TIP3    H243355   2.407   2.364   1.985  1.1948 -0.0167 -0.4462
 7314TIP3   OH243356   5.445   2.483   2.721  0.2934  0.3177  0.4677
 7314TIP3    H143357   5.501   2.426   2.669  1.4069  1.4580  0.3847
 7314TIP3    H243358   5.371   2.504   2.663  0.6882  0.2492 -0.0657
 7315TIP3   OH243359   2.497   0.963  16.635  0.3869  0.8937 -0.1353
 7315TIP3    H143360   2.527   0.935  16.721 -0.7072  0.2439  0.0648
 7315TIP3    H243361   2.550   0.913  16.573 -0.4012 -0.4196  0.2083
 7316TIP3   OH243362   0.544   5.554   5.773  0.0168  0.0773  0.1132
 7316TIP3    H143363   0.636   5.565   5.749  0.4659 -1.8086  0.8035
 7316TIP3    H243364   0.544   5.558   5.869 -0.2274 -2.0972  0.2634
 7317TIP3   OH243365   1.949   6.298   6.102  0.4327  0.3828  0.1069
 7317TIP3    H143366   2.014   6.319   6.170  1.5230 -0.1524 -0.7371
 7317TIP3    H243367   1.998   6.247   6.038 -1.2093 -1.4363  0.2118
 7318TIP3   OH243368   0.927   3.189  15.608 -0.2042 -0.0722 -0.4334
 7318TIP3    H143369   0.947   3.096  15.612  0.0044 -0.0143 -0.1277
 7318TIP3    H243370   0.903   3.205  15.516 -0.9728 -0.5734 -0.3294
 7319TIP3   OH243371   2.320   1.999   1.737  0.1169 -0.1596 -0.1006
 7319TIP3    H143372   2.309   2.091   1.717  1.6984 -0.0166 -0.4077
 7319TIP3    H243373   2.276   1.988   1.822 -1.0723  0.5992 -0.5934
 7320TIP3   OH243374   4.495   5.633   2.571  0.8114 -0.2146 -0.3164
 7320TIP3    H143375   4.443   5.696   2.620  1.5150  1.3427 -1.4865
 7320TIP3    H243376   4.551   5.591   2.637 -0.2918 -0.2940  0.6084
 7321TIP3   OH243377   4.994   6.645   1.886 -0.3637  0.0561 -0.1410
 7321TIP3    H143378   5.026   6.594   1.960  0.6443  0.6970 -0.1039
 7321TIP3    H243379   5.066   6.642   1.822  0.4803  2.7763  0.5414
 7322TIP3   OH243380   1.927   3.864  15.958 -0.1872 -0.1360 -0.4813
 7322TIP3    H143381   2.004   3.886  16.011 -1.1736 -1.3246  1.5885
 7322TIP3    H243382   1.962   3.843  15.872  1.8371 -0.7976  0.4347
 7323TIP3   OH243383   0.479   2.802   2.943 -0.1489 -0.1299  0.1206
 7323TIP3    H143384   0.392   2.763   2.938 -0.1650 -0.4875  2.2758
 7323TIP3    H243385   0.523   2.754   3.013  1.9041 -0.1522 -1.1054
 7324TIP3   OH243386   5.722   3.332   4.602 -0.3384 -0.8386  0.0208
 7324TIP3    H143387   5.658   3.267   4.631 -0.2521 -0.1668  1.8231
 7324TIP3    H243388   5.763   3.363   4.682 -0.9594  2.0658 -0.6540
 7325TIP3   OH243389   1.466   6.728   1.118  0.0326 -0.0492  0.1588
 7325TIP3    H143390   1.422   6.813   1.115  0.3111  0.0995  0.3600
 7325TIP3    H243391   1.541   6.741   1.175 -0.5653 -0.7260  1.1361
 7326TIP3   OH243392   6.027   6.712  15.736  0.3234 -0.4147 -0.7742
 7326TIP3    H143393   6.068   6.721  15.650 -0.4458 -1.0794 -1.2248
 7326TIP3    H243394   5.946   6.663  15.719 -1.0312  1.4267 -0.0439
 7327TIP3   OH243395   5.657   2.112  13.522  0.9616 -0.0755 -0.0201
 7327TIP3    H143396   5.747   2.110  13.556  1.5165  2.1242 -1.1649
 7327TIP3    H243397   5.661   2.061  13.441  1.3584  0.4937 -0.3730
 7328TIP3   OH243398   6.552   1.811   1.514 -0.4854 -0.2972 -0.2532
 7328TIP3    H143399   6.501   1.814   1.434 -2.3157  0.6756  0.8784
 7328TIP3    H243400   6.642   1.795   1.485 -1.2067 -0.7599 -2.4065
 7329TIP3   OH243401   2.164   4.842  16.265 -0.0900  0.4248 -0.1171
 7329TIP3    H143402   2.232   4.774  16.268 -0.5281  0.0239  1.9890
 7329TIP3    H243403   2.211   4.920  16.235  1.3899  0.1828  1.3815
 7330TIP3   OH243404   2.010   5.085  17.021  0.2135  0.0360  0.0245
 7330TIP3    H143405   1.934   5.028  17.010 -0.2750  0.6736  0.0478
 7330TIP3    H243406   2.075   5.030  17.065 -0.8162 -0.0358  1.5344
 7331TIP3   OH243407   5.474   2.552  14.651 -0.0770  0.0270 -0.3908
 7331TIP3    H143408   5.385   2.581  14.670 -0.3888 -0.9327 -0.3653
 7331TIP3    H243409   5.464   2.466  14.611  0.8250  0.0365 -0.6663
 7332TIP3   OH243410   2.932   5.198   2.533  0.3780  0.4097 -0.2796
 7332TIP3    H143411   3.000   5.251   2.575 -0.6780  1.8859 -0.3719
 7332TIP3    H243412   2.878   5.167   2.606  0.5823  0.0461 -0.2819
 7333TIP3   OH243413   1.724   5.329   1.512  0.1241 -0.1430  0.9149
 7333TIP3    H143414   1.701   5.277   1.435  1.2579  1.1508 -0.3547
 7333TIP3    H243415   1.658   5.305   1.577 -0.1663 -2.1648 -0.0391
 7334TIP3   OH243416   1.783   0.963  16.697 -0.0181 -0.3945  0.5117
 7334TIP3    H143417   1.738   0.893  16.649  0.8736 -1.6752  1.4877
 7334TIP3    H243418   1.721   1.035  16.697 -0.6702 -0.8850 -1.2000
 7335TIP3   OH243419   3.609   2.100  16.880 -0.5823  0.1012  0.1317
 7335TIP3    H143420   3.650   2.041  16.944  2.4001 -1.2484 -2.7330
 7335TIP3    H243421   3.579   2.043  16.810 -3.1359  1.5774 -0.0829
 7336TIP3   OH243422   4.010   1.528   0.043 -0.1114 -0.2066 -0.3344
 7336TIP3    H143423   3.988   1.513   0.135  1.0688 -1.9106 -0.2876
 7336TIP3    H243424   4.013   1.440   0.005  2.4324  0.1946 -1.2493
 7337TIP3   OH243425   0.424   1.803   5.100 -0.1553 -0.7599 -0.2493
 7337TIP3    H143426   0.332   1.779   5.097 -1.1725  2.5534  0.9677
 7337TIP3    H243427   0.452   1.781   5.189 -0.6113  0.8127  0.3072
 7338TIP3   OH243428   6.616   5.077   5.681 -0.5646  0.5138 -0.4477
 7338TIP3    H143429   6.711   5.071   5.675 -0.7163 -0.7452 -3.2225
 7338TIP3    H243430   6.592   5.017   5.751  0.5847 -1.1561 -1.4176
 7339TIP3   OH243431   5.469   4.851   4.004 -0.2028  0.2227  0.3132
 7339TIP3    H143432   5.475   4.759   4.029 -0.5972  0.3936  1.0488
 7339TIP3    H243433   5.426   4.893   4.078 -0.7628  0.8611 -0.3657
 7340TIP3   OH243434   1.297   4.098  15.153 -0.4104 -0.5473  0.0172
 7340TIP3    H143435   1.304   4.129  15.243 -1.4526 -0.3021  0.0287
 7340TIP3    H243436   1.383   4.063  15.133  0.6905  1.8806  0.1814
 7341TIP3   OH243437   3.007   4.200  16.573 -0.5632 -0.1370  0.0907
 7341TIP3    H143438   2.973   4.141  16.507  1.7800 -0.6907 -0.7006
 7341TIP3    H243439   3.087   4.159  16.604 -0.2863  1.3276  1.4866
 7342TIP3   OH243440   5.278   6.720   3.966  0.3763 -0.1092 -0.4425
 7342TIP3    H143441   5.231   6.799   3.940  0.8921 -0.0296 -1.1633
 7342TIP3    H243442   5.286   6.668   3.886  0.1893 -0.8238 -0.0121
 7343TIP3   OH243443   0.252   3.101   0.383  0.2411 -0.0844  0.0337
 7343TIP3    H143444   0.162   3.105   0.351  0.2682 -0.0172 -0.0364
 7343TIP3    H243445   0.286   3.018   0.350  0.6126  0.4747 -1.0464
 7344TIP3   OH243446   4.708   0.029  12.863 -0.3185  0.4208 -0.1085
 7344TIP3    H143447   4.693  -0.064  12.880  1.0239  0.3283  0.7054
 7344TIP3    H243448   4.642   0.074  12.915 -0.0748 -0.0446  0.6121
 7345TIP3   OH243449   3.528   6.762  15.127  0.1000 -0.0676  0.0606
 7345TIP3    H143450   3.615   6.734  15.098  1.3525  1.3465  2.1737
 7345TIP3    H243451   3.529   6.750  15.222 -1.0999  2.1603  0.4332
 7346TIP3   OH243452   4.403   1.362  14.841 -0.0521 -0.5179 -0.0775
 7346TIP3    H143453   4.309   1.344  14.850  0.2737 -1.9721  0.6627
 7346TIP3    H243454   4.407   1.434  14.778 -1.8034  1.3230  1.7302
 7347TIP3   OH243455   3.772   3.536  15.253 -0.2806 -0.9043 -0.2742
 7347TIP3    H143456   3.783   3.465  15.190 -1.6695 -1.8361  0.4808
 7347TIP3    H243457   3.738   3.609  15.201  1.3595 -0.6675 -1.0957
 7348TIP3   OH243458   4.889   2.691   4.744  0.7661  0.1198  0.2475
 7348TIP3    H143459   4.928   2.658   4.663  0.5902 -1.0178  0.6033
 7348TIP3    H243460   4.953   2.755   4.777  0.1756  1.7224 -1.5044
 7349TIP3   OH243461   6.130   5.654   1.330  0.6591  0.6227 -0.1866
 7349TIP3    H143462   6.067   5.600   1.282  1.2950  0.7693 -1.2178
 7349TIP3    H243463   6.126   5.739   1.288  1.3049  0.7297 -0.0478
 7350TIP3   OH243464   3.712   6.017  11.872  0.8200  0.5900  0.0810
 7350TIP3    H143465   3.636   6.034  11.927  1.2223 -0.8053  1.1493
 7350TIP3    H243466   3.760   5.948  11.919  1.0100 -0.9263 -2.2033
 7351TIP3   OH243467   3.431   1.565  13.398 -0.1770  0.2750 -0.0002
 7351TIP3    H143468   3.353   1.511  13.390 -0.5183  0.9476 -2.0028
 7351TIP3    H243469   3.501   1.504  13.423 -0.4996 -1.2237 -2.3555
 7352TIP3   OH243470   1.730   4.668  16.488 -0.1093  0.1677  0.1332
 7352TIP3    H143471   1.663   4.615  16.445 -1.0850  0.3589  1.3961
 7352TIP3    H243472   1.710   4.758  16.463  0.9291  0.0780 -1.1550
 7353TIP3   OH243473   4.525   0.767   0.182  0.1804  0.3189  0.7882
 7353TIP3    H143474   4.473   0.840   0.215 -0.0726  0.5322 -0.0583
 7353TIP3    H243475   4.615   0.797   0.187  0.2157  0.0560  1.9927
 7354TIP3   OH243476   2.105   4.548   1.251 -0.1644 -0.5836 -0.0211
 7354TIP3    H143477   2.169   4.591   1.308  0.9542 -2.0848 -0.0842
 7354TIP3    H243478   2.038   4.516   1.311  0.5566 -1.3740  0.3952
 7355TIP3   OH243479   1.743   0.080   5.277 -0.2608  0.2253  0.2788
 7355TIP3    H143480   1.829   0.123   5.279 -0.0823 -0.1302  1.8669
 7355TIP3    H243481   1.685   0.144   5.236  0.5832  0.8400  0.0212
 7356TIP3   OH243482   0.701   6.400   2.921 -0.8241  0.2412  0.4075
 7356TIP3    H143483   0.714   6.326   2.862  1.7648 -0.8139  2.1296
 7356TIP3    H243484   0.633   6.373   2.981  1.1379 -1.5073  1.9845
 7357TIP3   OH243485   6.269   6.185  15.519  0.3237 -0.7951  0.4404
 7357TIP3    H143486   6.287   6.098  15.482  2.2922 -0.4171  0.3954
 7357TIP3    H243487   6.254   6.167  15.612 -0.0080 -1.2495  0.3072
 7358TIP3   OH243488   6.197   5.903  12.104  0.1749 -0.1676 -0.1034
 7358TIP3    H143489   6.285   5.941  12.099 -0.0926  0.3779 -0.7850
 7358TIP3    H243490   6.213   5.808  12.101  0.8326 -0.1412  1.4885
 7359TIP3   OH243491   2.072   2.990   6.241  0.1830  0.3992  0.7139
 7359TIP3    H143492   1.979   2.997   6.264 -0.0593  1.6703 -0.5232
 7359TIP3    H243493   2.112   3.069   6.279  1.3222 -1.3072  3.4165
 7360TIP3   OH243494   5.142   1.707   3.589  0.3676 -0.0025  0.3007
 7360TIP3    H143495   5.190   1.746   3.661 -0.7784  0.2619  0.9382
 7360TIP3    H243496   5.085   1.642   3.630  1.0195 -1.1844 -0.5680
 7361TIP3   OH243497   4.519   5.124  15.267 -0.1700  0.1914  0.1443
 7361TIP3    H143498   4.542   5.031  15.272 -0.3877  0.1923  1.5386
 7361TIP3    H243499   4.604   5.168  15.259 -0.0196 -0.0885  0.1569
 7362TIP3   OH243500   5.416   4.616   4.982  0.0615 -0.3907  0.3062
 7362TIP3    H143501   5.500   4.662   4.979 -0.2389  0.1597  0.2417
 7362TIP3    H243502   5.432   4.542   5.041  0.6846 -0.4803  0.0359
 7363TIP3   OH243503   6.488   3.820   2.748 -0.1810 -0.5509 -0.5696
 7363TIP3    H143504   6.554   3.776   2.696 -0.1959 -1.5282  0.2159
 7363TIP3    H243505   6.427   3.856   2.683  1.0450  0.2866 -1.2945
 7364TIP3   OH243506   6.460   1.731  14.921 -0.4298  0.0421 -0.1758
 7364TIP3    H143507   6.438   1.817  14.956  0.6668 -0.3541  1.5929
 7364TIP3    H243508   6.470   1.746  14.827 -2.0775  1.4372 -0.1775
 7365TIP3   OH243509   5.901   5.482  12.902 -0.1168 -0.6627  0.3054
 7365TIP3    H143510   5.977   5.493  12.960 -0.3029 -1.0748  0.6322
 7365TIP3    H243511   5.938   5.477  12.814  0.3061 -1.6644  0.5312
 7366TIP3   OH243512   2.519   1.729   0.171  0.1118 -0.2237  0.1497
 7366TIP3    H143513   2.533   1.646   0.216  2.7958 -2.1017 -3.5894
 7366TIP3    H243514   2.477   1.705   0.088 -1.9038  2.6146  0.2112
 7367TIP3   OH243515   4.495   4.278  12.937  0.4407  0.1887  0.2575
 7367TIP3    H143516   4.530   4.367  12.950  1.6247 -0.1542 -0.3885
 7367TIP3    H243517   4.472   4.248  13.025 -0.0419  1.1537  0.4756
 7368TIP3   OH243518   4.551   3.771   1.057 -0.1637  0.7782  0.3954
 7368TIP3    H143519   4.607   3.848   1.051  1.4440 -0.2806  1.0725
 7368TIP3    H243520   4.608   3.703   1.094 -0.7501 -1.4777 -2.5465
 7369TIP3   OH243521   0.348   3.894  11.533  0.3373  0.0316  0.0836
 7369TIP3    H143522   0.437   3.917  11.562 -0.1036 -0.4994  2.0220
 7369TIP3    H243523   0.337   3.940  11.450  1.1579  2.9911  1.4898
 7370TIP3   OH243524   3.544   2.480   0.554 -0.5630  0.0520  0.1096
 7370TIP3    H143525   3.585   2.490   0.469 -2.5186 -1.0266 -1.0478
 7370TIP3    H243526   3.547   2.567   0.593  0.0008  0.6571 -1.2324
 7371TIP3   OH243527   2.323   5.793  16.647  0.1745 -0.6134  0.2347
 7371TIP3    H143528   2.244   5.813  16.596  0.3311 -1.8053 -0.5209
 7371TIP3    H243529   2.396   5.819  16.589  0.3635  0.4748  0.9263
 7372TIP3   OH243530   1.024   6.067  16.066  0.1928 -0.2931 -0.3272
 7372TIP3    H143531   1.057   6.026  15.986  0.7563 -1.3349  0.4116
 7372TIP3    H243532   1.081   6.142  16.081  0.7891 -0.7426 -0.3140
 7373TIP3   OH243533   6.078   6.362  13.988  0.2086  0.3844 -0.3523
 7373TIP3    H143534   6.000   6.307  13.993 -1.3066  2.2926 -1.3413
 7373TIP3    H243535   6.136   6.329  14.057 -2.4424  0.3071  2.0054
 7374TIP3   OH243536   2.599   6.693  15.323  0.2388 -0.7575 -0.1545
 7374TIP3    H143537   2.687   6.656  15.311  0.9404 -0.8126  3.7349
 7374TIP3    H243538   2.540   6.622  15.301  1.4157 -2.6251  2.2508
 7375TIP3   OH243539   5.669   5.428  10.620 -0.0951  0.3253 -0.1653
 7375TIP3    H143540   5.653   5.487  10.547 -0.0654  1.2084  0.5303
 7375TIP3    H243541   5.757   5.449  10.650 -0.6907  1.1237  1.1476
 7376TIP3   OH243542   6.128   5.098  13.793 -0.8238  0.0195  0.5706
 7376TIP3    H143543   6.047   5.098  13.843 -1.2614 -1.0697 -0.1024
 7376TIP3    H243544   6.195   5.129  13.854 -1.3206 -1.3683  1.8689
 7377TIP3   OH243545   5.552   5.664   1.692  0.4557 -0.1992  0.4314
 7377TIP3    H143546   5.480   5.712   1.732  0.3770  0.3674 -0.3797
 7377TIP3    H243547   5.521   5.574   1.687 -0.5440  0.1833 -0.6737
 7378TIP3   OH243548   4.223   4.030  14.488 -0.3647  0.5224 -0.0422
 7378TIP3    H143549   4.261   3.957  14.439  1.4282  1.0391  0.5112
 7378TIP3    H243550   4.242   4.107  14.435 -0.1307  0.8653  0.5358
 7379TIP3   OH243551   4.139   0.386  15.703 -0.9810 -0.1890  0.0589
 7379TIP3    H143552   4.117   0.435  15.782  1.0843  0.5664  0.2485
 7379TIP3    H243553   4.140   0.294  15.731 -0.6950  0.0401  0.8079
 7380TIP3   OH243554   3.761   2.405  13.987 -0.2881  0.4227  0.3696
 7380TIP3    H143555   3.729   2.399  13.897 -0.2533  2.0369  0.2221
 7380TIP3    H243556   3.850   2.439  13.978 -0.1539  0.2512  1.0131
 7381TIP3   OH243557   5.318   3.011  11.750 -0.8087 -0.0386  0.3346
 7381TIP3    H143558   5.316   3.083  11.686 -0.8673  1.2824  1.7491
 7381TIP3    H243559   5.312   2.932  11.698 -2.5770  1.0264 -1.2042
 7382TIP3   OH243560   1.225   3.286   5.620 -0.0876  0.3194 -0.5063
 7382TIP3    H143561   1.291   3.255   5.558 -1.7873 -0.0831 -2.2321
 7382TIP3    H243562   1.212   3.378   5.597  1.3253  1.0059  1.2425
 7383TIP3   OH243563   2.616   2.806   4.753 -0.6031  0.4297  0.0704
 7383TIP3    H143564   2.607   2.759   4.670  0.5023  2.6716 -1.4261
 7383TIP3    H243565   2.559   2.882   4.744  1.3339  1.9956  0.3011
 7384TIP3   OH243566   3.075   0.685  12.483 -0.0977  0.5793  0.1377
 7384TIP3    H143567   3.037   0.597  12.481  1.3856 -0.0839 -1.2338
 7384TIP3    H243568   3.005   0.742  12.451 -0.7946 -0.2055  0.2126
 7385TIP3   OH243569   4.735   4.969  12.223  0.2215 -0.3674 -0.4072
 7385TIP3    H143570   4.761   4.890  12.176  0.4142 -0.2655 -0.4736
 7385TIP3    H243571   4.678   5.017  12.163 -0.9959 -1.1040  0.1280
 7386TIP3   OH243572   3.112   5.811  15.357 -0.1324  0.5618  0.3150
 7386TIP3    H143573   3.025   5.793  15.391 -0.1631  0.0017 -0.0463
 7386TIP3    H243574   3.158   5.727  15.361  0.0589  0.6210 -0.4355
 7387TIP3   OH243575   4.317   3.691  12.788  0.2760 -0.4914 -0.4638
 7387TIP3    H143576   4.252   3.644  12.840  0.9873  0.9175  1.8729
 7387TIP3    H243577   4.396   3.638  12.795  0.0705 -0.8987 -1.1398
 7388TIP3   OH243578   5.921   4.491  12.171  0.0364 -0.3010 -0.5995
 7388TIP3    H143579   5.954   4.524  12.254 -0.6983 -1.4233  0.1542
 7388TIP3    H243580   5.842   4.543  12.154 -0.6184 -1.0268  0.1416
 7389TIP3   OH243581   3.070   5.826  16.870  0.3164  0.2967 -0.2298
 7389TIP3    H143582   3.162   5.816  16.844  0.0789 -0.3730 -0.8562
 7389TIP3    H243583   3.065   5.916  16.903  1.5779 -0.2035  1.4900
 7390TIP3   OH243584   3.939   6.620   4.450 -0.1447  0.2618  0.6930
 7390TIP3    H143585   3.880   6.582   4.385  1.4208 -0.3550 -0.4160
 7390TIP3    H243586   3.914   6.578   4.532 -0.9932 -0.2594  0.1823
 7391TIP3   OH243587   3.389   6.618  11.582  0.0227  0.0137 -0.1954
 7391TIP3    H143588   3.386   6.623  11.678  0.2790  0.7255 -0.2134
 7391TIP3    H243589   3.325   6.683  11.553  0.7063  0.5772 -0.4980
 7392TIP3   OH243590   3.799   4.818   2.793 -0.0587 -0.0552  0.2555
 7392TIP3    H143591   3.766   4.897   2.837  1.0210  0.5554  0.0304
 7392TIP3    H243592   3.857   4.778   2.857  0.7290  0.2866 -0.2206
 7393TIP3   OH243593   4.572   4.902  15.536 -0.0147  0.3105  0.2410
 7393TIP3    H143594   4.593   4.900  15.443 -1.1922  2.6579 -0.1690
 7393TIP3    H243595   4.570   4.810  15.563 -1.8203 -0.6011 -2.5744
 7394TIP3   OH243596   6.126   3.275  17.206 -0.5954 -0.2635 -0.1135
 7394TIP3    H143597   6.128   3.278  17.110  1.1155 -0.2998 -0.1099
 7394TIP3    H243598   6.169   3.192  17.228 -0.1787  0.1582  0.7002
 7395TIP3   OH243599   0.457   4.403   5.459  0.0102 -0.7604 -0.3708
 7395TIP3    H143600   0.442   4.427   5.367 -0.3004  0.4840 -0.0240
 7395TIP3    H243601   0.540   4.445   5.482 -1.9258  2.7477  1.0787
 7396TIP3   OH243602   4.323   2.353  14.513 -0.0816 -0.1768 -0.4615
 7396TIP3    H143603   4.412   2.328  14.492  0.6064  1.7891 -0.0970
 7396TIP3    H243604   4.290   2.283  14.569  1.6937 -0.3036  0.4781
 7397TIP3   OH243605   2.147   1.391  12.886  0.2817  0.7046 -0.1875
 7397TIP3    H143606   2.095   1.467  12.911 -1.4641 -0.8566  1.3457
 7397TIP3    H243607   2.227   1.398  12.938 -0.7348  0.5520  1.4760
 7398TIP3   OH243608   6.590   1.176  12.431  0.2184 -0.0935 -0.4864
 7398TIP3    H143609   6.605   1.224  12.513 -0.2656 -1.7672  0.6576
 7398TIP3    H243610   6.655   1.106  12.433  0.5727  0.1799 -1.8458
 7399TIP3   OH243611   3.397   3.134   3.729  0.4716 -0.0297 -0.5743
 7399TIP3    H143612   3.396   3.063   3.793  1.9323 -0.6186 -1.1751
 7399TIP3    H243613   3.304   3.157   3.717  0.1650  0.2498  1.8855
 7400TIP3   OH243614   0.926   0.829  14.544  1.0132  0.3340 -0.3046
 7400TIP3    H143615   0.929   0.783  14.628 -0.5875  0.8336  0.0473
 7400TIP3    H243616   0.948   0.762  14.479  0.9592 -0.3733  0.3947
 7401TIP3   OH243617   2.179   3.108  13.638  0.4090  0.0215  0.0356
 7401TIP3    H143618   2.215   3.159  13.711 -0.0926  1.3758 -0.6528
 7401TIP3    H243619   2.086   3.130  13.636  0.6483  0.9959 -1.7991
 7402TIP3   OH243620   3.662   0.304  16.749 -0.1608 -0.1849  0.4405
 7402TIP3    H143621   3.678   0.242  16.678  1.0248  0.3696  0.2018
 7402TIP3    H243622   3.723   0.376  16.733 -0.9058  0.6506  1.1979
 7403TIP3   OH243623   0.462   2.213   0.433  0.0115  0.1583  0.4760
 7403TIP3    H143624   0.395   2.279   0.447 -0.6543 -0.5391  0.6127
 7403TIP3    H243625   0.487   2.184   0.521 -0.7953 -0.8527  0.3877
 7404TIP3   OH243626   1.602   0.408   2.149  0.2267 -0.0839  0.3186
 7404TIP3    H143627   1.652   0.446   2.221  0.9587  0.7539 -0.6067
 7404TIP3    H243628   1.580   0.482   2.093  0.9255 -0.8763 -1.0644
 7405TIP3   OH243629   1.926   1.952   3.847 -0.1190 -0.5058  0.2053
 7405TIP3    H143630   1.882   2.035   3.862 -0.0775 -0.3133 -0.6524
 7405TIP3    H243631   1.855   1.887   3.845 -0.5151 -0.0956 -1.9542
 7406TIP3   OH243632   1.484   6.223  10.286  0.0986  0.1194  0.1957
 7406TIP3    H143633   1.422   6.165  10.331  1.3391  0.5334  2.5795
 7406TIP3    H243634   1.559   6.230  10.346  1.3915  1.6071 -1.4775
 7407TIP3   OH243635   0.680   5.359   3.605  0.0410  0.3410 -0.0874
 7407TIP3    H143636   0.747   5.310   3.558 -0.8087  0.0558 -1.0372
 7407TIP3    H243637   0.643   5.418   3.540 -2.5570 -1.4674 -0.4447
 7408TIP3   OH243638   4.086   3.972  11.821  0.0475 -0.0317 -0.0492
 7408TIP3    H143639   4.137   3.932  11.891  0.4935 -2.4818 -1.6346
 7408TIP3    H243640   4.043   4.047  11.862  1.3668 -0.5309  2.4509
 7409TIP3   OH243641   1.490   2.072   4.680  0.4848 -0.3027 -0.0156
 7409TIP3    H143642   1.482   2.166   4.663  0.9004 -0.0915  0.9176
 7409TIP3    H243643   1.426   2.032   4.620 -1.7829  0.7770  1.5482
 7410TIP3   OH243644   2.107   1.831   4.042  0.0434 -0.6059  0.3839
 7410TIP3    H143645   2.084   1.866   4.128 -0.4449  0.1072 -0.0303
 7410TIP3    H243646   2.045   1.872   3.982 -0.4373 -2.0617 -0.1503
 7411TIP3   OH243647   1.997   1.704   2.161  0.0017 -0.2265 -0.6719
 7411TIP3    H143648   2.056   1.727   2.234  0.3012 -0.2434 -0.9049
 7411TIP3    H243649   1.931   1.773   2.161 -1.3205 -1.4018  1.0300
 7412TIP3   OH243650   3.217   1.006  16.769  0.0668  0.2906 -0.1352
 7412TIP3    H143651   3.187   0.929  16.816 -0.4320  1.1870  1.0538
 7412TIP3    H243652   3.243   1.068  16.837 -2.2581  2.2899 -0.9312
 7413TIP3   OH243653   5.309   4.965   5.382  0.3675 -0.2658 -0.8660
 7413TIP3    H143654   5.388   4.913   5.366  1.0508  0.8253 -1.1879
 7413TIP3    H243655   5.323   5.044   5.330 -0.1457  0.7209  0.4619
 7414TIP3   OH243656   3.516   5.313   5.593  0.0598  0.3391  0.0784
 7414TIP3    H143657   3.597   5.305   5.644  1.7341  1.3401 -2.2233
 7414TIP3    H243658   3.468   5.233   5.611  1.0258  0.2173  2.3838
 7415TIP3   OH243659   0.699   4.652   6.183 -0.3045 -0.5192 -0.0247
 7415TIP3    H143660   0.631   4.678   6.246  1.9307  3.6680  0.9755
 7415TIP3    H243661   0.751   4.587   6.231 -2.4855 -2.5255 -0.2072
 7416TIP3   OH243662   3.506   4.386   5.544  0.4614  0.2152 -0.5556
 7416TIP3    H143663   3.583   4.339   5.576  0.4150  0.2222 -0.4321
 7416TIP3    H243664   3.539   4.474   5.523  0.7623 -0.1613 -1.7415
 7417TIP3   OH243665   0.236   0.206  15.102 -0.7912 -0.3053  0.0780
 7417TIP3    H143666   0.186   0.153  15.165  0.4479  0.4470  1.8072
 7417TIP3    H243667   0.324   0.168  15.106 -0.4795  0.3505 -0.5034
 7418TIP3   OH243668   2.239   3.020  13.115  0.2959  0.3995 -0.4213
 7418TIP3    H143669   2.329   2.987  13.117  0.0444 -0.3166 -0.5711
 7418TIP3    H243670   2.195   2.971  13.184  0.2233  1.3784  0.2496
 7419TIP3   OH243671   4.018   6.435  14.008 -0.8131  0.0951  0.1187
 7419TIP3    H143672   3.961   6.463  14.079 -0.3286 -0.1290  0.6014
 7419TIP3    H243673   4.071   6.513  13.989 -0.9045  0.1384  0.0416
 7420TIP3   OH243674   2.279   2.838   0.757 -0.2160  0.1668 -0.1822
 7420TIP3    H143675   2.265   2.746   0.780  0.7714 -0.1748 -0.9101
 7420TIP3    H243676   2.295   2.881   0.841  0.1303 -0.4714  0.0851
 7421TIP3   OH243677   3.199   0.123   4.260  0.1840  0.4501 -0.4757
 7421TIP3    H143678   3.170   0.170   4.182  1.5986  0.6049 -0.9367
 7421TIP3    H243679   3.247   0.189   4.311  0.1610  0.0886  0.0246
 7422TIP3   OH243680   2.895   1.997  16.671  0.0859  0.0490 -0.3540
 7422TIP3    H143681   2.961   2.006  16.603  1.1938 -1.8887  0.3898
 7422TIP3    H243682   2.820   2.045  16.638  1.0752  0.3724 -2.2768
 7423TIP3   OH243683   3.707   1.897   5.331  0.3655  0.0736 -0.0671
 7423TIP3    H143684   3.629   1.952   5.326  0.4038 -0.0107 -3.1858
 7423TIP3    H243685   3.699   1.836   5.257  1.4991 -2.5896  1.8263
 7424TIP3   OH243686   6.342   2.724   3.855  0.0535  0.0806  0.5558
 7424TIP3    H143687   6.297   2.755   3.776 -0.3418  0.2185  0.8322
 7424TIP3    H243688   6.363   2.804   3.903  0.8876  0.0350  0.2727
 7425TIP3   OH243689   4.756   4.569   4.699  0.9289 -0.0078  0.6658
 7425TIP3    H143690   4.732   4.595   4.788 -0.1849  1.8098 -0.1072
 7425TIP3    H243691   4.851   4.576   4.697  0.8410  2.1244  1.1461
 7426TIP3   OH243692   3.357   5.068   3.329 -0.7065 -0.3227 -0.3742
 7426TIP3    H143693   3.440   5.066   3.376 -1.9756  0.9047  2.1073
 7426TIP3    H243694   3.308   4.993   3.363 -1.0901 -0.2995 -0.8624
 7427TIP3   OH243695   2.900   3.990  14.086 -0.7433 -0.2412  0.3863
 7427TIP3    H143696   2.962   4.017  14.155 -2.2284  3.5034  0.4708
 7427TIP3    H243697   2.950   3.929  14.032  2.8490  1.9829  0.8676
 7428TIP3   OH243698   1.324   1.838  15.255 -0.1352  0.5017 -0.3096
 7428TIP3    H143699   1.239   1.855  15.214  0.6855  1.6410 -1.6296
 7428TIP3    H243700   1.349   1.922  15.294  0.6173  0.3236 -0.3921
 7429TIP3   OH243701   3.666   1.848  11.057  0.1613 -0.2873 -0.0802
 7429TIP3    H143702   3.669   1.779  10.990 -1.1270  0.5441 -1.0616
 7429TIP3    H243703   3.574   1.852  11.082  0.7445 -1.2278  2.5302
 7430TIP3   OH243704   6.039   2.825  13.016  0.2623  0.1370  0.7585
 7430TIP3    H143705   5.962   2.770  13.001 -0.0230  0.3008  1.5720
 7430TIP3    H243706   6.007   2.896  13.072  0.5530  1.3030 -0.4926
 7431TIP3   OH243707   4.948   1.101   5.103  0.0196  0.2192  0.3215
 7431TIP3    H143708   4.898   1.090   5.184 -0.0460  1.6560  0.4874
 7431TIP3    H243709   4.884   1.130   5.039  0.1352 -0.6052 -0.1823
 7432TIP3   OH243710   0.337   1.243  16.045  0.6430  0.1797  0.0470
 7432TIP3    H143711   0.315   1.266  15.954 -1.0974 -1.6928 -0.0865
 7432TIP3    H243712   0.426   1.275  16.057  1.1090  0.0786 -2.4948
 7433TIP3   OH243713   1.823   5.610   1.944 -0.5661  0.9882 -0.0679
 7433TIP3    H143714   1.871   5.663   1.881  1.1456  0.2880  0.5981
 7433TIP3    H243715   1.842   5.649   2.028 -0.6869  0.3526  0.2637
 7434TIP3   OH243716   3.930   6.168   1.729  0.4183 -0.0990  0.5237
 7434TIP3    H143717   4.018   6.145   1.698  0.1918  0.8926 -0.9490
 7434TIP3    H243718   3.871   6.136   1.661 -0.3776 -0.6879  1.4665
 7435TIP3   OH243719   0.211   6.138   1.234  0.2609  0.7232 -0.2831
 7435TIP3    H143720   0.215   6.050   1.198  2.3345  0.5597  0.2159
 7435TIP3    H243721   0.234   6.195   1.161  0.3116  0.7246 -0.2664
 7436TIP3   OH243722   6.152   6.621   2.683  0.3230  0.1151  0.4247
 7436TIP3    H143723   6.185   6.566   2.612 -2.1401  1.3572 -1.8892
 7436TIP3    H243724   6.225   6.679   2.704  1.8654 -1.7796  0.6187
 7437TIP3   OH243725   1.578   2.217  14.193 -0.1299  0.2000 -0.1996
 7437TIP3    H143726   1.619   2.288  14.244 -2.0363  1.2478 -0.0475
 7437TIP3    H243727   1.650   2.156  14.176  2.1450  3.1136 -2.1328
 7438TIP3   OH243728   5.712   6.162   2.614 -0.0365 -0.1488 -0.2928
 7438TIP3    H143729   5.752   6.249   2.625  0.2861  0.0245 -2.4527
 7438TIP3    H243730   5.618   6.179   2.607 -0.0842 -0.1027  0.4208
 7439TIP3   OH243731   6.739   2.652  15.051 -0.0816 -0.1525  0.0664
 7439TIP3    H143732   6.795   2.687  14.982 -0.8940 -0.6186 -0.8361
 7439TIP3    H243733   6.656   2.697  15.041 -0.8737 -1.6730 -0.5886
 7440TIP3   OH243734   1.162   3.919   1.202  0.0295  0.3025 -0.4061
 7440TIP3    H143735   1.111   3.840   1.185 -1.3617  1.1494 -0.3432
 7440TIP3    H243736   1.218   3.897   1.276 -1.3195 -0.2134  0.4928
 7441TIP3   OH243737   6.459   0.173   3.708 -0.3951 -0.0769  0.1313
 7441TIP3    H143738   6.411   0.107   3.658 -0.2132 -0.0452 -0.0893
 7441TIP3    H243739   6.517   0.123   3.765  0.1503 -0.1056 -0.4410
 7442TIP3   OH243740   1.745   2.857   3.667  0.0592  0.4721  0.5190
 7442TIP3    H143741   1.822   2.806   3.692  0.4781  0.8313 -0.0311
 7442TIP3    H243742   1.678   2.830   3.730  0.0696 -1.2512 -0.1435
 7443TIP3   OH243743   6.201   3.397   6.026  0.4985 -0.1935 -0.3885
 7443TIP3    H143744   6.211   3.337   6.100 -3.5835 -0.2143  0.3943
 7443TIP3    H243745   6.202   3.484   6.066 -3.3253 -0.2451  0.1852
 7444TIP3   OH243746   1.246   2.421   1.719  1.0551 -0.6163  0.1933
 7444TIP3    H143747   1.218   2.352   1.780  1.8509 -1.4256 -0.3282
 7444TIP3    H243748   1.215   2.392   1.634 -1.9506  1.5504  0.3831
 7445TIP3   OH243749   6.135   5.870   3.177  0.1346 -0.1139 -0.2163
 7445TIP3    H143750   6.066   5.934   3.192  0.0141 -0.0368 -1.0297
 7445TIP3    H243751   6.122   5.804   3.245  0.1137  0.5951  0.4796
 7446TIP3   OH243752   1.045   4.284  12.653 -0.0495 -0.5888 -0.1343
 7446TIP3    H143753   1.029   4.197  12.616  0.4156 -1.1145  0.8572
 7446TIP3    H243754   1.116   4.270  12.716 -1.1247  0.1843  1.2873
 7447TIP3   OH243755   5.213   3.665  17.020 -0.2850  0.0403  0.5176
 7447TIP3    H143756   5.170   3.674  17.105  0.0617 -2.3858  1.0330
 7447TIP3    H243757   5.261   3.582  17.026  2.0185  1.1445 -1.0963
 7448TIP3   OH243758   4.135   0.762  11.685 -0.0600 -0.3456  0.0573
 7448TIP3    H143759   4.165   0.733  11.599 -1.9878 -0.0153 -0.7624
 7448TIP3    H243760   4.154   0.855  11.688  2.1528 -0.7462  0.9842
 7449TIP3   OH243761   3.092   1.612  15.367  0.0805 -0.5206 -0.8907
 7449TIP3    H143762   3.180   1.624  15.402  0.1096  1.0769 -1.3877
 7449TIP3    H243763   3.046   1.693  15.391 -2.1447 -2.3780  1.7296
 7450TIP3   OH243764   2.842   0.851  12.431 -0.3587 -0.3700 -0.6852
 7450TIP3    H143765   2.827   0.889  12.345 -0.4692 -0.1962 -0.5896
 7450TIP3    H243766   2.769   0.790  12.444 -1.9759  1.6778  0.4717
 7451TIP3   OH243767   6.549   6.152   3.350  0.0953  0.3678  0.2105
 7451TIP3    H143768   6.510   6.236   3.372  0.7635  0.4541  1.1011
 7451TIP3    H243769   6.487   6.113   3.288 -2.0721 -0.0525  2.4729
 7452TIP3   OH243770   2.822   0.707   4.629 -0.2662 -0.0729  0.2585
 7452TIP3    H143771   2.763   0.782   4.623 -1.7127 -1.0236  1.6509
 7452TIP3    H243772   2.879   0.727   4.704 -0.2793 -0.0999  0.2759
 7453TIP3   OH243773   5.204   4.650  12.639 -0.4504  0.0137 -0.5354
 7453TIP3    H143774   5.228   4.650  12.732 -4.7512  2.9171  0.9104
 7453TIP3    H243775   5.263   4.715  12.600  0.4441 -0.1366  0.4986
 7454TIP3   OH243776   4.349   6.612   0.922 -0.6409  0.4739 -0.0523
 7454TIP3    H143777   4.257   6.623   0.896 -0.9161 -0.7455  0.3282
 7454TIP3    H243778   4.397   6.607   0.839 -0.9449  0.8424 -0.2561
 7455TIP3   OH243779   4.162   3.048  11.614  0.2991  0.0567 -0.8150
 7455TIP3    H143780   4.162   2.978  11.548  5.3293 -0.2927 -0.8373
 7455TIP3    H243781   4.223   3.113  11.580 -0.6676  2.2366  1.3521
 7456TIP3   OH243782   0.338   6.144  12.271  0.1788 -0.2654 -0.5970
 7456TIP3    H143783   0.291   6.111  12.195 -0.5096 -2.5710  0.7333
 7456TIP3    H243784   0.342   6.070  12.331  0.9553  1.3684  1.5045
 7457TIP3   OH243785   5.605   3.820   4.607 -0.3148 -0.2380  0.2148
 7457TIP3    H143786   5.684   3.777   4.638  1.0130  1.1258 -1.0434
 7457TIP3    H243787   5.539   3.751   4.602  1.1319 -1.6647  0.1981
 7458TIP3   OH243788   1.529   6.085   0.285  0.1923 -0.2589  0.2368
 7458TIP3    H143789   1.498   6.085   0.195  0.8450  0.8604  0.0044
 7458TIP3    H243790   1.624   6.098   0.279  0.0633  1.3274  1.1220
 7459TIP3   OH243791   3.868   2.074   0.522  0.8618 -0.2734 -0.1689
 7459TIP3    H143792   3.848   2.094   0.431  1.3657 -0.9880 -0.4409
 7459TIP3    H243793   3.852   2.157   0.569 -0.4352 -0.1853 -0.7196
 7460TIP3   OH243794   2.075   0.156  14.695 -0.4212  0.3726 -0.4094
 7460TIP3    H143795   2.133   0.159  14.619  0.6587  3.1228  0.4130
 7460TIP3    H243796   1.996   0.113  14.663  0.0648  1.2573 -3.0341
 7461TIP3   OH243797   1.180   3.196   1.534  0.5881 -0.1101 -0.1657
 7461TIP3    H143798   1.238   3.243   1.474  1.2119 -1.5020 -0.6801
 7461TIP3    H243799   1.141   3.265   1.587  2.3480  0.9134 -0.1176
 7462TIP3   OH243800   5.120   1.666  14.322 -0.0164  0.0108 -0.1180
 7462TIP3    H143801   5.182   1.622  14.264 -0.6603 -0.4232 -0.4852
 7462TIP3    H243802   5.175   1.704  14.391  0.6453 -0.4605 -0.3762
 7463TIP3   OH243803   4.288   2.982  16.127 -0.3057  0.3101 -0.5586
 7463TIP3    H143804   4.366   3.037  16.132 -0.4159  0.4082  0.3372
 7463TIP3    H243805   4.316   2.905  16.079  0.3124  0.3955 -0.3462
 7464TIP3   OH243806   3.161   3.947  14.729  0.4230  0.0627  0.3300
 7464TIP3    H143807   3.222   4.021  14.733  0.6973 -0.2178  1.7552
 7464TIP3    H243808   3.088   3.973  14.785 -0.1927 -0.1454 -0.3518
 7465TIP3   OH243809   6.555   0.349  16.142 -0.0677  0.2486 -0.5566
 7465TIP3    H143810   6.605   0.431  16.145 -0.2172  0.3238 -0.0797
 7465TIP3    H243811   6.583   0.301  16.220 -0.1889 -0.0354 -0.6855
 7466TIP3   OH243812   6.738   2.163   1.701  0.2009  0.0572  0.2873
 7466TIP3    H143813   6.783   2.079   1.708  0.0768 -0.0795 -0.4725
 7466TIP3    H243814   6.763   2.197   1.615 -0.8301  0.1597  0.0143
 7467TIP3   OH243815   1.118   0.105   3.467  0.2853 -0.1383 -0.1211
 7467TIP3    H143816   1.076   0.036   3.415  0.5044 -1.1693  1.0131
 7467TIP3    H243817   1.085   0.187   3.429 -0.4661 -0.8674 -1.1130
 7468TIP3   OH243818   1.572   3.356   5.798  0.6955 -0.1969  0.0060
 7468TIP3    H143819   1.648   3.298   5.803  0.8729 -0.0368 -0.7393
 7468TIP3    H243820   1.592   3.415   5.726 -0.3595 -0.4746 -0.5280
 7469TIP3   OH243821   1.260   0.184  14.911 -0.0596  0.0021  0.6709
 7469TIP3    H143822   1.225   0.172  14.999 -0.6207 -1.5978  0.2725
 7469TIP3    H243823   1.343   0.230  14.924  0.5976 -1.4990  2.1994
 7470TIP3   OH243824   2.594   0.195   5.436 -0.1155  0.3002 -0.2203
 7470TIP3    H143825   2.663   0.137   5.469 -1.2794 -0.9708  0.0958
 7470TIP3    H243826   2.606   0.276   5.484  0.8252 -0.0746  0.2122
 7471TIP3   OH243827   0.923   5.267   3.550 -0.3352  0.1626  0.1832
 7471TIP3    H143828   0.942   5.269   3.643 -0.6517  2.8814  0.2800
 7471TIP3    H243829   1.005   5.293   3.508 -0.5706  0.3263 -0.1863
 7472TIP3   OH243830   1.299   2.488   1.146 -0.5311 -0.0613 -0.1698
 7472TIP3    H143831   1.264   2.577   1.145 -0.5412 -0.0657 -0.2104
 7472TIP3    H243832   1.389   2.496   1.115 -0.4580 -0.0335  0.0544
 7473TIP3   OH243833   4.672   6.079   2.562 -0.6036 -0.2317  0.3131
 7473TIP3    H143834   4.697   5.988   2.550  0.6012 -0.1431  1.8176
 7473TIP3    H243835   4.678   6.093   2.657 -1.3402  1.2551  0.1671
 7474TIP3   OH243836   6.729   6.628  15.738  0.7980  0.1581  0.0022
 7474TIP3    H143837   6.706   6.616  15.646  1.1220  0.5072 -0.1302
 7474TIP3    H243838   6.677   6.704  15.766 -0.2285 -0.6928  0.4533
 7475TIP3   OH243839   3.721   6.163   3.902  0.3750  0.0975 -0.2695
 7475TIP3    H143840   3.701   6.227   3.834 -0.0224  1.3002  0.9312
 7475TIP3    H243841   3.666   6.188   3.976  0.3674 -1.5230  0.3168
 7476TIP3   OH243842   0.448   1.538  17.080 -0.0907  0.7833  0.2283
 7476TIP3    H143843   0.380   1.589  17.037  0.2053 -0.0337 -1.2852
 7476TIP3    H243844   0.509   1.516  17.010  0.9821  0.2857  1.2818
 7477TIP3   OH243845   3.735   6.271  15.962 -0.3057  0.4455 -0.7617
 7477TIP3    H143846   3.725   6.364  15.941  0.5205  0.2557 -2.1075
 7477TIP3    H243847   3.819   6.246  15.924  1.2758 -0.0286  2.6670
 7478TIP3   OH243848   5.678   3.551   6.398 -0.4525  0.2818  0.0422
 7478TIP3    H143849   5.650   3.470   6.440 -0.4383  1.8998  3.6099
 7478TIP3    H243850   5.773   3.543   6.391 -0.6050 -0.6550 -1.3148
 7479TIP3   OH243851   0.272   6.637  15.478 -0.8156  0.3862 -0.2123
 7479TIP3    H143852   0.332   6.666  15.409  0.0993  1.3198  0.9339
 7479TIP3    H243853   0.236   6.555  15.445  0.6808  0.0703 -1.1839
 7480TIP3   OH243854   5.220   0.494   0.789  0.2819 -0.2430 -0.0016
 7480TIP3    H143855   5.237   0.524   0.700  0.1834  0.5578  0.2428
 7480TIP3    H243856   5.204   0.574   0.839 -1.2703 -0.7819  0.4015
 7481TIP3   OH243857   5.385   3.964   5.527  0.2912  0.3213  0.2260
 7481TIP3    H143858   5.314   3.914   5.486  0.5789  0.4501 -0.4489
 7481TIP3    H243859   5.409   3.913   5.604  0.4882 -0.5222 -0.3779
 7482TIP3   OH243860   6.088   2.052   4.469 -0.4094 -0.4724 -0.6596
 7482TIP3    H143861   6.125   2.139   4.488 -1.2321 -0.0271 -1.0319
 7482TIP3    H243862   6.043   2.028   4.550  0.3274 -0.8258 -0.3509
 7483TIP3   OH243863   2.937   1.603   2.585  0.5621  0.1233 -0.3931
 7483TIP3    H143864   2.894   1.672   2.635  2.8357  0.6051  1.0591
 7483TIP3    H243865   3.010   1.647   2.541  0.0892 -0.7757 -2.1735
 7484TIP3   OH243866   5.995   2.421   3.215  0.1488  0.2334 -0.3100
 7484TIP3    H143867   6.051   2.424   3.138  0.0070  0.7193 -0.3996
 7484TIP3    H243868   5.972   2.513   3.232  1.2147  0.2758  1.0693
 7485TIP3   OH243869   4.013   5.140  15.500 -0.3039  0.6481  0.1316
 7485TIP3    H143870   3.943   5.107  15.556 -1.2526  0.8975 -0.8796
 7485TIP3    H243871   4.031   5.227  15.533 -1.8279  1.3464 -0.7596
 7486TIP3   OH243872   5.440   2.761  13.938  0.3176 -0.4789 -0.1848
 7486TIP3    H143873   5.510   2.790  13.996 -1.1109 -0.3229  1.5425
 7486TIP3    H243874   5.420   2.672  13.967 -0.3118 -0.4676 -0.5559
 7487TIP3   OH243875   3.949   0.165   4.651  0.0343 -0.0215  0.2230
 7487TIP3    H143876   4.031   0.190   4.610 -0.2075 -1.7147 -1.4614
 7487TIP3    H243877   3.900   0.247   4.661  0.8847  0.6925 -1.1915
 7488TIP3   OH243878   5.038   2.390   1.060 -0.8347 -0.6151  0.2551
 7488TIP3    H143879   5.075   2.341   0.986  1.8544  0.8343  0.4942
 7488TIP3    H243880   4.973   2.448   1.019  2.6841  2.4122 -1.7873
 7489TIP3   OH243881   4.331   1.523  11.839 -0.0024  0.1491 -0.2280
 7489TIP3    H143882   4.273   1.499  11.911 -1.2296  1.5131 -0.7129
 7489TIP3    H243883   4.378   1.600  11.870  1.7320 -1.0433  0.2232
 7490TIP3   OH243884   5.252   4.456  16.238  0.3766 -0.0472 -0.0824
 7490TIP3    H143885   5.343   4.464  16.211  2.1105  0.5939  4.9118
 7490TIP3    H243886   5.243   4.365  16.265 -0.3985 -0.0424 -0.3076
 7491TIP3   OH243887   2.102   0.836  16.923 -0.3951  0.2342 -0.0856
 7491TIP3    H143888   2.070   0.805  16.838 -1.1652  1.5134 -0.2881
 7491TIP3    H243889   2.023   0.861  16.970 -0.2043 -2.4696  1.9031
 7492TIP3   OH243890   6.428   0.548  12.017 -0.0183 -0.1191  0.4706
 7492TIP3    H143891   6.519   0.555  12.045 -0.3863  0.4011  1.5776
 7492TIP3    H243892   6.422   0.463  11.974  1.3160  0.4325 -0.8831
 7493TIP3   OH243893   4.910   1.008  17.150  0.0958 -0.3445  0.2766
 7493TIP3    H143894   4.838   1.031  17.208 -1.1163 -0.3645 -1.1811
 7493TIP3    H243895   4.979   1.072  17.171 -0.5416  0.0335  1.2823
 7494TIP3   OH243896   3.406   3.376  12.187  0.0067 -0.1182 -0.0992
 7494TIP3    H143897   3.429   3.453  12.238  1.1604 -0.1707 -0.5111
 7494TIP3    H243898   3.484   3.321  12.190 -0.1707 -0.4694 -1.2666
 7495TIP3   OH243899   3.294   4.199  15.372 -0.0152 -0.1924 -0.1017
 7495TIP3    H143900   3.302   4.116  15.419  0.2063 -0.1519 -0.0651
 7495TIP3    H243901   3.255   4.259  15.435  0.7609  0.0022  0.2069
 7496TIP3   OH243902   6.528   0.263  16.448  0.2027  0.1000 -0.2394
 7496TIP3    H143903   6.608   0.255  16.396  0.5082  0.0440  0.2277
 7496TIP3    H243904   6.556   0.310  16.527 -0.5935  1.6364 -0.8444
 7497TIP3   OH243905   2.587   2.755   1.238  0.4807  0.0871 -0.4781
 7497TIP3    H143906   2.668   2.794   1.270 -1.7133  3.7504  1.2199
 7497TIP3    H243907   2.560   2.810   1.164 -0.6605 -0.8234 -0.7852
 7498TIP3   OH243908   4.317   3.658  14.096  0.1764 -0.1727 -0.0996
 7498TIP3    H143909   4.264   3.727  14.056 -1.9755  0.1811  2.9713
 7498TIP3    H243910   4.254   3.589  14.116  1.9547 -2.2778 -1.3395
 7499TIP3   OH243911   5.797   1.464  14.455  0.5416  0.1006 -0.1601
 7499TIP3    H143912   5.791   1.374  14.422 -0.5676  0.2433 -0.3516
 7499TIP3    H243913   5.723   1.510  14.416 -0.1558  0.5527  1.6075
 7500TIP3   OH243914   0.075   2.712  11.151  0.2021  0.5650  0.3819
 7500TIP3    H143915   0.087   2.644  11.085 -0.2139  2.0792 -1.3593
 7500TIP3    H243916   0.149   2.771  11.137 -0.6327  1.6259  0.2964
 7501TIP3   OH243917   2.549   1.516  15.655  0.3750  0.2767 -0.2299
 7501TIP3    H143918   2.615   1.576  15.620  1.5043 -1.1467 -0.6494
 7501TIP3    H243919   2.577   1.500  15.745  0.4918 -0.1827 -0.3487
 7502TIP3   OH243920   0.768   6.150  15.322 -0.2422  0.7040 -0.0441
 7502TIP3    H143921   0.678   6.124  15.342  0.8169 -1.2557  2.9282
 7502TIP3    H243922   0.811   6.153  15.407  1.8379  4.7059 -1.0070
 7503TIP3   OH243923   2.623   4.043   0.704  0.7767  0.2425  0.8778
 7503TIP3    H143924   2.554   3.997   0.750  0.4680 -0.1012  0.0866
 7503TIP3    H243925   2.586   4.128   0.683 -0.0654 -0.5587 -1.0853
 7504TIP3   OH243926   5.726   6.270  12.591 -0.2538  0.2848 -0.1014
 7504TIP3    H143927   5.758   6.191  12.548 -0.5614  1.0222 -1.7730
 7504TIP3    H243928   5.637   6.281  12.558  1.1798  3.7474 -3.6875
 7505TIP3   OH243929   4.556   4.987   5.182  0.0390 -0.1766  0.0628
 7505TIP3    H143930   4.575   5.004   5.275 -0.4888  0.1382  0.1150
 7505TIP3    H243931   4.556   4.892   5.175  2.2157 -0.2231 -0.0646
 7506TIP3   OH243932   1.157   3.569   3.048  1.0113  0.1833 -0.3724
 7506TIP3    H143933   1.128   3.493   3.098  1.7864 -0.1466 -0.4193
 7506TIP3    H243934   1.080   3.594   2.997  0.4763 -0.0124  0.3160
 7507TIP3   OH243935   3.544   3.250   6.112  0.5383 -0.5651  0.0236
 7507TIP3    H143936   3.487   3.181   6.145  0.9407 -1.2042 -0.5819
 7507TIP3    H243937   3.633   3.216   6.123  0.7043 -0.6064 -1.2429
 7508TIP3   OH243938   6.116   0.865  13.092 -0.3599 -0.7662 -0.5968
 7508TIP3    H143939   6.137   0.832  13.180  1.0496 -0.0213 -0.6173
 7508TIP3    H243940   6.101   0.958  13.105  0.7429 -0.4787 -1.2580
 7509TIP3   OH243941   3.223   4.264  14.437  0.1359 -0.0638  0.3986
 7509TIP3    H143942   3.249   4.356  14.435  0.2602 -0.0924  0.6692
 7509TIP3    H243943   3.305   4.215  14.437  0.1539 -0.2917 -3.0178
 7510TIP3   OH243944   4.250   5.369   2.163 -0.2038  0.5126 -0.1812
 7510TIP3    H143945   4.215   5.457   2.152  1.3413  1.1242 -0.4870
 7510TIP3    H243946   4.289   5.369   2.250  3.4409  1.5560 -1.6343
 7511TIP3   OH243947   6.093   0.691   0.683  0.4186  0.0850 -0.0125
 7511TIP3    H143948   6.175   0.663   0.724  0.1946 -0.1781  0.2643
 7511TIP3    H243949   6.025   0.644   0.732 -0.0702  2.0277  1.2975
 7512TIP3   OH243950   2.026   5.250   4.537  0.3416 -0.1885  0.9072
 7512TIP3    H143951   2.099   5.250   4.599  1.7925  0.3519 -0.7223
 7512TIP3    H243952   2.028   5.163   4.497  0.1533 -0.1408  0.7936
 7513TIP3   OH243953   0.735   3.591   2.974 -0.2454 -0.2412  0.0957
 7513TIP3    H143954   0.828   3.609   2.965  0.0037 -1.1372  0.7551
 7513TIP3    H243955   0.719   3.517   2.916 -0.1310 -1.3180  1.3773
 7514TIP3   OH243956   1.659   4.818   3.801  0.0391 -0.4073  0.2356
 7514TIP3    H143957   1.571   4.853   3.815  0.0022 -0.7553  0.9564
 7514TIP3    H243958   1.683   4.846   3.713 -0.0005  1.4096  0.7699
 7515TIP3   OH243959   2.555   5.466   2.944 -0.6608 -0.0768  0.7175
 7515TIP3    H143960   2.529   5.374   2.942  0.9675 -0.6452  2.5618
 7515TIP3    H243961   2.506   5.507   2.873 -0.4119 -2.6209 -1.0260
 7516TIP3   OH243962   5.059   2.819  16.478 -0.1176  0.3043  0.0072
 7516TIP3    H143963   5.069   2.726  16.457  0.2927  0.0278  1.3146
 7516TIP3    H243964   4.964   2.833  16.480 -0.1796 -0.0589 -0.2909
 7517TIP3   OH243965   0.360   4.368  12.287 -0.0044  0.5654  0.1681
 7517TIP3    H143966   0.388   4.341  12.200  0.5542  0.6007  0.3334
 7517TIP3    H243967   0.327   4.288  12.328  1.0763  0.2439  0.4402
 7518TIP3   OH243968   5.269   5.044  12.435  0.1752 -0.1040 -0.0998
 7518TIP3    H143969   5.312   4.987  12.373 -0.1359 -1.0350  0.5220
 7518TIP3    H243970   5.340   5.084  12.485  0.4815  1.4619 -1.7076
 7519TIP3   OH243971   6.744   0.614   0.306  0.2365  0.1933  0.2189
 7519TIP3    H143972   6.702   0.529   0.321 -1.1663  0.6141 -1.0557
 7519TIP3    H243973   6.674   0.678   0.319  1.6367  1.3420  2.7666
 7520TIP3   OH243974   4.449   0.626  16.314 -0.1578 -0.3379  0.0243
 7520TIP3    H143975   4.476   0.629  16.222 -3.1846 -3.2720 -1.1748
 7520TIP3    H243976   4.529   0.645  16.363  2.1729 -1.0579 -3.1712
 7521TIP3   OH243977   0.322   4.688   5.628  0.3397 -0.1516  0.1299
 7521TIP3    H143978   0.400   4.638   5.653  0.4105  0.0791  0.3768
 7521TIP3    H243979   0.248   4.634   5.656  0.4123 -0.2055  0.2162
 7522TIP3   OH243980   1.442   0.511  13.810 -0.5243  0.2447  0.4559
 7522TIP3    H143981   1.470   0.428  13.849 -0.1088  0.6990  1.1519
 7522TIP3    H243982   1.393   0.486  13.732  1.4063 -0.6117 -0.5386
 7523TIP3   OH243983   3.002   1.851   0.187 -0.3557  0.5134  0.8586
 7523TIP3    H143984   2.964   1.771   0.152  0.0200  0.7184 -0.0386
 7523TIP3    H243985   3.066   1.878   0.122  1.5078  0.0718  2.4325
 7524TIP3   OH243986   5.507   3.552   3.602  0.2578  0.0615  0.4637
 7524TIP3    H143987   5.559   3.542   3.681  0.3448 -1.7219  0.2202
 7524TIP3    H243988   5.568   3.532   3.530 -0.2313 -0.0055  0.0590
 7525TIP3   OH243989   5.578   1.904  12.439 -0.1545  0.1362  0.1380
 7525TIP3    H143990   5.576   1.975  12.503 -0.3006  0.1434  0.1264
 7525TIP3    H243991   5.646   1.845  12.470 -1.0577 -0.4985  0.9799
 7526TIP3   OH243992   1.164   3.660   5.859 -0.3658 -0.0139 -0.7190
 7526TIP3    H143993   1.153   3.748   5.823 -0.6465  0.6401  0.8539
 7526TIP3    H243994   1.258   3.643   5.854 -0.0110  1.2546  0.7968
 7527TIP3   OH243995   0.886   4.173   1.527 -0.4421  0.3332  0.1056
 7527TIP3    H143996   0.971   4.130   1.540 -0.9941 -0.6963  0.4453
 7527TIP3    H243997   0.833   4.143   1.601 -0.6706  2.1347  0.7014
 7528TIP3   OH243998   5.224   4.117  16.953 -0.4430 -0.5517  0.0953
 7528TIP3    H143999   5.267   4.201  16.942  1.5869 -1.7254 -1.7508
 7528TIP3    H244000   5.256   4.084  17.037  0.0990 -0.2047  0.0290
 7529TIP3   OH244001   0.600   6.584   4.060  0.3253 -0.0815  0.2190
 7529TIP3    H144002   0.528   6.630   4.017  0.8904  0.1185 -0.5254
 7529TIP3    H244003   0.657   6.655   4.091  0.9149 -0.2597 -0.4392
 7530TIP3   OH244004   2.265   5.750  14.764 -0.7848 -0.2883  0.3658
 7530TIP3    H144005   2.243   5.675  14.709  1.0717 -0.4660 -0.2065
 7530TIP3    H244006   2.318   5.713  14.835  0.6271  0.5062 -0.2238
 7531TIP3   OH244007   4.289   4.238  16.019 -0.0507 -0.6464 -0.8071
 7531TIP3    H144008   4.220   4.274  15.962  0.7759 -1.6106 -2.4891
 7531TIP3    H244009   4.258   4.150  16.040 -0.3128 -0.3228  0.2077
 7532TIP3   OH244010   3.125   5.206  13.344 -0.0794  0.4584  0.0200
 7532TIP3    H144011   3.199   5.165  13.390  1.2850  1.1231 -1.5079
 7532TIP3    H244012   3.069   5.133  13.320  2.0186 -0.5671 -2.1456
 7533TIP3   OH244013   0.437   5.449   4.273 -0.3600 -0.2524 -0.3982
 7533TIP3    H144014   0.416   5.421   4.362  0.0588  0.5390 -0.0418
 7533TIP3    H244015   0.522   5.409   4.255 -0.0510  0.2842 -0.1247
 7534TIP3   OH244016   1.280   1.386   2.423  0.2835  0.1097  0.3102
 7534TIP3    H144017   1.273   1.324   2.495  0.3474 -1.1813 -0.7545
 7534TIP3    H244018   1.336   1.455   2.456 -0.6908  0.1897  1.9131
 7535TIP3   OH244019   5.463   6.283   2.675 -0.1647  0.0251 -0.4174
 7535TIP3    H144020   5.511   6.286   2.757 -0.6456 -0.5924 -0.1029
 7535TIP3    H244021   5.427   6.371   2.664 -0.7492 -0.1016  0.4308
 7536TIP3   OH244022   1.815   3.396   3.271  0.5729 -0.3844 -0.2727
 7536TIP3    H144023   1.791   3.319   3.219  0.5316  0.0187 -0.8646
 7536TIP3    H244024   1.740   3.455   3.263  0.9064  0.0257 -0.4326
 7537TIP3   OH244025   2.999   3.049   3.330 -0.5243  0.0793  0.5256
 7537TIP3    H144026   2.988   3.029   3.237 -1.4057  0.6500  0.4856
 7537TIP3    H244027   3.090   3.079   3.338  0.1682 -1.8238  0.2253
 7538TIP3   OH244028   1.876   6.233  11.815  0.3843  0.4377 -0.8602
 7538TIP3    H144029   1.928   6.165  11.857 -0.7544  0.4501  0.6523
 7538TIP3    H244030   1.822   6.186  11.751 -2.9022 -0.8186  2.4550
 7539TIP3   OH244031   6.760   2.701  11.665 -0.1177 -0.1384 -0.2683
 7539TIP3    H144032   6.678   2.710  11.615 -0.2220 -0.4544 -0.1516
 7539TIP3    H244033   6.824   2.753  11.615 -0.4671  0.3851 -0.1791
 7540TIP3   OH244034   2.311   2.140  16.705 -0.4779 -0.2223 -0.2526
 7540TIP3    H144035   2.356   2.058  16.724  0.2202  0.3139  0.4732
 7540TIP3    H244036   2.222   2.127  16.736 -0.0415 -0.2814  1.0480
 7541TIP3   OH244037   0.693   4.116   5.166 -0.0720 -0.3364 -0.4699
 7541TIP3    H144038   0.694   4.110   5.262  0.1281 -0.9189 -0.5082
 7541TIP3    H244039   0.753   4.048   5.137 -1.8653 -1.7110 -1.1005
 7542TIP3   OH244040   4.443   6.548   5.868 -0.5074 -0.0949 -0.0442
 7542TIP3    H144041   4.484   6.610   5.929  0.8486  0.5795 -1.5621
 7542TIP3    H244042   4.450   6.591   5.782  0.1423 -2.1607 -1.0899
 7543TIP3   OH244043   2.133   5.447  11.225 -0.3158 -0.4334 -0.3875
 7543TIP3    H144044   2.147   5.533  11.264 -1.9675 -0.3275  0.0422
 7543TIP3    H244045   2.066   5.462  11.158 -0.8498 -1.4294 -0.0898
 7544TIP3   OH244046   1.585   0.016  11.440  0.2896 -0.2120  0.0315
 7544TIP3    H144047   1.624  -0.067  11.467  1.4163  0.3546  0.2099
 7544TIP3    H244048   1.655   0.080  11.451 -0.6566  0.8207  0.1894
 7545TIP3   OH244049   5.232   2.702  11.284  0.3463 -0.4034 -0.8342
 7545TIP3    H144050   5.259   2.610  11.275  1.4568  0.0424 -2.2817
 7545TIP3    H244051   5.297   2.751  11.234 -0.3726  1.1668 -0.2687
 7546TIP3   OH244052   0.246   0.851   0.858  0.0481 -0.2149  0.1253
 7546TIP3    H144053   0.317   0.797   0.894  0.0467 -1.7605 -1.9799
 7546TIP3    H244054   0.169   0.794   0.861 -0.8306  0.9840  1.1586
 7547TIP3   OH244055   1.357   4.845  10.968 -0.1538  0.3824  0.1944
 7547TIP3    H144056   1.451   4.826  10.966 -0.3478 -0.6119 -1.7630
 7547TIP3    H244057   1.352   4.940  10.958  0.6319  0.5958  1.5357
 7548TIP3   OH244058   1.476   5.146  12.442  0.4686  0.1773  0.1972
 7548TIP3    H144059   1.546   5.084  12.422 -1.8589 -2.0982 -1.6299
 7548TIP3    H244060   1.416   5.097  12.497 -1.2861  0.8494 -1.0173
 7549TIP3   OH244061   3.032   5.550   0.838 -0.3832 -0.2038 -0.5749
 7549TIP3    H144062   3.050   5.594   0.755 -1.6124 -1.0229 -1.3087
 7549TIP3    H244063   2.956   5.596   0.874  0.0011 -0.0005 -0.0044
 7550TIP3   OH244064   5.552   6.351   5.407  0.0830 -0.1440 -0.8887
 7550TIP3    H144065   5.631   6.338   5.458  0.3535  0.9268 -1.0013
 7550TIP3    H244066   5.573   6.317   5.320 -0.7095 -2.8942 -0.0985
 7551TIP3   OH244067   5.624   5.166  10.388  0.5918 -0.3010 -0.0787
 7551TIP3    H144068   5.649   5.257  10.371  1.4433  0.1300  2.8912
 7551TIP3    H244069   5.533   5.171  10.417  0.5175 -0.4493 -0.2833
 7552TIP3   OH244070   4.901   4.628  10.864  0.0978 -0.8416  0.0739
 7552TIP3    H144071   4.925   4.568  10.935 -2.2602 -1.1099  0.7318
 7552TIP3    H244072   4.934   4.713  10.892  0.6037 -1.2351  0.7025
 7553TIP3   OH244073   3.706   2.366   5.638  0.3845  0.0770  0.3615
 7553TIP3    H144074   3.664   2.346   5.554 -0.7217  1.8411  0.4541
 7553TIP3    H244075   3.784   2.310   5.640 -1.3046 -2.5079 -0.3350
 7554TIP3   OH244076   5.917   5.293  11.333  0.0427  0.4173  0.1024
 7554TIP3    H144077   5.878   5.342  11.405 -2.3528 -1.5073  0.2231
 7554TIP3    H244078   5.970   5.226  11.375 -0.8715 -0.3259  0.0990
 7555TIP3   OH244079   0.995   6.663  14.812  0.9342 -0.0854  0.0610
 7555TIP3    H144080   1.080   6.661  14.856  0.7741 -0.9576  0.3567
 7555TIP3    H244081   1.017   6.670  14.719  1.2897  0.9919  0.2125
 7556TIP3   OH244082   6.016   5.448  12.647  0.0341 -0.0985  0.2135
 7556TIP3    H144083   5.990   5.490  12.565  0.9306  0.1867  0.0698
 7556TIP3    H244084   6.086   5.387  12.622 -0.0708 -0.4164  0.6837
 7557TIP3   OH244085   4.303   4.255  13.693  0.1414  0.8142 -0.4513
 7557TIP3    H144086   4.258   4.339  13.702 -0.3739  0.6108 -1.0616
 7557TIP3    H244087   4.320   4.227  13.783 -1.0642  0.8466 -0.1911
 7558TIP3   OH244088   3.666   5.259   0.348  0.3101 -0.0925  0.0986
 7558TIP3    H144089   3.605   5.333   0.336  0.6603  0.3016  0.6850
 7558TIP3    H244090   3.661   5.211   0.265  0.2236  0.7027 -0.3792
 7559TIP3   OH244091   6.029   4.974  11.113 -0.0136 -0.0476 -0.3244
 7559TIP3    H144092   6.001   5.064  11.096  1.8591  0.2583 -2.2138
 7559TIP3    H244093   6.103   4.983  11.173 -0.8131 -0.4883  0.7685
 7560TIP3   OH244094   1.212   6.628   2.646 -0.4874 -0.4404 -0.0904
 7560TIP3    H144095   1.242   6.647   2.557 -3.0449 -1.7101 -1.3290
 7560TIP3    H244096   1.130   6.677   2.655 -1.8998 -2.7649  0.3544
 7561TIP3   OH244097   4.270   3.759  15.356 -0.5128 -0.2526  0.4395
 7561TIP3    H144098   4.191   3.750  15.303  0.3096 -0.1098 -0.8603
 7561TIP3    H244099   4.335   3.797  15.297  0.3529  0.2490  1.6570
 7562TIP3   OH244100   0.967   4.220  11.747 -0.0063  0.5664 -0.0386
 7562TIP3    H144101   1.031   4.291  11.749  1.0699 -0.3959  1.5970
 7562TIP3    H244102   0.925   4.229  11.661  1.5695  1.8737 -0.7361
 7563TIP3   OH244103   5.769   5.981  15.047 -0.1583  0.0209  0.5254
 7563TIP3    H144104   5.798   5.890  15.048 -0.0719  0.0039 -0.9854
 7563TIP3    H244105   5.753   6.003  15.139  0.2555 -1.3722  0.9444
 7564TIP3   OH244106   6.336   3.099   3.221  0.1667  0.0869 -0.1389
 7564TIP3    H144107   6.371   3.056   3.144 -1.5540 -2.7561  0.5478
 7564TIP3    H244108   6.255   3.141   3.191  0.1050 -0.0236 -0.1285
 7565TIP3   OH244109   0.198   0.279   4.994  0.2383  0.4240 -0.1309
 7565TIP3    H144110   0.178   0.185   4.996 -0.1566  0.5088  0.0088
 7565TIP3    H244111   0.259   0.289   4.921 -0.1141  0.1339 -0.4688
 7566TIP3   OH244112   4.935   6.199   2.021  0.4120  0.7338  0.4658
 7566TIP3    H144113   4.982   6.158   2.093  1.4122  1.3515  0.1970
 7566TIP3    H244114   4.948   6.293   2.034 -0.8463  0.9371  0.4306
 7567TIP3   OH244115   1.468   4.990   5.613 -0.4945  0.0546  0.0261
 7567TIP3    H144116   1.397   5.004   5.551 -3.4650  0.0703  3.1152
 7567TIP3    H244117   1.472   5.072   5.663 -0.3378 -0.9529  1.7395
 7568TIP3   OH244118   2.892   3.700  15.009 -0.2191 -0.2215 -0.2637
 7568TIP3    H144119   2.836   3.746  14.945  0.1514 -0.1906 -0.5728
 7568TIP3    H244120   2.952   3.768  15.040 -0.0567 -0.3600 -0.2758
 7569TIP3   OH244121   2.538   3.594  12.869 -0.6102 -0.6922 -0.2313
 7569TIP3    H144122   2.572   3.677  12.837 -0.9596  0.4334  2.0995
 7569TIP3    H244123   2.608   3.531  12.851  0.4728  0.4835 -0.2928
 7570TIP3   OH244124   0.128   0.901  13.228  0.0395  0.0466 -0.2486
 7570TIP3    H144125   0.127   0.988  13.188  1.0724 -0.4325 -1.3811
 7570TIP3    H244126   0.206   0.859  13.192 -1.9811 -2.4047 -2.0829
 7571TIP3   OH244127   4.510   0.991  14.837  0.2294 -0.2127 -0.1185
 7571TIP3    H144128   4.536   0.999  14.929 -1.5130  1.4971  0.3064
 7571TIP3    H244129   4.505   1.082  14.806 -0.0859 -0.7185 -1.6356
 7572TIP3   OH244130   2.967   5.454  15.860 -0.3914  0.0784  0.1257
 7572TIP3    H144131   2.977   5.535  15.810  0.2077  0.1229  0.3025
 7572TIP3    H244132   3.006   5.387  15.804 -1.3727 -0.1873 -0.2577
 7573TIP3   OH244133   1.988   4.073  16.797  0.0860 -0.0275  0.7978
 7573TIP3    H144134   1.986   3.982  16.766  0.7173  0.5485 -1.0475
 7573TIP3    H244135   1.947   4.123  16.727  1.4925  1.3360  0.8981
 7574TIP3   OH244136   4.101   1.475   0.540  0.8902 -0.2910  0.0367
 7574TIP3    H144137   4.052   1.399   0.510 -0.2961  0.3160  0.3774
 7574TIP3    H244138   4.173   1.484   0.478 -0.6974  0.1012 -1.8265
 7575TIP3   OH244139   3.550   5.329   2.924  0.1998 -0.2148  0.5429
 7575TIP3    H144140   3.615   5.306   2.991  0.0836 -0.0331  0.7196
 7575TIP3    H244141   3.504   5.246   2.907  0.7130 -0.4213  0.1561
 7576TIP3   OH244142   3.283   5.999  12.216  0.2785  0.0718 -0.0270
 7576TIP3    H144143   3.342   5.970  12.286  1.9445  2.2418 -0.4225
 7576TIP3    H244144   3.238   5.919  12.189  2.0688 -1.4761  1.2057
 7577TIP3   OH244145   0.773   4.765  14.941  0.3941  0.1106 -0.5368
 7577TIP3    H144146   0.776   4.728  14.852  2.0338 -0.7552 -0.1730
 7577TIP3    H244147   0.707   4.712  14.986  1.1540 -0.9656 -0.6372
 7578TIP3   OH244148   2.158   3.250   0.074 -0.0599 -0.5725  0.3819
 7578TIP3    H144149   2.251   3.271   0.065 -0.5863  1.5243 -0.7941
 7578TIP3    H244150   2.150   3.161   0.042  1.4245 -0.4802 -0.3250
 7579TIP3   OH244151   5.353   0.770  13.131  0.1582  0.3786 -0.0204
 7579TIP3    H144152   5.309   0.818  13.061 -0.2466  2.0033  1.2853
 7579TIP3    H244153   5.286   0.713  13.167  0.2212 -0.0596 -0.5780
 7580TIP3   OH244154   2.037   0.904  11.898 -0.2930 -0.1263  0.5225
 7580TIP3    H144155   2.093   0.978  11.922 -0.5627  0.1724  0.2626
 7580TIP3    H244156   1.980   0.891  11.974  0.6772 -0.9736  1.1123
 7581TIP3   OH244157   6.703   0.175   4.699  0.7859  0.3908 -0.3238
 7581TIP3    H144158   6.749   0.124   4.632  1.3721 -0.6965  0.8531
 7581TIP3    H244159   6.757   0.252   4.713  1.8072 -0.4188  0.3691
 7582TIP3   OH244160   1.746   0.840  12.339 -0.1620 -0.3610  0.4402
 7582TIP3    H144161   1.815   0.863  12.401 -2.5651  0.0701  3.1304
 7582TIP3    H244162   1.709   0.924  12.312 -1.0216 -0.6389  0.7319
 7583TIP3   OH244163   5.688   3.549   0.900 -0.0247 -0.0200 -0.5317
 7583TIP3    H144164   5.614   3.493   0.876  0.0714 -1.4310  2.1805
 7583TIP3    H244165   5.766   3.496   0.883  0.2882  0.6819 -1.3753
 7584TIP3   OH244166   1.223   1.183   0.457 -0.0521  0.1645 -0.4279
 7584TIP3    H144167   1.316   1.160   0.464 -0.2179 -0.1902  0.9466
 7584TIP3    H244168   1.204   1.229   0.539 -0.9340  0.8255 -0.9928
 7585TIP3   OH244169   2.215   3.754   6.146  0.1922  0.0390  1.0276
 7585TIP3    H144170   2.285   3.693   6.172  0.7042  0.1123 -0.0959
 7585TIP3    H244171   2.152   3.751   6.218  0.6869 -1.0773  1.4353
 7586TIP3   OH244172   6.122   2.471   3.626 -0.4652 -0.1553 -0.1849
 7586TIP3    H144173   6.192   2.428   3.675 -0.4569 -1.6411 -1.4511
 7586TIP3    H244174   6.143   2.564   3.631  1.0271 -0.4929  0.3199
 7587TIP3   OH244175   1.866   1.076   5.390 -0.4156 -0.6674  0.0149
 7587TIP3    H144176   1.839   1.166   5.409  0.1635 -0.6655  0.8767
 7587TIP3    H244177   1.787   1.024   5.402 -0.5969 -0.3586  0.1630
 7588TIP3   OH244178   5.347   0.802  12.222 -0.3261 -0.3705  0.3898
 7588TIP3    H144179   5.275   0.794  12.160 -0.7409  1.3219  0.6037
 7588TIP3    H244180   5.319   0.752  12.298 -1.2078  0.1349  0.4045
 7589TIP3   OH244181   2.801   3.675   2.313  0.4057  0.3041 -0.1261
 7589TIP3    H144182   2.815   3.769   2.305  0.2891  0.2721 -0.7172
 7589TIP3    H244183   2.787   3.644   2.223 -2.1559  0.1139  0.2793
 7590TIP3   OH244184   4.240   4.281   2.117 -0.5995 -0.1762  0.5166
 7590TIP3    H144185   4.328   4.301   2.151 -0.0550  1.7667 -1.7564
 7590TIP3    H244186   4.181   4.316   2.183  0.3025 -0.7657  1.6897
 7591TIP3   OH244187   2.790   4.651   0.491 -0.2721  0.1436 -0.0890
 7591TIP3    H144188   2.724   4.717   0.470 -0.2522  0.5118  0.9309
 7591TIP3    H244189   2.861   4.667   0.429 -1.0108 -0.0847 -1.0221
 7592TIP3   OH244190   6.198   6.496  16.395 -0.5480 -0.4134  0.1317
 7592TIP3    H144191   6.251   6.574  16.378 -2.7978  1.3500  0.7224
 7592TIP3    H244192   6.256   6.423  16.375  2.0995  1.3632  0.7992
 7593TIP3   OH244193   6.058   5.665   0.551 -0.5338 -0.0601  0.8677
 7593TIP3    H144194   6.115   5.630   0.620  1.5645  0.5472 -0.4438
 7593TIP3    H244195   6.079   5.758   0.548 -0.1336 -0.1669 -0.9382
 7594TIP3   OH244196   5.878   4.971  13.798  0.1910  0.2114 -0.0307
 7594TIP3    H144197   5.925   4.910  13.741  0.1065  1.1036 -1.0946
 7594TIP3    H244198   5.786   4.962  13.772 -0.0872 -0.5640  1.1293
 7595TIP3   OH244199   2.472   3.536   3.853  0.2176  0.1348 -0.0891
 7595TIP3    H144200   2.400   3.551   3.791  0.1031 -0.0655 -0.0075
 7595TIP3    H244201   2.487   3.441   3.849 -0.5041 -0.0387  0.9648
 7596TIP3   OH244202   3.796   0.440   5.063 -0.3421  0.0668  0.4631
 7596TIP3    H144203   3.745   0.375   5.015 -1.0160 -0.1634  1.4437
 7596TIP3    H244204   3.788   0.520   5.011 -0.8499 -0.2347  0.0657
 7597TIP3   OH244205   4.226   0.819  13.302 -0.0153 -0.1507  0.2574
 7597TIP3    H144206   4.311   0.819  13.347  1.1393 -1.9881 -1.7029
 7597TIP3    H244207   4.221   0.906  13.261  1.2942 -0.2590 -0.1816
 7598TIP3   OH244208   0.199   3.269   3.229  0.0302 -0.0200  0.1617
 7598TIP3    H144209   0.164   3.338   3.172  1.4322  0.9491  0.4287
 7598TIP3    H244210   0.121   3.230   3.268 -0.8569  0.7571 -0.7296
 7599TIP3   OH244211   4.490   5.268   2.916 -0.3759  0.1271  0.5129
 7599TIP3    H144212   4.418   5.266   2.980 -0.5001 -1.9710  0.3640
 7599TIP3    H244213   4.458   5.216   2.843  0.7791  0.3673 -0.1734
 7600TIP3   OH244214   2.797   3.504  13.666  0.0110 -0.2877  0.1147
 7600TIP3    H144215   2.855   3.535  13.597 -0.5373  1.2109  0.2783
 7600TIP3    H244216   2.846   3.517  13.747  0.4301 -1.4960  0.0718
 7601TIP3   OH244217   4.171   1.133  16.324  0.1684 -0.4086  0.3530
 7601TIP3    H144218   4.088   1.173  16.348 -0.6469 -1.5768 -0.4074
 7601TIP3    H244219   4.181   1.153  16.231  1.2823  0.6147  0.6619
 7602TIP3   OH244220   2.629   4.964   4.004 -0.5692 -0.7036  0.2310
 7602TIP3    H144221   2.654   4.982   3.914 -0.8982  0.2134  0.3149
 7602TIP3    H244222   2.601   4.872   4.004  0.4610 -1.0405 -0.3647
 7603TIP3   OH244223   3.852   5.534  16.323 -0.1344  0.1022 -0.5440
 7603TIP3    H144224   3.780   5.591  16.348 -0.7828 -0.5739 -0.8026
 7603TIP3    H244225   3.895   5.511  16.405 -1.4244 -1.0390 -0.1446
 7604TIP3   OH244226   2.999   5.517  14.165 -0.1528 -0.3390 -0.0775
 7604TIP3    H144227   3.045   5.519  14.249 -0.7946 -0.5679  0.2853
 7604TIP3    H244228   3.068   5.526  14.100  0.6511 -2.6968  0.3586
 7605TIP3   OH244229   5.360   2.967  16.345 -0.5180  0.1922 -0.0775
 7605TIP3    H144230   5.283   3.020  16.365 -0.8983 -0.5646  0.5212
 7605TIP3    H244231   5.333   2.912  16.272 -0.6196 -0.2168  0.2651
 7606TIP3   OH244232   0.446   2.076   3.562 -0.7982 -0.0134 -0.2969
 7606TIP3    H144233   0.372   2.052   3.508  0.2673 -0.2886 -1.6887
 7606TIP3    H244234   0.478   1.993   3.598 -1.1615  0.1054  0.3111
 7607TIP3   OH244235   5.792   2.674  12.453  0.4209  0.2045 -0.4867
 7607TIP3    H144236   5.882   2.644  12.467 -0.0910 -1.3283 -0.3364
 7607TIP3    H244237   5.789   2.760  12.495  1.2636 -0.6102  1.3749
 7608TIP3   OH244238   1.867   6.150  12.284 -0.6984 -0.3307 -0.3994
 7608TIP3    H144239   1.843   6.222  12.342 -1.8868 -0.6402 -0.4916
 7608TIP3    H244240   1.939   6.105  12.329 -1.3799 -0.3639  0.6621
 7609TIP3   OH244241   5.871   1.582  16.548 -0.3310 -0.2632  0.0898
 7609TIP3    H144242   5.934   1.513  16.566 -0.7537 -0.5791  0.3721
 7609TIP3    H244243   5.924   1.653  16.511  0.1380 -0.6482  0.0038
 7610TIP3   OH244244   5.384   3.872  15.956 -0.4238 -0.0037 -0.4446
 7610TIP3    H144245   5.462   3.830  15.993 -0.6529  0.8039  1.0487
 7610TIP3    H244246   5.413   3.911  15.874  0.7341  0.2087  0.0490
 7611TIP3   OH244247   0.321   5.823   4.194 -0.6351  0.3712  0.3761
 7611TIP3    H144248   0.369   5.776   4.263 -1.0710 -0.9199 -0.1690
 7611TIP3    H244249   0.386   5.838   4.125 -0.7449 -0.4434  0.0830
 7612TIP3   OH244250   3.985   5.034  13.209 -0.4219  0.5092  0.4864
 7612TIP3    H144251   3.939   5.031  13.292 -0.0898  0.9455  0.6908
 7612TIP3    H244252   4.020   4.946  13.197 -2.9500 -0.4276 -0.6291
 7613TIP3   OH244253   2.007   6.067   2.616 -0.2785 -0.0648 -0.0209
 7613TIP3    H144254   2.043   6.100   2.534  0.6078  1.4162  0.9118
 7613TIP3    H244255   1.928   6.019   2.591 -1.3203  2.2936 -1.5507
 7614TIP3   OH244256   2.886   2.141  13.971  0.1788 -0.4320 -0.8279
 7614TIP3    H144257   2.863   2.050  13.950 -1.2874 -0.7504  1.6071
 7614TIP3    H244258   2.860   2.191  13.894 -3.5383 -1.5744 -0.5405
 7615TIP3   OH244259   0.738   3.697   5.729  0.1050  0.2413  0.8445
 7615TIP3    H144260   0.752   3.769   5.790  0.4319  1.6671 -0.8230
 7615TIP3    H244261   0.780   3.727   5.648 -1.7376 -0.8456 -0.5688
 7616TIP3   OH244262   6.622   4.689   0.891  0.5841  0.0665 -0.4158
 7616TIP3    H144263   6.574   4.725   0.965 -0.2891 -0.7220 -0.5681
 7616TIP3    H244264   6.588   4.736   0.815 -0.4549 -0.9271 -0.5984
 7617TIP3   OH244265   4.306   3.946  14.209 -0.2047 -0.2663 -0.2688
 7617TIP3    H144266   4.292   4.034  14.246 -1.3070 -0.8146  0.6735
 7617TIP3    H244267   4.243   3.941  14.137 -0.8524 -0.6274  0.3081
 7618TIP3   OH244268   6.568   0.857   3.763 -0.2185  0.4913 -0.0588
 7618TIP3    H144269   6.474   0.871   3.775 -0.2349 -0.1265  0.6381
 7618TIP3    H244270   6.574   0.789   3.697 -0.4397 -2.2721  2.5199
 7619TIP3   OH244271   1.306   6.454  13.815 -0.1267 -0.3528 -0.0702
 7619TIP3    H144272   1.225   6.424  13.857 -0.2119  0.8100  0.6414
 7619TIP3    H244273   1.285   6.542  13.783  0.6341 -0.3443 -0.5634
 7620TIP3   OH244274   0.117   0.188   0.701  0.3526 -0.0698  0.2601
 7620TIP3    H144275   0.122   0.200   0.796 -1.0678  0.8518  0.2490
 7620TIP3    H244276   0.107   0.093   0.690 -2.2761 -0.0077  1.2611
 7621TIP3   OH244277   3.375   5.576  14.672  0.0369 -0.1343  0.5136
 7621TIP3    H144278   3.456   5.525  14.681  0.5050  0.7402  1.4689
 7621TIP3    H244279   3.323   5.553  14.748  0.6906  1.5237  1.5169
 7622TIP3   OH244280   3.484   5.345   4.927  0.2739  0.4178 -0.3360
 7622TIP3    H144281   3.556   5.409   4.933 -1.0014  1.8837  0.0686
 7622TIP3    H244282   3.447   5.359   4.840 -0.6144  0.9389  0.1078
 7623TIP3   OH244283   1.261   6.221  11.711 -0.0179  0.3398 -0.2224
 7623TIP3    H144284   1.210   6.260  11.640 -0.6608 -0.1457 -0.0387
 7623TIP3    H244285   1.229   6.264  11.790 -0.1304  0.0473 -0.1079
 7624TIP3   OH244286   5.019   6.669   5.249  0.2969  0.3854  0.0208
 7624TIP3    H144287   5.079   6.734   5.287 -0.9225  0.8808  1.1733
 7624TIP3    H244288   5.076   6.595   5.227  1.2844  0.5923  1.6414
 7625TIP3   OH244289   4.693   4.872  15.804 -0.0292  0.0289 -0.3343
 7625TIP3    H144290   4.671   4.799  15.746 -2.6873  0.5203 -0.1084
 7625TIP3    H244291   4.729   4.831  15.882 -1.4988 -1.0984 -0.1969
 7626TIP3   OH244292   3.920   3.646   3.552 -0.0243  0.3080  0.5181
 7626TIP3    H144293   3.848   3.684   3.502  1.1327  1.0109 -0.7119
 7626TIP3    H244294   3.979   3.721   3.568  1.6710 -0.6554 -0.7994
 7627TIP3   OH244295   5.582   2.211   5.492 -0.2951  0.6368 -0.5242
 7627TIP3    H144296   5.503   2.255   5.461  0.7772  2.5980 -0.6101
 7627TIP3    H244297   5.647   2.225   5.422  0.9617  1.5811  0.7841
 7628TIP3   OH244298   4.789   3.509   3.331  0.2155 -0.0973  0.2756
 7628TIP3    H144299   4.808   3.470   3.246  2.0567  1.2439  0.0167
 7628TIP3    H244300   4.712   3.564   3.315 -0.6467 -1.3485 -0.0179
 7629TIP3   OH244301   5.515   3.391   4.871 -0.5151  0.5242  0.1283
 7629TIP3    H144302   5.608   3.415   4.875 -0.8532  1.7596  1.1268
 7629TIP3    H244303   5.469   3.474   4.866 -1.5713 -0.0933 -0.8240
 7630TIP3   OH244304   5.023   0.001   1.208 -0.1900  0.3663 -0.3316
 7630TIP3    H144305   5.088  -0.068   1.217 -0.3510  0.2944  0.3667
 7630TIP3    H244306   4.959  -0.017   1.277 -1.0982  0.2763 -1.1643
 7631TIP3   OH244307   0.147   6.136   2.795  0.0337 -0.2137  0.3538
 7631TIP3    H144308   0.207   6.067   2.823 -0.3805 -0.4529  0.6749
 7631TIP3    H244309   0.145   6.129   2.699  1.4920  0.6416  0.2401
 7632TIP3   OH244310   0.968   4.856  14.077  0.7918 -0.5387  0.6186
 7632TIP3    H144311   1.052   4.817  14.053  1.1990  0.7216 -0.0920
 7632TIP3    H244312   0.936   4.896  13.996 -0.6135 -1.1994  0.8246
 7633TIP3   OH244313   1.256   1.513  11.464  0.3020  0.5867 -0.1223
 7633TIP3    H144314   1.327   1.574  11.441  0.2859  0.2970 -0.9734
 7633TIP3    H244315   1.282   1.430  11.425 -0.9795  0.7163 -1.3268
 7634TIP3   OH244316   3.275   1.327   4.753 -0.2236  0.2076  0.8758
 7634TIP3    H144317   3.318   1.286   4.678 -0.9668  3.4555 -1.5464
 7634TIP3    H244318   3.189   1.285   4.757  0.3947 -1.1190  1.0180
 7635TIP3   OH244319   6.439   5.908   2.879 -0.2582 -0.3857  0.1628
 7635TIP3    H144320   6.443   5.922   2.974  2.8944 -0.3116  0.1143
 7635TIP3    H244321   6.512   5.849   2.860 -1.1055 -0.7673 -2.1848
 7636TIP3   OH244322   6.550   6.478   4.075 -0.2180 -0.5197 -0.2365
 7636TIP3    H144323   6.606   6.449   4.147 -1.5093 -1.5228  0.3954
 7636TIP3    H244324   6.541   6.573   4.089 -0.0533 -0.6249  0.6529
 7637TIP3   OH244325   1.939   2.009   2.003  0.1398 -0.7981  0.1190
 7637TIP3    H144326   1.923   2.039   2.093  1.2323  2.3800 -0.6187
 7637TIP3    H244327   1.852   2.005   1.964 -0.1237  2.0685  0.1868
 7638TIP3   OH244328   3.212   4.426  16.161  0.3622 -0.2749 -0.3647
 7638TIP3    H144329   3.282   4.392  16.106  0.9952 -0.7745  0.7046
 7638TIP3    H244330   3.243   4.512  16.191  0.9608 -0.8940  0.8576
 7639TIP3   OH244331   4.851   0.959  13.761 -0.7842  0.1550  0.6015
 7639TIP3    H144332   4.843   1.053  13.777 -1.2711  0.0659  0.9074
 7639TIP3    H244333   4.927   0.951  13.704 -0.9006  0.7563  0.3547
 7640TIP3   OH244334   0.961   2.305  15.495 -0.0140  0.1800  0.1074
 7640TIP3    H144335   0.982   2.343  15.410  1.5390 -0.8054  0.0099
 7640TIP3    H244336   1.004   2.219  15.494  1.3152  0.7276  2.4181
 7641TIP3   OH244337   3.790   5.113   5.370  0.3460 -0.6279  0.5347
 7641TIP3    H144338   3.833   5.166   5.437  0.4594 -0.9172  0.6883
 7641TIP3    H244339   3.715   5.167   5.342  1.7970  0.6961 -1.0184
 7642TIP3   OH244340   5.150   2.549   5.571 -0.5532 -0.8426 -0.7313
 7642TIP3    H144341   5.101   2.624   5.537  1.6844  0.4873 -1.2695
 7642TIP3    H244342   5.198   2.515   5.495  2.1707  0.2692  0.3538
 7643TIP3   OH244343   1.360   2.350   2.712  0.0384  0.8245 -0.0602
 7643TIP3    H144344   1.364   2.275   2.772  0.8186 -0.4832 -1.6517
 7643TIP3    H244345   1.345   2.425   2.769 -0.1364 -0.4449  1.6780
 7644TIP3   OH244346   4.737   3.051  14.002  0.1507  0.1105  0.8211
 7644TIP3    H144347   4.705   3.132  14.040 -0.0384 -0.5208  2.0760
 7644TIP3    H244348   4.672   2.985  14.027  0.8420 -0.6211  0.7722
 7645TIP3   OH244349   3.975   5.217   2.926  0.0274 -0.5716 -0.0667
 7645TIP3    H144350   3.905   5.260   2.976 -0.3686 -0.7982 -0.4154
 7645TIP3    H244351   3.977   5.127   2.960  1.0717 -0.2062  0.8858
 7646TIP3   OH244352   3.713   6.057   0.596  0.0331  0.8306  0.6799
 7646TIP3    H144353   3.629   6.033   0.557  0.3689  0.0797  0.4083
 7646TIP3    H244354   3.727   6.147   0.566  1.4830 -0.4458 -3.1963
 7647TIP3   OH244355   4.262   0.516   2.876 -0.5030  0.0075  0.1133
 7647TIP3    H144356   4.332   0.507   2.942  0.1584  0.2576 -0.5399
 7647TIP3    H244357   4.278   0.602   2.836 -0.4355 -0.4557 -0.8828
 7648TIP3   OH244358   0.073   0.483   5.441 -0.1985  0.0577 -0.2110
 7648TIP3    H144359   0.086   0.568   5.400 -1.8246 -0.6023 -2.2308
 7648TIP3    H244360   0.032   0.503   5.525 -2.4202  1.2384 -1.5006
 7649TIP3   OH244361   2.599   1.404  11.836 -1.0149 -0.5881 -0.0309
 7649TIP3    H144362   2.670   1.416  11.773  1.6795 -0.4046  2.7821
 7649TIP3    H244363   2.580   1.311  11.833 -0.5651 -0.6659 -0.7259
 7650TIP3   OH244364   4.225   3.299  14.544  0.1698 -0.2870  0.0457
 7650TIP3    H144365   4.273   3.377  14.572  0.5853 -0.2561 -0.7211
 7650TIP3    H244366   4.270   3.227  14.588 -0.1420 -0.1171  0.6628
 7651TIP3   OH244367   3.266   4.374  12.112  0.0599 -0.0972 -0.1610
 7651TIP3    H144368   3.275   4.452  12.168  0.9431  0.9833 -1.7414
 7651TIP3    H244369   3.175   4.377  12.081 -0.4402 -0.7060  1.1553
 7652TIP3   OH244370   4.445   0.906  13.509 -0.1607  0.0665 -0.6244
 7652TIP3    H144371   4.457   1.001  13.512  1.0132 -0.0799  1.5136
 7652TIP3    H244372   4.442   0.879  13.601 -2.1766 -1.8139 -1.1414
 7653TIP3   OH244373   6.662   0.329   4.281 -0.2350  0.2837  0.3129
 7653TIP3    H144374   6.711   0.246   4.283  0.8753  0.9401  0.8832
 7653TIP3    H244375   6.649   0.346   4.188  0.2396 -0.1167  0.1687
 7654TIP3   OH244376   5.454   1.635   3.583  0.1974 -0.1499  0.1652
 7654TIP3    H144377   5.485   1.647   3.494 -2.7907 -0.7211 -1.0787
 7654TIP3    H244378   5.454   1.723   3.621  0.6612  0.2274 -0.6836
 7655TIP3   OH244379   4.591   2.378   3.994 -0.6183  0.1493  0.5948
 7655TIP3    H144380   4.602   2.459   4.045 -0.3288 -0.5653  1.6922
 7655TIP3    H244381   4.670   2.373   3.939 -1.1463  1.1578 -0.2991
 7656TIP3   OH244382   4.124   1.212  15.573 -0.5565 -0.0735  0.5814
 7656TIP3    H144383   4.131   1.120  15.598 -1.1559  0.2379  2.0143
 7656TIP3    H244384   4.208   1.233  15.533 -0.2808 -1.1491  0.5766
 7657TIP3   OH244385   3.684   3.835  16.941  0.0514 -0.7642 -0.2490
 7657TIP3    H144386   3.680   3.891  17.019 -1.7610  0.9511 -1.4706
 7657TIP3    H244387   3.776   3.838  16.915  0.1748  0.9317  0.2594
 7658TIP3   OH244388   5.492   1.185  14.343 -0.4666  0.0653 -0.1542
 7658TIP3    H144389   5.501   1.140  14.427  0.8803  1.1299  0.3152
 7658TIP3    H244390   5.419   1.142  14.300 -0.8764 -0.8189  1.3657
 7659TIP3   OH244391   5.257   1.342   2.409  0.1463  0.1099  0.0915
 7659TIP3    H144392   5.284   1.252   2.426  0.1293 -0.0144 -0.5205
 7659TIP3    H244393   5.310   1.369   2.334  0.0839  0.5775  0.2148
 7660TIP3   OH244394   5.859   6.354  14.299 -0.2350  0.9549  0.1001
 7660TIP3    H144395   5.935   6.371  14.355  0.4981  1.2349 -0.9650
 7660TIP3    H244396   5.795   6.420  14.325 -0.1914  0.6097  1.1229
 7661TIP3   OH244397   4.003   1.567  13.830 -0.5746  0.4288 -0.2793
 7661TIP3    H144398   4.044   1.551  13.745 -2.9153  1.2721 -1.6476
 7661TIP3    H244399   4.077   1.577  13.890  1.1465 -0.6699 -2.0846
 7662TIP3   OH244400   1.447   0.488  14.303  0.5706  0.2419 -0.4451
 7662TIP3    H144401   1.402   0.565  14.338 -2.0555 -0.7845 -1.3320
 7662TIP3    H244402   1.414   0.415  14.355  2.3849 -0.4394 -0.1704
 7663TIP3   OH244403   0.161   4.208  11.950  0.1785 -0.6086 -0.2360
 7663TIP3    H144404   0.115   4.187  12.031 -0.0668  1.1173  0.0946
 7663TIP3    H244405   0.111   4.280  11.912  1.4617 -0.0465 -0.9023
 7664TIP3   OH244406   1.863   3.047  11.088  0.5297 -0.1401 -0.2829
 7664TIP3    H144407   1.842   2.965  11.133  0.9051  0.7104  1.5374
 7664TIP3    H244408   1.795   3.108  11.117  1.0076  0.5434 -0.5709
 7665TIP3   OH244409   6.717   4.221   6.197  0.2606 -0.2729 -0.2255
 7665TIP3    H144410   6.635   4.271   6.190 -0.9512 -2.2199 -0.7362
 7665TIP3    H244411   6.712   4.180   6.283  0.7901 -0.2954 -0.2025
 7666TIP3   OH244412   1.603   3.059  13.865  0.0501 -0.0924 -0.4852
 7666TIP3    H144413   1.648   2.981  13.832  0.8985 -0.3935  1.2833
 7666TIP3    H244414   1.615   3.124  13.795  0.8017 -1.0298 -1.2593
 7667TIP3   OH244415   3.825   3.760   6.546  0.3475 -0.1733 -0.4543
 7667TIP3    H144416   3.907   3.759   6.595  0.1959  0.6715 -0.1553
 7667TIP3    H244417   3.835   3.833   6.484 -0.1707 -0.0719 -0.4225
 7668TIP3   OH244418   1.987   0.951   1.050  0.3556  0.0426  0.2307
 7668TIP3    H144419   1.967   0.876   0.995  1.1018  0.6061 -0.8649
 7668TIP3    H244420   2.030   0.914   1.127 -2.8963 -0.9844  1.6847
 7669TIP3   OH244421   1.381   2.617  16.600 -0.2837 -0.2761  0.1842
 7669TIP3    H144422   1.441   2.550  16.568  0.8170  1.0882 -0.7517
 7669TIP3    H244423   1.429   2.658  16.673 -0.3534  0.3678 -0.1231
 7670TIP3   OH244424   2.301   5.784   2.181 -0.3721 -0.4854 -0.1430
 7670TIP3    H144425   2.303   5.816   2.091 -0.6742 -3.4212 -1.3069
 7670TIP3    H244426   2.212   5.750   2.192 -0.1290 -0.7802  1.0247
 7671TIP3   OH244427   1.170   6.382  15.739 -0.6159  0.0659 -0.2736
 7671TIP3    H144428   1.245   6.402  15.684  0.7942  0.4030  1.6888
 7671TIP3    H244429   1.098   6.433  15.701  0.5810  1.1909 -1.1003
 7672TIP3   OH244430   2.478   5.231  12.569 -0.1031 -0.3421  0.4064
 7672TIP3    H144431   2.437   5.253  12.485 -3.3236 -2.0336  1.3488
 7672TIP3    H244432   2.427   5.280  12.634  1.8916  0.4163  1.4631
 7673TIP3   OH244433   0.027   0.707   0.912  0.0654 -0.4252  0.1859
 7673TIP3    H144434  -0.024   0.727   0.991 -1.1448  0.1140 -0.7032
 7673TIP3    H244435  -0.037   0.707   0.841  1.0399 -1.4421 -0.7440
 7674TIP3   OH244436   1.623   1.101   5.040 -0.6670  0.0027  0.5871
 7674TIP3    H144437   1.675   1.021   5.040 -0.2227  0.2819  0.1825
 7674TIP3    H244438   1.687   1.171   5.051 -1.0723  0.2924  1.1432
 7675TIP3   OH244439   5.600   2.964   5.179  0.2394 -0.2029  0.2623
 7675TIP3    H144440   5.526   2.948   5.121  0.7790  0.8925 -0.7602
 7675TIP3    H244441   5.568   3.030   5.241 -0.3901 -1.4925  1.3749
 7676TIP3   OH244442   0.840   3.776  16.813 -0.1037 -0.0099 -0.2742
 7676TIP3    H144443   0.754   3.743  16.786  0.0888 -2.0013  1.3161
 7676TIP3    H244444   0.825   3.869  16.830 -1.8647 -0.2344 -0.3560
 7677TIP3   OH244445   5.131   4.192   5.583 -0.0124 -0.5349 -0.5361
 7677TIP3    H144446   5.065   4.229   5.525  0.1345  1.7883  0.6396
 7677TIP3    H244447   5.083   4.128   5.636 -0.9532 -0.0910 -0.8241
 7678TIP3   OH244448   1.136   3.655   3.693  0.1813 -0.0914  0.3059
 7678TIP3    H144449   1.096   3.580   3.737 -1.5215  0.8892  0.4764
 7678TIP3    H244450   1.196   3.615   3.629 -0.8968 -1.6084  0.1895
 7679TIP3   OH244451   0.600   6.012   5.948  0.2071 -0.0964  0.1081
 7679TIP3    H144452   0.687   6.049   5.933  0.1478  0.3516  0.8349
 7679TIP3    H244453   0.543   6.062   5.889  0.3700 -0.0855 -0.0409
 7680TIP3   OH244454   0.204   6.253  17.244 -0.3702 -0.1251  0.0431
 7680TIP3    H144455   0.215   6.175  17.298  0.4743 -0.8342 -1.1072
 7680TIP3    H244456   0.224   6.326  17.303  0.3009 -0.8618  0.7448
 7681TIP3   OH244457   0.308   3.276  12.597 -0.7987  0.4551 -0.0597
 7681TIP3    H144458   0.312   3.369  12.577  1.3435  0.2188 -0.9520
 7681TIP3    H244459   0.355   3.267  12.679 -2.2720  0.2973  0.8137
 7682TIP3   OH244460   0.336   0.516  13.723  0.3939  0.3176  0.4099
 7682TIP3    H144461   0.327   0.573  13.799  0.7977  0.9921 -0.0363
 7682TIP3    H244462   0.425   0.532  13.692  0.6215 -0.7752  0.4421
 7683TIP3   OH244463   2.696   1.227  14.840 -0.7733  0.6299 -0.2127
 7683TIP3    H144464   2.635   1.199  14.772 -0.2311  0.3997 -0.6139
 7683TIP3    H244465   2.705   1.321  14.826  0.3792  0.3817 -1.3506
 7684TIP3   OH244466   0.174   1.993   1.985  0.7426 -0.0391  0.0845
 7684TIP3    H144467   0.203   1.920   2.041  0.0741 -0.6029 -0.2798
 7684TIP3    H244468   0.139   1.950   1.907 -0.3390  0.6434  0.1820
 7685TIP3   OH244469   5.157   4.581  14.125 -0.0711 -0.2915  0.2941
 7685TIP3    H144470   5.134   4.665  14.085  1.4420  0.6874  1.3869
 7685TIP3    H244471   5.079   4.526  14.112 -0.9530  1.1406 -0.7663
 7686TIP3   OH244472   0.206   0.205   1.338 -0.1193  0.0198  0.0885
 7686TIP3    H144473   0.141   0.265   1.302 -1.3758 -1.5758 -0.4268
 7686TIP3    H244474   0.266   0.189   1.265 -0.8915 -0.8066 -0.3904
 7687TIP3   OH244475   6.680   6.154   1.906  0.7190 -0.2411  0.3049
 7687TIP3    H144476   6.630   6.128   1.829  1.9799  2.8104 -1.7280
 7687TIP3    H244477   6.770   6.126   1.887  1.2785  1.6442 -0.0047
 7688TIP3   OH244478   6.431   3.533   4.057 -0.0757  0.2285 -0.1457
 7688TIP3    H144479   6.387   3.560   3.976  1.9256 -1.1832 -1.7964
 7688TIP3    H244480   6.522   3.559   4.045  0.4407 -0.7619  1.3016
 7689TIP3   OH244481   5.600   4.252   4.816 -0.2963  0.3339 -0.0126
 7689TIP3    H144482   5.544   4.327   4.839  0.3684  1.4124 -1.7119
 7689TIP3    H244483   5.563   4.220   4.734 -0.0105 -0.6434  0.2352
 7690TIP3   OH244484   3.063   0.336   6.124  0.4822 -0.3952 -0.2314
 7690TIP3    H144485   3.055   0.287   6.206  0.3016 -0.1062 -0.0750
 7690TIP3    H244486   2.972   0.349   6.096  0.4592  1.0264  0.4252
 7691TIP3   OH244487   3.309   1.287   4.220 -0.0523 -0.0365 -0.1476
 7691TIP3    H144488   3.324   1.267   4.128 -3.2728  2.7296 -1.4902
 7691TIP3    H244489   3.305   1.202   4.263  0.4862 -1.4657 -2.7313
 7692TIP3   OH244490   4.492   6.600  13.784  0.3953  0.1466  0.0347
 7692TIP3    H144491   4.567   6.568  13.734  0.6023  0.2754  0.2572
 7692TIP3    H244492   4.440   6.648  13.721 -0.2917 -1.2158 -0.4753
 7693TIP3   OH244493   5.358   2.483  10.993  0.1748  0.2882 -0.5467
 7693TIP3    H144494   5.322   2.499  11.080  0.3872 -1.1943 -0.1723
 7693TIP3    H244495   5.439   2.535  10.991 -0.2253  0.9433 -0.1638
 7694TIP3   OH244496   5.495   6.438  14.612 -0.2476 -0.0239 -0.2428
 7694TIP3    H144497   5.433   6.417  14.542  0.4086 -0.3648 -0.7291
 7694TIP3    H244498   5.449   6.415  14.692 -0.1804 -1.7933 -0.6751
 7695TIP3   OH244499   6.415   2.803   2.417 -0.1339 -0.1238  0.4016
 7695TIP3    H144500   6.505   2.827   2.439 -0.1892  0.1281  0.3508
 7695TIP3    H244501   6.363   2.841   2.487 -0.3353  0.8693 -0.2625
 7696TIP3   OH244502   1.240   3.783  12.593  0.0150 -0.0408  0.6095
 7696TIP3    H144503   1.150   3.767  12.619 -0.2075  0.6234  0.2680
 7696TIP3    H244504   1.272   3.699  12.560 -0.7471 -0.0684 -0.0765
 7697TIP3   OH244505   6.212   1.010   0.252 -0.4092  0.6712  0.5352
 7697TIP3    H144506   6.183   1.085   0.200 -0.4780  0.5988  0.4704
 7697TIP3    H244507   6.160   1.016   0.333  0.4994  1.4331  1.0818
 7698TIP3   OH244508   0.926   0.003  11.738 -0.0329 -0.4215  0.4908
 7698TIP3    H144509   0.876  -0.047  11.674  0.5616  1.0699 -1.2399
 7698TIP3    H244510   0.867   0.073  11.766  0.1581 -0.2748  0.5322
 7699TIP3   OH244511   5.715   5.082  13.528 -0.3425 -0.3513  0.0774
 7699TIP3    H144512   5.695   5.000  13.484 -2.5094 -0.8187  1.7379
 7699TIP3    H244513   5.802   5.106  13.497 -0.3599 -2.3719 -1.7530
 7700TIP3   OH244514   2.481   2.072   2.810  0.0048  0.1114  0.0825
 7700TIP3    H144515   2.542   2.121   2.756  1.6527 -0.5300  1.2996
 7700TIP3    H244516   2.500   1.980   2.791  0.0527 -0.1111  1.1185
 7701TIP3   OH244517   1.128   4.510  13.819  0.0236 -0.7930  0.9121
 7701TIP3    H144518   1.212   4.503  13.863  1.3893  1.9979 -0.9632
 7701TIP3    H244519   1.144   4.473  13.732 -0.5423  0.1224  0.4083
 7702TIP3   OH244520   0.409   2.975  11.644  0.8859 -0.0075 -0.4676
 7702TIP3    H144521   0.408   3.070  11.633  0.6715  0.0708  0.1917
 7702TIP3    H244522   0.501   2.954  11.663  0.5056  0.4631  2.4262
 7703TIP3   OH244523   1.616   2.102   1.163  0.1617  0.3853  0.6784
 7703TIP3    H144524   1.561   2.181   1.158 -0.2246  0.1137  0.5884
 7703TIP3    H244525   1.607   2.072   1.253  0.6668  0.6937  0.8362
 7704TIP3   OH244526   2.982   0.958   2.607 -0.1543 -0.0593  0.3232
 7704TIP3    H144527   2.942   0.999   2.683 -0.1195 -1.4177  1.1005
 7704TIP3    H244528   3.037   1.026   2.569  0.0870  0.5505  1.7121
 7705TIP3   OH244529   4.815   2.285   2.638  0.2986  0.2939  0.5515
 7705TIP3    H144530   4.741   2.291   2.698 -1.7214 -2.6225 -1.3607
 7705TIP3    H244531   4.792   2.342   2.565 -0.2908 -0.8258 -0.1724
 7706TIP3   OH244532   0.102   0.525  13.935 -0.2411 -0.2902 -0.1852
 7706TIP3    H144533   0.098   0.456  13.868  0.1941  0.8081 -1.3758
 7706TIP3    H244534   0.135   0.480  14.013 -1.2907 -1.7217 -0.5227
 7707TIP3   OH244535   5.821   0.823  12.061 -0.0547  0.9252  0.0943
 7707TIP3    H144536   5.874   0.775  11.997 -1.4064  1.8257 -1.7951
 7707TIP3    H244537   5.886   0.869  12.115  1.1457 -0.4451 -0.1112
 7708TIP3   OH244538   1.267   5.188   4.402 -0.0282 -0.2256  0.8958
 7708TIP3    H144539   1.277   5.281   4.384 -1.3632 -0.0943  0.7273
 7708TIP3    H244540   1.301   5.145   4.323  1.8733  0.0323  1.5182
 7709TIP3   OH244541   4.716   0.876  15.810 -0.2103  0.1534  0.5362
 7709TIP3    H144542   4.763   0.812  15.757  1.1141  0.5277  1.2155
 7709TIP3    H244543   4.725   0.958  15.763 -3.3467 -0.3569 -1.2198
 7710TIP3   OH244544   3.707   4.404  13.779  0.0436  0.0599 -0.5940
 7710TIP3    H144545   3.668   4.317  13.779 -0.6874  0.3737 -1.1925
 7710TIP3    H244546   3.786   4.395  13.727 -0.2626 -0.1562 -1.0342
 7711TIP3   OH244547   5.808   6.493  12.434 -0.4022 -0.2946  0.5793
 7711TIP3    H144548   5.725   6.525  12.398 -0.8548 -1.3408  0.6486
 7711TIP3    H244549   5.782   6.420  12.491  0.4109  0.4751  1.9837
 7712TIP3   OH244550   0.618   3.236  12.164  0.0771 -0.2152  0.2662
 7712TIP3    H144551   0.707   3.223  12.195 -0.1617  1.1609  1.6580
 7712TIP3    H244552   0.621   3.318  12.116 -0.2699 -0.6192 -0.4614
 7713TIP3   OH244553   5.097   4.008  14.757 -0.1602 -0.0302 -0.0494
 7713TIP3    H144554   5.161   4.037  14.692 -0.2167 -0.6283 -0.3764
 7713TIP3    H244555   5.144   4.012  14.840 -0.4514  1.8932  0.0580
 7714TIP3   OH244556   2.999   1.887   6.603  0.2602 -0.0423 -0.2462
 7714TIP3    H144557   2.972   1.975   6.579  0.8216  0.0507 -0.5294
 7714TIP3    H244558   3.092   1.894   6.626  0.1198 -0.4089  0.5024
 7715TIP3   OH244559   6.628   6.367  13.864 -0.0766 -0.2364 -0.2322
 7715TIP3    H144560   6.653   6.307  13.935 -2.8361 -1.6134 -0.2952
 7715TIP3    H244561   6.611   6.309  13.789 -0.0815  0.9226 -1.1481
 7716TIP3   OH244562   3.912   0.066  16.878  0.5305  0.2266  0.3242
 7716TIP3    H144563   3.819   0.052  16.895  0.7655  0.0659  1.5554
 7716TIP3    H244564   3.955  -0.014  16.908  1.2675  1.1298  1.8022
 7717TIP3   OH244565   4.568   3.946   1.687 -0.5735 -0.5704 -0.0083
 7717TIP3    H144566   4.637   3.899   1.734  2.5563  1.0696 -2.5786
 7717TIP3    H244567   4.556   4.027   1.738  1.1748  0.1738 -0.6788
 7718TIP3   OH244568   1.932   0.685  14.157  0.7123 -1.0984  0.5363
 7718TIP3    H144569   1.848   0.717  14.188  1.3608  1.1396  0.1892
 7718TIP3    H244570   1.933   0.708  14.064  2.0218 -0.2997  0.7224
 7719TIP3   OH244571   5.879   4.291   4.797 -0.3974  0.1362 -0.2095
 7719TIP3    H144572   5.909   4.210   4.757 -2.7221 -0.0927 -1.6729
 7719TIP3    H244573   5.784   4.282   4.802 -0.4781  1.4758  2.5838
 7720TIP3   OH244574   0.639   5.623   0.557  0.2971  0.7582  0.4455
 7720TIP3    H144575   0.673   5.697   0.608  0.7671  0.8332  0.0361
 7720TIP3    H244576   0.710   5.559   0.558 -0.9619 -0.7389  2.8100
 7721TIP3   OH244577   1.666   3.600   1.632  0.1917  0.1942 -0.5778
 7721TIP3    H144578   1.743   3.649   1.661  1.3221 -2.5884  1.6093
 7721TIP3    H244579   1.684   3.579   1.541  1.4232  0.6744 -0.4742
 7722TIP3   OH244580   1.692   3.030   1.961 -0.1123  0.0607 -0.3760
 7722TIP3    H144581   1.713   3.124   1.962 -1.1036  0.3140  1.7266
 7722TIP3    H244582   1.739   2.994   2.036 -2.9780 -0.2702  1.4219
 7723TIP3   OH244583   2.695   3.879  14.587  0.5337 -0.2516 -0.1351
 7723TIP3    H144584   2.650   3.801  14.556 -0.3993  0.1362  0.2141
 7723TIP3    H244585   2.781   3.848  14.615  1.3771 -0.6559 -2.8983
 7724TIP3   OH244586   1.800   4.278  12.822  0.1148  0.5637 -0.5338
 7724TIP3    H144587   1.884   4.244  12.792 -0.7738 -1.5724 -0.7260
 7724TIP3    H244588   1.791   4.245  12.912 -0.5823  0.6891 -0.5544
 7725TIP3   OH244589   3.360   2.560  14.786 -0.3149  0.1592  0.1864
 7725TIP3    H144590   3.404   2.634  14.744 -0.3244 -0.5662 -1.1729
 7725TIP3    H244591   3.273   2.558  14.745  0.9688 -2.9569 -2.9324
 7726TIP3   OH244592   2.069   4.028  16.484  0.5718  0.0637  0.0544
 7726TIP3    H144593   2.082   4.076  16.402  2.5321 -1.1519 -0.4141
 7726TIP3    H244594   1.984   3.985  16.473  0.9799 -0.4315 -1.5678
 7727TIP3   OH244595   3.551   1.585   3.548  0.1774  0.3029 -0.1813
 7727TIP3    H144596   3.586   1.618   3.630 -0.6464  0.5469  0.0802
 7727TIP3    H244597   3.456   1.589   3.559  0.0564  0.4912 -1.2013
 7728TIP3   OH244598   6.425   3.647  13.891  0.0147  0.5894 -0.2164
 7728TIP3    H144599   6.507   3.629  13.938 -0.9291  0.7720  1.5730
 7728TIP3    H244600   6.433   3.738  13.864 -0.0158  0.9286  0.8742
 7729TIP3   OH244601   5.594   5.927  12.661 -0.0964 -0.2625  0.3760
 7729TIP3    H144602   5.680   5.967  12.649 -0.2362  0.3666  1.3436
 7729TIP3    H244603   5.604   5.838  12.627  0.1686  0.6010 -1.9996
 7730TIP3   OH244604   4.910   2.042   0.700  0.3801  0.5699 -0.1662
 7730TIP3    H144605   4.995   1.998   0.695 -0.5213 -1.5560  1.4863
 7730TIP3    H244606   4.862   2.010   0.623 -0.6326 -2.4433  1.5309
 7731TIP3   OH244607   4.585   1.389  15.814  0.1544  0.2491 -0.6736
 7731TIP3    H144608   4.541   1.442  15.748 -1.0185  0.5998  0.3613
 7731TIP3    H244609   4.639   1.451  15.862 -0.7933  0.4303  0.1829
 7732TIP3   OH244610   4.492   1.014   6.734 -0.1836 -0.0556  0.0263
 7732TIP3    H144611   4.486   0.919   6.726  0.3908 -0.0175 -0.9535
 7732TIP3    H244612   4.467   1.032   6.825 -1.3028 -1.0452 -0.0590
 7733TIP3   OH244613   1.501   6.445  11.336 -0.2095  0.9215  0.4671
 7733TIP3    H144614   1.515   6.513  11.402 -0.0895 -0.2080  1.6624
 7733TIP3    H244615   1.580   6.391  11.341 -1.3896 -0.8143  1.4523
 7734TIP3   OH244616   1.057   2.049  15.384 -0.1403 -0.4990 -0.2183
 7734TIP3    H144617   1.126   2.099  15.341  0.5189 -1.1145  0.1025
 7734TIP3    H244618   1.016   1.999  15.314 -1.2931  1.0110 -0.6723
 7735TIP3   OH244619   3.604   5.422  16.615  0.1689  0.3901  0.2650
 7735TIP3    H144620   3.618   5.402  16.523  1.1709 -1.8357  0.8368
 7735TIP3    H244621   3.599   5.518  16.619 -1.8378  0.5036 -2.3248
 7736TIP3   OH244622   2.611   6.325   6.211 -0.0376  0.3742  0.4105
 7736TIP3    H144623   2.695   6.290   6.238 -0.7081 -1.6172  0.0914
 7736TIP3    H244624   2.603   6.408   6.259  0.4786 -1.1653  3.4180
 7737TIP3   OH244625   5.182   3.547  11.912 -0.8718  0.0484  0.6094
 7737TIP3    H144626   5.210   3.483  11.978 -0.0327  1.0316  1.2464
 7737TIP3    H244627   5.181   3.498  11.830  4.0504  0.1071  0.2021
 7738TIP3   OH244628   4.888   6.268  11.698  0.0540 -0.0997 -0.5966
 7738TIP3    H144629   4.867   6.259  11.791  1.0945  0.0659 -0.3364
 7738TIP3    H244630   4.834   6.202  11.654 -0.9510  0.2653  0.0381
 7739TIP3   OH244631   1.167   5.826  17.289  0.0106  0.1196 -0.3039
 7739TIP3    H144632   1.094   5.774  17.256 -0.5019  1.1843 -0.8575
 7739TIP3    H244633   1.196   5.778  17.367 -1.9001  0.2119  0.5033
 7740TIP3   OH244634   2.454   2.879   5.589 -0.0058 -0.1926  0.2977
 7740TIP3    H144635   2.501   2.932   5.653  0.6082  0.1827 -0.4460
 7740TIP3    H244636   2.414   2.809   5.640  1.3671 -0.5294  0.9586
 7741TIP3   OH244637   2.983   1.261  13.188 -0.7705  0.5570  0.4275
 7741TIP3    H144638   2.931   1.309  13.252 -1.0934  2.1390 -0.9649
 7741TIP3    H244639   2.921   1.238  13.118 -0.1708 -0.0396  0.0761
 7742TIP3   OH244640   3.752   1.356  14.350  0.0389  0.5349  0.5546
 7742TIP3    H144641   3.695   1.282  14.332 -0.0817  0.6098  0.6281
 7742TIP3    H244642   3.785   1.383  14.264  1.0651 -0.3770  0.6386
 7743TIP3   OH244643   3.526   4.582  16.960 -0.2863  0.2800 -0.3998
 7743TIP3    H144644   3.544   4.675  16.970 -2.0531  0.6372 -0.1497
 7743TIP3    H244645   3.589   4.538  17.017 -2.3168  1.6110  3.1982
 7744TIP3   OH244646   6.223   3.080  13.465 -0.6342 -0.3713 -0.4751
 7744TIP3    H144647   6.237   2.991  13.498 -2.4052 -0.7546 -0.6527
 7744TIP3    H244648   6.136   3.077  13.424 -0.3541  1.2239 -1.2566
 7745TIP3   OH244649   4.428   1.148  12.802  0.2151  0.6456 -0.2311
 7745TIP3    H144650   4.378   1.229  12.788 -0.6852  0.0570 -0.5205
 7745TIP3    H244651   4.410   1.124  12.892 -0.5491  0.0918 -0.5264
 7746TIP3   OH244652   3.325   5.445   2.262  0.5452 -0.3670  0.7430
 7746TIP3    H144653   3.233   5.452   2.287  0.2747  0.9845 -0.5159
 7746TIP3    H244654   3.336   5.355   2.234 -1.3446  0.2413 -2.4284
 7747TIP3   OH244655   4.719   3.970   4.169 -0.3924  0.2203 -0.1570
 7747TIP3    H144656   4.726   3.905   4.099 -1.7076 -0.4279  0.2868
 7747TIP3    H244657   4.799   3.958   4.220 -0.7183 -1.2542  0.0647
 7748TIP3   OH244658   3.159   5.611   4.710 -0.0354 -0.9221 -0.7529
 7748TIP3    H144659   3.158   5.702   4.739 -0.0656 -0.0788 -3.1799
 7748TIP3    H244660   3.071   5.595   4.676  0.5980 -1.1140 -2.3711
 7749TIP3   OH244661   4.213   5.620  17.048  0.2201 -0.1382  0.1811
 7749TIP3    H144662   4.270   5.695  17.067 -0.4235  0.2423  0.6202
 7749TIP3    H244663   4.131   5.640  17.091 -0.4126 -0.4812 -0.8389
 7750TIP3   OH244664   5.288   1.977  16.395 -0.6332  0.2043 -0.4150
 7750TIP3    H144665   5.201   2.004  16.424 -1.0223 -0.9161 -0.4730
 7750TIP3    H244666   5.290   1.997  16.302 -0.5538  0.8855 -0.2733
 7751TIP3   OH244667   5.046   2.343   0.433 -0.0276 -0.2742 -0.0303
 7751TIP3    H144668   4.990   2.347   0.511 -1.1046 -0.2139 -0.7890
 7751TIP3    H244669   4.986   2.355   0.360  0.9144 -0.7378 -0.9011
 7752TIP3   OH244670   3.166   1.264  13.681 -0.5245  0.2727  0.3040
 7752TIP3    H144671   3.214   1.192  13.640  0.1358  1.6672 -1.5490
 7752TIP3    H244672   3.125   1.225  13.758  0.9143 -1.7464  0.1419
 7753TIP3   OH244673   2.547   0.040  11.407 -0.4397  0.6776  0.3876
 7753TIP3    H144674   2.554   0.084  11.322 -0.2457 -1.7002 -0.8966
 7753TIP3    H244675   2.637   0.020  11.431 -0.5759  0.3210  0.6034
 7754TIP3   OH244676   0.030   5.254   3.616 -0.5022 -0.2619  0.3827
 7754TIP3    H144677   0.076   5.294   3.689  1.0867  0.6571 -1.0605
 7754TIP3    H244678   0.014   5.326   3.555  1.2056 -1.4868 -1.6559
 7755TIP3   OH244679   5.489   3.684   4.916  0.2142  0.4323 -0.1394
 7755TIP3    H144680   5.441   3.673   4.998 -0.1507 -0.2191 -0.4373
 7755TIP3    H244681   5.445   3.758   4.873  1.8841  2.3930  1.2880
 7756TIP3   OH244682   1.638   0.589   2.386  0.0236  0.2930 -0.3431
 7756TIP3    H144683   1.683   0.673   2.392  1.1656 -0.3595  0.7003
 7756TIP3    H244684   1.678   0.536   2.454 -1.7633 -0.6105  0.0598
 7757TIP3   OH244685   5.830   6.100   5.097 -0.5463 -1.1204  0.2280
 7757TIP3    H144686   5.804   6.172   5.040  1.1968 -0.9458 -0.3726
 7757TIP3    H244687   5.778   6.025   5.067 -0.3618 -0.7870 -0.9425
 7758TIP3   OH244688   2.611   1.879  16.107  0.7991 -0.6810 -0.6317
 7758TIP3    H144689   2.584   1.968  16.083  0.8616 -0.5628 -0.2828
 7758TIP3    H244690   2.584   1.825  16.034  0.9691 -0.3360 -0.9521
 7759TIP3   OH244691   3.610   3.627  13.857  0.5067 -0.0561  0.0684
 7759TIP3    H144692   3.558   3.606  13.935  0.9198 -1.5134 -0.0151
 7759TIP3    H244693   3.619   3.543  13.811  1.6588  0.4606 -0.7005
 7760TIP3   OH244694   6.384   4.831   5.184  0.3962  0.1516 -0.2158
 7760TIP3    H144695   6.383   4.860   5.093 -3.7964 -1.4305 -0.9082
 7760TIP3    H244696   6.412   4.907   5.234  1.3808  1.5131 -2.6781
 7761TIP3   OH244697   5.167   5.083  15.366  0.3073  0.5781 -0.3566
 7761TIP3    H144698   5.237   5.140  15.335  3.0163 -1.8828  0.7825
 7761TIP3    H244699   5.212   5.010  15.408 -2.9596 -1.7963 -0.6059
 7762TIP3   OH244700   4.077   4.685  17.067 -0.2501 -0.0302  0.1154
 7762TIP3    H144701   4.053   4.723  17.151 -0.7209 -0.0506 -0.0080
 7762TIP3    H244702   4.034   4.599  17.067  0.9074 -0.6371  0.4535
 7763TIP3   OH244703   6.730   3.949  16.067 -0.1378  0.6157  0.2094
 7763TIP3    H144704   6.686   3.932  16.150  1.6518  1.8799  1.5065
 7763TIP3    H244705   6.779   3.869  16.049  0.3046  0.7054  0.9658
 7764TIP3   OH244706   1.860   3.072  17.195 -0.1651 -0.0458 -0.2713
 7764TIP3    H144707   1.818   3.111  17.271 -0.6198  0.3946 -0.7377
 7764TIP3    H244708   1.873   2.980  17.218  0.3934  0.2471  0.6222
 7765TIP3   OH244709   1.246   2.060   4.950 -0.3491 -0.4389 -0.0918
 7765TIP3    H144710   1.248   2.044   5.045 -0.7862 -2.2925 -0.3594
 7765TIP3    H244711   1.336   2.082   4.928 -0.4613  1.1735  0.9175
 7766TIP3   OH244712   4.894   1.413   4.228  0.3782 -0.4636  0.0530
 7766TIP3    H144713   4.916   1.491   4.279  1.3882 -2.0018  2.0725
 7766TIP3    H244714   4.803   1.395   4.250  0.3308 -0.2298  0.0527
 7767TIP3   OH244715   2.143   3.943  15.274 -0.1118 -0.9809  0.1046
 7767TIP3    H144716   2.233   3.915  15.257 -0.8865 -2.4379 -2.0777
 7767TIP3    H244717   2.116   3.987  15.193 -0.6965  1.5021  1.5318
 7768TIP3   OH244718   5.757   5.560   6.374 -0.3462 -0.0263  0.4002
 7768TIP3    H144719   5.756   5.626   6.443  0.9458 -0.3660  0.7660
 7768TIP3    H244720   5.847   5.560   6.341 -1.2091  0.9860 -2.1751
 7769TIP3   OH244721   0.863   1.227  15.281 -0.5887  0.3551 -0.0421
 7769TIP3    H144722   0.843   1.177  15.202 -0.1299 -0.2890  0.2415
 7769TIP3    H244723   0.777   1.253  15.314 -0.8496 -0.3136 -0.1574
 7770TIP3   OH244724   0.444   3.286   0.465  0.4854  0.1319  0.0863
 7770TIP3    H144725   0.375   3.221   0.454  1.1674 -0.7521  0.8266
 7770TIP3    H244726   0.501   3.274   0.389  1.1111 -0.8024  0.6778
 7771TIP3   OH244727   0.203   3.005   2.516  0.3798  0.3321 -0.2099
 7771TIP3    H144728   0.242   2.934   2.466 -0.1101 -0.1231  0.0403
 7771TIP3    H244729   0.237   2.993   2.605  0.2298  0.3557 -0.1492
 7772TIP3   OH244730   6.059   4.528   0.660  0.2043 -0.4771 -0.2257
 7772TIP3    H144731   6.129   4.478   0.702 -0.3500 -0.4247  0.8073
 7772TIP3    H244732   6.049   4.606   0.715  1.1546  0.8804 -1.9054
 7773TIP3   OH244733   5.646   4.889   5.315 -0.6108  0.1794  0.4274
 7773TIP3    H144734   5.677   4.820   5.257 -0.5542  0.4869  0.0913
 7773TIP3    H244735   5.638   4.846   5.401  1.7226  0.2997  0.7716
 7774TIP3   OH244736   4.833   3.698  13.843  0.2171  0.2036  0.2192
 7774TIP3    H144737   4.927   3.709  13.827  0.1935  1.5216  0.8335
 7774TIP3    H244738   4.794   3.704  13.756  0.7529 -1.3395 -0.1617
 7775TIP3   OH244739   5.234   0.549   2.005 -0.3480 -0.6052  0.6454
 7775TIP3    H144740   5.278   0.625   1.967  0.1542 -1.3253 -0.2502
 7775TIP3    H244741   5.197   0.502   1.930 -2.3915 -0.1964  1.3489
 7776TIP3   OH244742   4.258   4.340  11.953 -0.0711  0.0453 -0.0999
 7776TIP3    H144743   4.202   4.414  11.928  1.2721  0.3170 -2.7190
 7776TIP3    H244744   4.319   4.331  11.879 -0.1985 -3.7090  0.0996
 7777TIP3   OH244745   2.139   1.518  16.624 -0.2048  0.3280 -0.0053
 7777TIP3    H144746   2.234   1.505  16.621 -0.2500  0.1801 -2.5040
 7777TIP3    H244747   2.103   1.431  16.637 -0.0226  0.0680 -1.1160
 7778TIP3   OH244748   2.551   0.418   2.906 -0.1994 -0.3957  0.0631
 7778TIP3    H144749   2.613   0.385   2.971 -0.4639 -2.2266 -0.5780
 7778TIP3    H244750   2.606   0.462   2.841  0.4611 -1.9102 -0.4427
 7779TIP3   OH244751   5.414   3.341  10.930  0.5444  0.0074  0.3052
 7779TIP3    H144752   5.458   3.397  10.866  0.8580 -1.8649 -1.2126
 7779TIP3    H244753   5.464   3.260  10.929 -0.2470 -0.5387  1.9837
 7780TIP3   OH244754   6.254   3.397  16.597 -0.8040  0.7715 -0.5341
 7780TIP3    H144755   6.280   3.335  16.529  1.8601 -0.3582  1.3798
 7780TIP3    H244756   6.166   3.369  16.623 -0.2562 -1.2632 -0.7613
 7781TIP3   OH244757   2.382   6.434  12.012 -0.2186  0.7585 -0.4436
 7781TIP3    H144758   2.452   6.414  11.950  0.6825  0.9894  0.4793
 7781TIP3    H244759   2.420   6.416  12.098 -1.7571 -0.5052  0.0235
 7782TIP3   OH244760   5.056   5.779  13.201  0.6186 -0.5640 -0.0995
 7782TIP3    H144761   5.067   5.738  13.115  1.5579 -1.1909  0.3165
 7782TIP3    H244762   5.145   5.798  13.231  0.2899 -0.1615  0.6544
 7783TIP3   OH244763   3.125   0.537   3.208  0.1779 -0.0161  0.4074
 7783TIP3    H144764   3.143   0.504   3.120 -0.9182  1.8944 -0.6154
 7783TIP3    H244765   3.099   0.460   3.258  1.4071 -1.2423 -0.7561
 7784TIP3   OH244766   5.422   6.372  12.241 -0.0597  0.5749 -0.0113
 7784TIP3    H144767   5.484   6.317  12.193  0.5076 -0.5861  1.9552
 7784TIP3    H244768   5.336   6.333  12.223  0.0500  0.5876 -0.6094
 7785TIP3   OH244769   0.253   4.053  16.607 -0.1949  0.4849 -0.1225
 7785TIP3    H144770   0.277   4.098  16.526  0.4266  0.0337 -0.1970
 7785TIP3    H244771   0.337   4.028  16.647 -0.5082  0.1677  0.3561
 7786TIP3   OH244772   5.719   3.744  14.646  0.6724  0.3706 -0.2841
 7786TIP3    H144773   5.787   3.719  14.708 -0.2413  1.3905  1.1741
 7786TIP3    H244774   5.676   3.819  14.686 -1.7981 -0.6827 -0.8125
 7787TIP3   OH244775   2.238   1.571   5.698  0.3421 -0.2200  0.3136
 7787TIP3    H144776   2.289   1.643   5.736  3.4317 -1.4021 -1.2211
 7787TIP3    H244777   2.180   1.614   5.635 -1.3649  1.2727  2.7407
 7788TIP3   OH244778   0.639   5.103   4.695  0.0039  0.1490  0.3948
 7788TIP3    H144779   0.702   5.160   4.651 -2.8632  1.5810 -2.2581
 7788TIP3    H244780   0.618   5.150   4.776  0.8254  0.6763  0.3169
 7789TIP3   OH244781   0.093   1.245  10.847 -1.3169 -0.6614 -0.2091
 7789TIP3    H144782   0.121   1.185  10.777 -0.1327 -0.3638 -0.0068
 7789TIP3    H244783   0.024   1.298  10.807 -0.2490 -0.0936 -1.3466
 7790TIP3   OH244784   6.061   2.216   5.108 -0.3781  0.4520  0.2488
 7790TIP3    H144785   6.116   2.152   5.063 -0.4554  0.6996 -0.2027
 7790TIP3    H244786   6.106   2.234   5.190 -0.0602  0.2521  0.1176
 7791TIP3   OH244787   2.365   0.222   0.564 -0.2108 -0.0229 -0.2002
 7791TIP3    H144788   2.304   0.216   0.490 -0.6222 -1.6963  0.2418
 7791TIP3    H244789   2.376   0.132   0.594  0.2814  0.5736  1.5387
 7792TIP3   OH244790   0.110   0.401   2.478 -0.5267  0.4354 -0.1347
 7792TIP3    H144791   0.057   0.399   2.558 -0.5137 -3.5996 -0.0472
 7792TIP3    H244792   0.200   0.398   2.510 -0.3879  1.9122 -0.3324
 7793TIP3   OH244793   6.223   3.401   5.134 -0.1119 -0.3135 -0.4604
 7793TIP3    H144794   6.264   3.460   5.196  0.0520 -0.3926 -0.4941
 7793TIP3    H244795   6.142   3.445   5.108 -0.4607 -0.5303  0.2369
 7794TIP3   OH244796   3.258   6.002  15.972  0.0467 -0.3396 -0.2454
 7794TIP3    H144797   3.207   6.076  15.938  0.1841  0.0572  0.4013
 7794TIP3    H244798   3.347   6.017  15.939  0.2640  0.2474  0.5723
 7795TIP3   OH244799   2.783   1.453   0.444  0.3410 -0.2010 -0.2320
 7795TIP3    H144800   2.827   1.370   0.461 -0.4561 -0.4439  0.7820
 7795TIP3    H244801   2.754   1.483   0.530  1.0571  1.3927 -0.5117
 7796TIP3   OH244802   4.915   2.336  15.679 -0.3936  0.4416  0.1345
 7796TIP3    H144803   4.841   2.396  15.670 -0.7986 -0.2793 -1.6892
 7796TIP3    H244804   4.909   2.304  15.769 -0.3830  2.8111  1.0377
 7797TIP3   OH244805   3.071   4.636   0.434 -0.1904 -0.4343 -0.0815
 7797TIP3    H144806   3.132   4.639   0.360  2.1675  1.3413  1.7973
 7797TIP3    H244807   3.084   4.719   0.480 -2.9717 -0.6565  1.3096
 7798TIP3   OH244808   4.895   2.189  15.233  0.2360 -0.2835  0.6176
 7798TIP3    H144809   4.972   2.174  15.178  1.7664  1.2010  2.2216
 7798TIP3    H244810   4.912   2.273  15.276 -2.7475  0.5895  0.3362
 7799TIP3   OH244811   1.497   2.379  11.401 -0.6521 -0.2643  1.1277
 7799TIP3    H144812   1.590   2.396  11.385 -0.6590  0.3238  1.6739
 7799TIP3    H244813   1.466   2.456  11.447 -1.3811 -0.5280  1.0945
 7800TIP3   OH244814   4.561   1.593  15.210 -0.2522  0.0631 -0.3049
 7800TIP3    H144815   4.570   1.587  15.115 -2.7332  0.7366 -0.6654
 7800TIP3    H244816   4.628   1.656  15.237 -0.8768  1.5028 -1.9321
 7801TIP3   OH244817   0.193   5.696  15.485  0.1750  0.1979  0.6243
 7801TIP3    H144818   0.128   5.720  15.419  0.2022 -1.4385 -0.0551
 7801TIP3    H244819   0.230   5.779  15.513  0.0882  0.9770 -1.3586
 7802TIP3   OH244820   5.261   3.999   1.921 -0.1062 -0.1307 -0.0020
 7802TIP3    H144821   5.282   3.963   1.834  0.0654 -1.0320  0.4015
 7802TIP3    H244822   5.309   4.081   1.925  1.3744 -0.9564 -0.0619
 7803TIP3   OH244823   2.109   0.247  14.234  0.1330  0.0538 -0.2602
 7803TIP3    H144824   2.160   0.223  14.156 -0.6287 -0.1748 -0.6986
 7803TIP3    H244825   2.040   0.304  14.201  1.1035  1.8070  0.5745
 7804TIP3   OH244826   3.775   5.012  16.706  0.7148 -0.1971 -0.3092
 7804TIP3    H144827   3.818   4.971  16.781  0.8494  0.7224  0.1348
 7804TIP3    H244828   3.845   5.061  16.663  0.5403 -0.3587 -0.7823
 7805TIP3   OH244829   0.213   4.660   0.770  0.0775 -0.2888 -0.1329
 7805TIP3    H144830   0.276   4.715   0.723  0.1912 -0.0041  0.3444
 7805TIP3    H244831   0.183   4.715   0.842 -0.9392 -0.3193 -0.5189
 7806TIP3   OH244832   4.178   5.013  16.800 -0.2999 -0.4795 -0.0113
 7806TIP3    H144833   4.254   5.066  16.773  0.4170 -1.4228  0.1100
 7806TIP3    H244834   4.180   5.016  16.896  0.1113 -1.2224  0.0093
 7807TIP3   OH244835   4.476   5.995  16.535  0.7918  0.3691  0.4799
 7807TIP3    H144836   4.421   5.945  16.475  0.2931  0.0358  1.1988
 7807TIP3    H244837   4.498   5.933  16.604  0.2514  1.1009  1.3384
 7808TIP3   OH244838   1.860   6.716  17.179 -0.7224 -0.0282 -0.6467
 7808TIP3    H144839   1.798   6.643  17.179  0.1751 -0.8311 -2.0351
 7808TIP3    H244840   1.946   6.674  17.191 -0.3564  1.0051  0.5798
 7809TIP3   OH244841   4.442   3.473  13.907 -0.2236  0.1675 -0.2575
 7809TIP3    H144842   4.531   3.500  13.932 -0.0744 -2.0183  1.9838
 7809TIP3    H244843   4.389   3.552  13.920  0.8365  0.6199  1.8505
 7810TIP3   OH244844   4.477   6.452   5.580 -0.3649 -0.1890 -0.8786
 7810TIP3    H144845   4.525   6.432   5.499 -0.0730  1.2988 -1.0953
 7810TIP3    H244846   4.414   6.519   5.554 -0.0188  0.5701  0.1965
 7811TIP3   OH244847   6.573   3.667  12.386 -0.0435  0.7233  0.3296
 7811TIP3    H144848   6.663   3.692  12.407  0.6007 -1.1338 -0.0585
 7811TIP3    H244849   6.535   3.641  12.470 -0.3795  1.8978  0.5612
 7812TIP3   OH244850   6.733   6.175  16.698 -0.1961 -0.0630 -0.0564
 7812TIP3    H144851   6.691   6.134  16.623 -1.2517  2.6301 -1.0261
 7812TIP3    H244852   6.801   6.112  16.724 -1.5456 -2.2747 -1.5406
 7813TIP3   OH244853   4.663   3.302  15.026  0.5774  0.3016 -0.3104
 7813TIP3    H144854   4.615   3.328  14.947 -0.9359 -0.6231  0.2705
 7813TIP3    H244855   4.647   3.208  15.034  1.3556  0.2363  0.6948
 7814TIP3   OH244856   5.374   6.530   4.478 -0.5084  0.3832  0.1076
 7814TIP3    H144857   5.337   6.468   4.541  0.6291  0.1204  0.5358
 7814TIP3    H244858   5.466   6.535   4.500 -0.3700  1.4076 -0.6283
 7815TIP3   OH244859   0.431   3.273   0.013  0.4118  0.2817 -0.3614
 7815TIP3    H144860   0.351   3.257   0.063  1.1273  0.7467  0.9978
 7815TIP3    H244861   0.414   3.353  -0.036 -0.5123 -0.4973 -1.3605
 7816TIP3   OH244862   2.074   2.184   3.600 -0.3591  0.1640 -0.2702
 7816TIP3    H144863   2.127   2.129   3.658  0.2218 -0.1012 -1.0382
 7816TIP3    H244864   1.994   2.134   3.585 -0.2642 -0.0179 -0.1679
 7817TIP3   OH244865   2.761   4.460  13.307  0.2239  0.4431 -0.3100
 7817TIP3    H144866   2.813   4.503  13.376  0.0039  0.5893 -0.2330
 7817TIP3    H244867   2.826   4.424  13.247  0.4304 -0.1872  0.2800
 7818TIP3   OH244868   4.916   3.126   0.243  0.1860 -0.0586  0.4185
 7818TIP3    H144869   4.939   3.041   0.281  2.3754  0.3778  0.1795
 7818TIP3    H244870   4.989   3.148   0.185 -0.3806  1.9305  0.3699
 7819TIP3   OH244871   2.314   0.598   4.268 -0.2520 -0.0947  0.0421
 7819TIP3    H144872   2.354   0.665   4.323  0.5114 -0.9012  0.4836
 7819TIP3    H244873   2.222   0.598   4.296  0.3982 -1.5908  2.5378
 7820TIP3   OH244874   2.737   0.572   3.290  0.0864  0.6802  0.0213
 7820TIP3    H144875   2.723   0.524   3.371 -0.7755  3.2922  1.5425
 7820TIP3    H244876   2.652   0.610   3.269 -0.0063 -0.7927 -2.7953
 7821TIP3   OH244877   2.715   6.446   3.729  0.0107 -0.0215 -0.1541
 7821TIP3    H144878   2.704   6.375   3.792 -3.1929 -0.6691 -1.2175
 7821TIP3    H244879   2.743   6.521   3.781 -1.3396 -0.8448  1.8518
 7822TIP3   OH244880   3.191   0.342   2.052  0.2594  0.3032  0.0051
 7822TIP3    H144881   3.224   0.367   2.138  1.5274 -0.0829 -0.3476
 7822TIP3    H244882   3.262   0.293   2.012 -0.9554 -1.0310 -0.6051
 7823TIP3   OH244883   4.615   0.632   6.362 -0.4491 -0.3814 -0.3944
 7823TIP3    H144884   4.668   0.630   6.282 -1.4852 -2.6774 -1.1212
 7823TIP3    H244885   4.679   0.634   6.433  0.5141  0.8533 -1.2542
 7824TIP3   OH244886   3.055   2.435   3.292  0.2683 -0.3067  0.0075
 7824TIP3    H144887   3.140   2.434   3.335 -0.4769  0.9505  1.5986
 7824TIP3    H244888   3.044   2.525   3.261 -0.1982 -0.6231 -0.7848
 7825TIP3   OH244889   0.987   4.158   1.201 -0.5121 -0.1650  0.1662
 7825TIP3    H144890   1.033   4.193   1.125  1.2344 -0.4356  1.0445
 7825TIP3    H244891   1.041   4.085   1.230 -2.2378 -1.3954  0.4631
 7826TIP3   OH244892   0.031   5.179  11.952 -0.1383 -0.0303 -0.4320
 7826TIP3    H144893   0.060   5.149  12.039 -0.7151  1.6237  0.3728
 7826TIP3    H244894   0.083   5.127  11.891  1.3775 -0.2100  0.9233
 7827TIP3   OH244895   1.336   1.748   5.538 -0.2474  0.3086 -0.4185
 7827TIP3    H144896   1.251   1.787   5.517 -0.7305  1.1288  2.5925
 7827TIP3    H244897   1.319   1.695   5.616  2.3261  2.1956  1.6052
 7828TIP3   OH244898   5.438   6.103   1.527  0.3559  0.0219  0.0087
 7828TIP3    H144899   5.422   6.197   1.512 -1.2694  0.0721  1.7437
 7828TIP3    H244900   5.429   6.064   1.440 -1.1193  1.2151 -0.4291
 7829TIP3   OH244901   5.249   0.847  14.281 -0.3532 -0.6456  0.0907
 7829TIP3    H144902   5.336   0.871  14.250  0.0950 -1.8426  0.3649
 7829TIP3    H244903   5.189   0.906  14.235  0.6641  0.9701  0.7380
 7830TIP3   OH244904   1.716   3.599  15.425  0.5401  0.1038 -0.3665
 7830TIP3    H144905   1.717   3.588  15.330  1.0439 -0.3537 -0.3174
 7830TIP3    H244906   1.724   3.693  15.439  1.5529  0.0904 -0.7738
 7831TIP3   OH244907   0.355   4.369  13.459  1.0064  0.0624  0.3242
 7831TIP3    H144908   0.428   4.388  13.400  0.4706  0.4311 -0.2409
 7831TIP3    H244909   0.335   4.277  13.444  0.4330  0.3193 -0.6012
 7832TIP3   OH244910   0.770   1.968  11.697  0.1208  0.0888 -0.3783
 7832TIP3    H144911   0.844   2.015  11.734  0.7422 -1.2407  0.1480
 7832TIP3    H244912   0.746   2.017  11.618  0.8073  1.1787  0.0806
 7833TIP3   OH244913   2.150   0.011  14.448  0.2148  0.5189  0.1625
 7833TIP3    H144914   2.145  -0.028  14.535  2.3402  1.1506  0.6345
 7833TIP3    H244915   2.243   0.008  14.426 -0.2484  0.4584 -2.0686
 7834TIP3   OH244916   0.411   5.566  15.384 -0.2741 -0.5118 -0.2069
 7834TIP3    H144917   0.343   5.615  15.429 -1.3031  0.5297 -2.7136
 7834TIP3    H244918   0.373   5.479  15.371 -1.9630  0.4959 -2.9855
 7835TIP3   OH244919   1.105   2.722   3.440 -0.7110  0.2086 -0.4342
 7835TIP3    H144920   1.131   2.641   3.484 -1.9978  0.4561  0.8441
 7835TIP3    H244921   1.054   2.693   3.365 -0.8667 -0.1630 -0.1838
 7836TIP3   OH244922   5.065   6.430   0.936  0.0374  0.3044  0.4943
 7836TIP3    H144923   5.012   6.366   0.982  0.0166 -0.6111 -0.7654
 7836TIP3    H244924   5.006   6.469   0.871  0.7857 -0.4899 -0.6977
 7837TIP3   OH244925   1.819   3.278  16.613 -0.0760 -0.4530  0.2676
 7837TIP3    H144926   1.904   3.269  16.656 -0.6954 -0.0403  1.6531
 7837TIP3    H244927   1.816   3.370  16.587 -0.7602 -0.0058  1.7857
 7838TIP3   OH244928   1.293   5.143   0.965  0.2037 -0.6709  0.0797
 7838TIP3    H144929   1.219   5.098   0.923 -1.2607  0.8888  0.8488
 7838TIP3    H244930   1.325   5.204   0.899 -0.0104 -0.4639  0.1681
 7839TIP3   OH244931   0.219   2.015  15.757 -0.1924 -0.9632  0.0423
 7839TIP3    H144932   0.290   1.965  15.718  0.9687 -0.6553  1.6844
 7839TIP3    H244933   0.182   1.957  15.824 -0.1508 -0.3854  0.5806
 7840TIP3   OH244934   4.513   1.594   5.309 -0.8870  0.1615 -0.1295
 7840TIP3    H144935   4.578   1.609   5.241 -0.9910  0.6302 -0.1249
 7840TIP3    H244936   4.429   1.595   5.263 -1.1252  2.3762  0.2527
 7841TIP3   OH244937   2.722   3.257  15.406  0.3771 -0.7720 -0.5127
 7841TIP3    H144938   2.816   3.266  15.388  0.3500 -1.9170 -1.4189
 7841TIP3    H244939   2.693   3.344  15.433  1.1568  0.3028 -2.8884
 7842TIP3   OH244940   5.383   5.773  11.408  0.0317  0.8935  0.1045
 7842TIP3    H144941   5.349   5.698  11.359 -0.0038  2.0298 -1.7140
 7842TIP3    H244942   5.305   5.822  11.435  0.0641  0.4535  1.0192
 7843TIP3   OH244943   1.006   1.357   3.075  0.4303 -0.0875 -0.1417
 7843TIP3    H144944   1.014   1.396   2.988 -1.1364 -1.2752 -0.8487
 7843TIP3    H244945   0.913   1.366   3.097  0.6088 -0.7541  0.9515
 7844TIP3   OH244946   3.585   5.153   1.687  0.2223  0.0791 -0.0892
 7844TIP3    H144947   3.506   5.109   1.657 -0.6254  0.3980  1.5642
 7844TIP3    H244948   3.556   5.208   1.760  1.6374  1.6439 -0.6143
 7845TIP3   OH244949   5.786   2.806   4.534  0.4238  0.3956 -0.0497
 7845TIP3    H144950   5.834   2.741   4.482  2.0040  1.2521  0.2851
 7845TIP3    H244951   5.849   2.877   4.548  0.2651  0.0368  3.4146
 7846TIP3   OH244952   1.081   0.027   2.377 -0.4499  0.0134  0.2580
 7846TIP3    H144953   1.173   0.001   2.382  0.4633  2.6333 -0.9013
 7846TIP3    H244954   1.071   0.094   2.445 -1.4281 -0.0159  0.1571
 7847TIP3   OH244955   4.727   6.138   0.268  0.0018  0.5018  0.7338
 7847TIP3    H144956   4.804   6.142   0.325  0.9750  1.5646 -0.5810
 7847TIP3    H244957   4.762   6.139   0.179 -1.5384  1.8358  0.0788
 7848TIP3   OH244958   1.361   3.084  13.586 -0.0525 -0.2729  0.3047
 7848TIP3    H144959   1.320   3.007  13.548  0.6902 -2.3142  3.3270
 7848TIP3    H244960   1.428   3.109  13.522 -1.4809 -0.9804 -1.5540
 7849TIP3   OH244961   2.832   1.090  15.204  0.7073 -0.1647 -0.4506
 7849TIP3    H144962   2.892   1.162  15.225  1.0598 -0.4296 -0.5496
 7849TIP3    H244963   2.748   1.133  15.191  0.6315  0.0952  0.7798
 7850TIP3   OH244964   5.584   2.719   0.453  0.5067 -0.7291 -0.1626
 7850TIP3    H144965   5.511   2.667   0.485  0.0098 -0.9177 -1.5351
 7850TIP3    H244966   5.545   2.802   0.426  0.7645 -0.8632 -0.9844
 7851TIP3   OH244967   3.056   1.533  11.828  0.2129 -0.2002 -0.1191
 7851TIP3    H144968   2.969   1.553  11.793  0.6535 -0.8807 -1.7004
 7851TIP3    H244969   3.076   1.607  11.886 -1.3385  0.0384  0.1527
 7852TIP3   OH244970   3.736   4.534   2.991 -0.0912 -0.5521 -0.2316
 7852TIP3    H144971   3.728   4.524   3.085 -0.4129 -1.3401 -0.3354
 7852TIP3    H244972   3.829   4.548   2.976  0.0299 -0.9475  0.1532
 7853TIP3   OH244973   3.308   1.267  15.965 -0.3817  0.4999 -0.0623
 7853TIP3    H144974   3.292   1.325  16.039 -1.3638  1.1203 -0.7352
 7853TIP3    H244975   3.222   1.254  15.926  0.1174  0.1645 -1.0770
 7854TIP3   OH244976   2.555   5.853   3.672 -0.0194  0.7298 -0.2862
 7854TIP3    H144977   2.467   5.820   3.688 -0.1476  0.0223 -2.2483
 7854TIP3    H244978   2.587   5.877   3.759 -1.9706  0.6063  0.5250
 7855TIP3   OH244979   4.320   1.156   2.131 -0.0743 -0.0818 -0.0430
 7855TIP3    H144980   4.332   1.085   2.067  0.3829 -1.2947  1.3363
 7855TIP3    H244981   4.242   1.131   2.180 -2.2260  2.3482 -1.9743
 7856TIP3   OH244982   4.202   1.821  11.263 -0.3758  0.2084  0.2306
 7856TIP3    H144983   4.290   1.818  11.302 -0.1301  0.1161 -0.3230
 7856TIP3    H244984   4.207   1.761  11.189 -0.4477  1.3686 -0.7354
 7857TIP3   OH244985   1.900   3.170   1.242 -0.2400 -0.1502 -0.0311
 7857TIP3    H144986   1.841   3.246   1.242 -0.0395  0.0051  0.3156
 7857TIP3    H244987   1.910   3.147   1.335 -0.9473 -1.1038 -0.1706
 7858TIP3   OH244988   3.426   2.889  12.055 -0.6415  0.1986 -0.2159
 7858TIP3    H144989   3.497   2.857  12.000 -0.7259 -0.4103  0.0221
 7858TIP3    H244990   3.414   2.821  12.121  0.9402  1.8843  1.9524
 7859TIP3   OH244991   2.085   2.856   3.502 -0.1830 -0.2615 -0.6440
 7859TIP3    H144992   2.129   2.807   3.434  0.4267 -0.4847 -0.0968
 7859TIP3    H244993   2.081   2.946   3.468  0.4392 -0.2977 -0.8198
 7860TIP3   OH244994   1.034   5.871   0.696 -0.1360  0.1211  0.4787
 7860TIP3    H144995   0.982   5.929   0.751 -1.2805 -1.6416  1.3326
 7860TIP3    H244996   1.093   5.827   0.757  2.0631  1.6664 -0.3969
 7861TIP3   OH244997   3.647   4.772  14.793  0.6236  0.4001 -0.0817
 7861TIP3    H144998   3.668   4.780  14.886  0.3421 -2.3451  0.3072
 7861TIP3    H244999   3.590   4.696  14.788 -0.6029  1.3731 -2.3705
 7862TIP3   OH245000   2.028   5.842   5.157 -0.3855 -0.5941  0.2108
 7862TIP3    H145001   1.989   5.878   5.078 -1.6416  2.0476  1.9190
 7862TIP3    H245002   1.995   5.752   5.162 -1.6663 -0.2394 -1.3329
 7863TIP3   OH245003   1.418   1.646  14.798 -0.3127 -0.0678 -0.0984
 7863TIP3    H145004   1.349   1.580  14.789  1.2813 -1.6478 -1.8928
 7863TIP3    H245005   1.449   1.636  14.888  1.6502 -3.8661 -0.9576
 7864TIP3   OH245006   1.862   6.734  15.711  0.0496 -0.8197 -0.1717
 7864TIP3    H145007   1.902   6.819  15.693  1.1907 -1.3620 -0.3019
 7864TIP3    H245008   1.769   6.752  15.720  0.3088  0.4748  0.0270
 7865TIP3   OH245009   0.107   1.231   5.484 -0.1345  0.7400  0.4554
 7865TIP3    H145010   0.149   1.244   5.399  0.2091  0.9283  0.6498
 7865TIP3    H245011   0.016   1.256   5.470 -0.5542 -1.1106 -0.3636
 7866TIP3   OH245012   3.947   0.693   6.169 -0.1487 -0.7191  0.4382
 7866TIP3    H145013   3.969   0.751   6.242 -0.4609  0.9045 -0.6970
 7866TIP3    H245014   3.970   0.605   6.200  1.5929  0.1450  1.7384
 7867TIP3   OH245015   1.698   0.982   0.926 -0.6013 -0.4272  0.1643
 7867TIP3    H145016   1.792   0.999   0.926  0.0499 -2.9487 -2.7835
 7867TIP3    H245017   1.686   0.917   0.995 -0.3378  0.4493  1.0527
 7868TIP3   OH245018   2.595   3.530   0.010  0.3826  0.2499 -0.1615
 7868TIP3    H145019   2.679   3.567  -0.017  0.4728 -0.4426 -0.8437
 7868TIP3    H245020   2.544   3.605   0.040  0.2983  1.0440 -2.1996
 7869TIP3   OH245021   0.483   6.006   0.913  0.6119 -0.1915  0.3842
 7869TIP3    H145022   0.451   6.092   0.942  0.6377 -0.7032  2.0455
 7869TIP3    H245023   0.577   6.019   0.902  0.2723  0.6856 -2.1505
 7870TIP3   OH245024   2.259   0.421   1.264  0.6330  0.3590  0.1538
 7870TIP3    H145025   2.242   0.355   1.332  1.4989  0.1441  0.1779
 7870TIP3    H245026   2.354   0.416   1.250  0.5788  1.0010 -0.4640
 7871TIP3   OH245027   6.386   2.227  11.695 -0.0716  0.2824 -0.4333
 7871TIP3    H145028   6.367   2.307  11.645  0.6124 -0.1245 -1.3699
 7871TIP3    H245029   6.464   2.191  11.653  1.0843  0.4030  1.5170
 7872TIP3   OH245030   5.298   4.779  15.627 -0.1874 -0.7106  0.5478
 7872TIP3    H145031   5.209   4.816  15.623  0.0945 -0.0036  0.7302
 7872TIP3    H245032   5.331   4.791  15.538 -0.2734 -0.9708  0.4807
 7873TIP3   OH245033   2.211   2.442  14.235  0.6306  0.3896  0.4631
 7873TIP3    H145034   2.128   2.452  14.189  0.6755  1.0781  0.5181
 7873TIP3    H245035   2.249   2.362  14.198 -0.5520 -0.5602  1.2297
 7874TIP3   OH245036   0.330   6.025  12.551  0.3889  0.8605 -0.7689
 7874TIP3    H145037   0.348   6.119  12.557  1.4755  0.6791 -1.0412
 7874TIP3    H245038   0.357   5.990  12.636  0.1425  0.7619 -0.7294
 7875TIP3   OH245039   4.687   4.464   0.752 -0.0066 -0.4906 -0.0273
 7875TIP3    H145040   4.747   4.420   0.813  2.1839  0.9392 -1.0298
 7875TIP3    H245041   4.646   4.392   0.703  0.6950 -1.5394  0.8631
 7876TIP3   OH245042   0.658   6.145   4.798  0.3933 -0.1688 -0.0773
 7876TIP3    H145043   0.603   6.093   4.855  0.0642  0.3036  0.0462
 7876TIP3    H245044   0.699   6.082   4.738 -1.1367 -0.4159 -0.8986
 7877TIP3   OH245045   0.521   0.458  11.600 -0.1299  0.0690  0.6262
 7877TIP3    H145046   0.436   0.491  11.569  0.3682  1.2430  0.4544
 7877TIP3    H245047   0.546   0.393  11.535 -0.5155  0.3066  0.2332
 7878TIP3   OH245048   0.922   5.973   5.738 -0.6970  0.5733 -0.8998
 7878TIP3    H145049   0.987   5.993   5.671 -2.6304  0.0061 -3.0890
 7878TIP3    H245050   0.898   6.057   5.776 -0.7455  1.1147 -2.1084
 7879TIP3   OH245051   1.343   4.301  14.086  0.5892 -0.2641  0.9581
 7879TIP3    H145052   1.338   4.283  14.180 -1.8256 -0.6197  0.8245
 7879TIP3    H245053   1.308   4.222  14.044 -2.0472  1.2719 -0.0031
 7880TIP3   OH245054   2.275   1.586  15.599  0.2271 -0.6671 -0.3851
 7880TIP3    H145055   2.309   1.509  15.645  0.6820 -0.2520 -0.0207
 7880TIP3    H245056   2.347   1.615  15.544  0.4451  0.1523  0.3121
 7881TIP3   OH245057   5.279   3.273   3.271  0.3368  0.3350  0.4900
 7881TIP3    H145058   5.190   3.307   3.274  0.0380 -0.3849  0.0117
 7881TIP3    H245059   5.272   3.191   3.223  1.1875  0.0438  0.8468
 7882TIP3   OH245060   1.253   0.474   0.861 -0.4580 -0.0017 -0.0186
 7882TIP3    H145061   1.289   0.480   0.773 -0.5126 -0.7617 -0.0941
 7882TIP3    H245062   1.163   0.444   0.849 -0.8840  1.1260  0.2205
 7883TIP3   OH245063   3.297   3.069   1.664 -0.1770 -0.1022  0.9138
 7883TIP3    H145064   3.256   3.102   1.584 -1.8559  1.1431  2.2013
 7883TIP3    H245065   3.280   2.975   1.664  1.9134 -0.5829 -1.2826
 7884TIP3   OH245066   0.761   6.009  16.113 -0.4119  0.5214 -0.2071
 7884TIP3    H145067   0.838   6.066  16.108  0.6299 -0.6920  1.2529
 7884TIP3    H245068   0.792   5.929  16.155 -1.8187 -1.1853 -2.1757
 7885TIP3   OH245069   3.836   0.156   2.829  0.2176 -0.8308 -0.2064
 7885TIP3    H145070   3.775   0.086   2.806 -0.6928  0.1191 -0.7918
 7885TIP3    H245071   3.780   0.234   2.839  1.3872  0.2140 -1.4219
 7886TIP3   OH245072   1.055   0.695  14.125 -0.5298 -0.1258  0.4366
 7886TIP3    H145073   1.085   0.616  14.079  0.0948 -0.6432  1.6880
 7886TIP3    H245074   1.074   0.766  14.064 -0.5687 -0.8791 -0.4795
 7887TIP3   OH245075   2.601   0.729  12.537  0.5410  0.4416 -0.2462
 7887TIP3    H145076   2.641   0.794  12.594  0.1023  0.8682 -0.4156
 7887TIP3    H245077   2.524   0.698  12.586  0.5912  0.2610 -0.2827
 7888TIP3   OH245078   6.115   0.180  14.160  0.2619  0.0920  0.0847
 7888TIP3    H145079   6.144   0.107  14.105  0.0630  3.8697 -6.0785
 7888TIP3    H245080   6.193   0.235  14.169 -0.1073  0.2916  2.6062
 7889TIP3   OH245081   3.576   2.654  12.485  0.3007 -0.7097  0.0051
 7889TIP3    H145082   3.647   2.592  12.505 -0.4975 -1.2489  1.3384
 7889TIP3    H245083   3.612   2.739  12.508  1.1915 -0.7205 -1.2479
 7890TIP3   OH245084   1.913   1.224   4.280 -0.3649 -0.0529  0.1114
 7890TIP3    H145085   1.909   1.134   4.248  0.9423  0.2086 -0.8773
 7890TIP3    H245086   1.904   1.278   4.201  0.9930  0.6404  0.3997
 7891TIP3   OH245087   5.971   4.203  16.292  0.1582 -0.3958  0.4642
 7891TIP3    H145088   5.936   4.283  16.331 -1.5937 -0.7434 -0.2817
 7891TIP3    H245089   5.981   4.225  16.199  0.2241 -0.8519  0.3628
 7892TIP3   OH245090   5.498   1.640  15.001 -0.0927  0.3951  0.1235
 7892TIP3    H145091   5.521   1.682  15.084 -0.0929 -0.5667  0.6317
 7892TIP3    H245092   5.403   1.630  15.005  0.0390 -0.8174  0.5999
 7893TIP3   OH245093   4.167   6.756  10.693 -0.2027 -0.0801 -0.4364
 7893TIP3    H145094   4.146   6.668  10.662  1.3927 -0.5229 -0.3704
 7893TIP3    H245095   4.139   6.814  10.622 -0.1154 -0.7470 -1.0284
 7894TIP3   OH245096   4.087   1.445  11.298  0.0332 -0.2796 -0.4111
 7894TIP3    H145097   4.103   1.525  11.249  2.4999  0.4321  1.3487
 7894TIP3    H245098   4.014   1.467  11.357  2.5306  1.8488  2.1647
 7895TIP3   OH245099   0.664   2.048  11.449 -0.1115  0.5383  0.1025
 7895TIP3    H145100   0.728   2.115  11.472  0.2158  0.2742 -0.0200
 7895TIP3    H245101   0.683   2.027  11.357 -0.4757  0.5675  0.0187
 7896TIP3   OH245102   3.694   5.180  16.359  0.2878 -0.5664  0.2573
 7896TIP3    H145103   3.785   5.168  16.387  0.2642 -1.2659  0.0504
 7896TIP3    H245104   3.682   5.117  16.288  0.3854  1.2273 -1.4561
 7897TIP3   OH245105   3.330   1.698   5.818  0.2216  0.2315  0.1997
 7897TIP3    H145106   3.351   1.673   5.729 -2.9198 -0.0926 -0.5488
 7897TIP3    H245107   3.316   1.793   5.814 -0.8866  0.0800  0.0764
 7898TIP3   OH245108   4.618   3.931   6.430 -0.6170  0.3561  0.9629
 7898TIP3    H145109   4.556   3.952   6.500 -0.5365 -0.2245  1.2108
 7898TIP3    H245110   4.625   4.012   6.379 -0.8912  0.6947  1.4595
 7899TIP3   OH245111   2.393   2.017   3.055 -0.3000 -0.1716  0.8895
 7899TIP3    H145112   2.461   1.979   3.111  1.6347  2.9888  0.8932
 7899TIP3    H245113   2.439   2.038   2.973 -1.5172  1.1240  0.5025
 7900TIP3   OH245114   1.508   3.901  14.579  0.1356 -0.1255 -0.2815
 7900TIP3    H145115   1.492   3.959  14.653 -0.0663 -0.0603 -0.3751
 7900TIP3    H245116   1.429   3.847  14.573  0.1252 -0.0882 -0.4863
 7901TIP3   OH245117   2.239   2.361  10.884 -0.0136 -0.1199  0.5632
 7901TIP3    H145118   2.148   2.355  10.855 -0.0167  1.6674  0.0701
 7901TIP3    H245119   2.276   2.275  10.867 -0.7830  0.0027 -2.1211
 7902TIP3   OH245120   1.599   2.635   6.164  0.5569  0.3106  0.3450
 7902TIP3    H145121   1.676   2.685   6.193  0.1851 -0.0344  2.0308
 7902TIP3    H245122   1.615   2.546   6.196 -0.1598  0.0356 -0.0431
 7903TIP3   OH245123   1.997   0.962   5.937  0.0626  0.1010 -0.1494
 7903TIP3    H145124   1.999   0.871   5.910  1.0899 -0.1034  0.5762
 7903TIP3    H245125   2.056   0.967   6.012  0.5269  1.4897 -0.5725
 7904TIP3   OH245126   4.444   3.977  14.856 -0.6227 -0.5261  0.6209
 7904TIP3    H145127   4.471   3.988  14.765 -0.5286  0.0046  0.7083
 7904TIP3    H245128   4.499   4.039  14.905 -1.6068  0.1746  0.8697
 7905TIP3   OH245129   6.035   2.286   3.878  0.1749  0.6271  0.3316
 7905TIP3    H145130   6.037   2.339   3.958 -1.3620  0.2725  0.6439
 7905TIP3    H245131   6.006   2.347   3.810  0.9559  0.7993  0.1473
 7906TIP3   OH245132   6.303   1.813   4.846 -0.0882  0.4765 -0.2847
 7906TIP3    H145133   6.247   1.737   4.863  1.2913 -0.6473 -0.5787
 7906TIP3    H245134   6.386   1.775   4.815  2.0975  1.7990  3.2982
 7907TIP3   OH245135   4.428   3.026   3.828 -0.2715  0.0448 -0.0517
 7907TIP3    H145136   4.380   3.109   3.827  0.0572  0.2359 -0.2141
 7907TIP3    H245137   4.408   2.986   3.743 -1.0278 -0.3955  0.3224
 7908TIP3   OH245138   2.210   1.164  14.328  0.1510  0.2460  0.0632
 7908TIP3    H145139   2.118   1.188  14.338  0.5859  2.9371 -1.6001
 7908TIP3    H245140   2.247   1.172  14.416 -0.7220  1.4126  0.3441
 7909TIP3   OH245141   2.156   1.792   5.551  0.3397  0.3606  0.6038
 7909TIP3    H145142   2.073   1.770   5.593  0.0010  0.6894  0.1160
 7909TIP3    H245143   2.185   1.872   5.596 -1.2800  2.1967 -1.4142
 7910TIP3   OH245144   6.015   3.065   3.418  0.1378 -0.0105 -0.5224
 7910TIP3    H145145   5.943   3.047   3.479  0.4102 -0.0033 -0.1987
 7910TIP3    H245146   6.076   2.992   3.431  0.7833  0.6382  0.0998
 7911TIP3   OH245147   4.681   5.047  14.215  0.0971  0.3082  0.1037
 7911TIP3    H145148   4.672   4.975  14.277  1.3024  0.4289  0.4379
 7911TIP3    H245149   4.753   5.100  14.249  0.7666  0.4037 -1.3811
 7912TIP3   OH245150   2.105   0.467  17.253  0.0496 -0.2556 -0.5805
 7912TIP3    H145151   2.111   0.495  17.162 -2.4910  1.9297 -0.2145
 7912TIP3    H245152   2.021   0.502  17.283  0.0750 -2.2263  2.1807
 7913TIP3   OH245153   1.611   0.010  16.311 -0.2851  0.0132  0.0586
 7913TIP3    H145154   1.536  -0.050  16.317 -0.1274 -0.2260 -0.3333
 7913TIP3    H245155   1.667  -0.028  16.243 -0.5794  1.0238 -0.7830
 7914TIP3   OH245156   5.370   5.849   2.930 -0.0252  0.4407  0.2598
 7914TIP3    H145157   5.317   5.928   2.933  0.5962  0.8448  1.3970
 7914TIP3    H245158   5.410   5.849   2.843 -0.4172  1.1086  0.0762
 7915TIP3   OH245159   2.966   4.709   3.361  0.1303  0.0794 -0.3406
 7915TIP3    H145160   2.900   4.691   3.294 -1.8262  3.1176  0.5461
 7915TIP3    H245161   3.034   4.759   3.316 -1.4732  2.6486 -0.0923
 7916TIP3   OH245162   2.585   2.736  11.948 -0.0223  0.0105  0.3113
 7916TIP3    H145163   2.671   2.715  11.913  0.3211 -0.9334  1.6466
 7916TIP3    H245164   2.582   2.832  11.948  2.6836  0.3067  3.8506
 7917TIP3   OH245165   4.423   2.492  14.049  0.2389 -0.8787 -0.1374
 7917TIP3    H145166   4.476   2.564  14.014 -1.5801  0.9251  0.6043
 7917TIP3    H245167   4.478   2.451  14.115  0.3089  1.9120  1.7357
 7918TIP3   OH245168   5.976   3.167  15.513 -0.1560  0.6248  0.6840
 7918TIP3    H145169   5.947   3.190  15.602  0.1316 -0.4003  1.0625
 7918TIP3    H245170   5.912   3.104  15.482  0.1846  0.3749  0.4785
 7919TIP3   OH245171   0.171   1.076   1.916  0.2082  0.3936  0.0363
 7919TIP3    H145172   0.103   1.046   1.976 -1.0693 -0.5549 -1.7929
 7919TIP3    H245173   0.245   1.018   1.932 -0.1412  0.0998  0.6245
 7920TIP3   OH245174   1.670   1.341  11.459  0.3061  0.1838 -0.2570
 7920TIP3    H145175   1.614   1.280  11.411  1.2125 -0.8724 -0.0117
 7920TIP3    H245176   1.748   1.351  11.404  0.5644  0.3794  0.1407
 7921TIP3   OH245177   2.502   2.215   5.820 -0.3719  0.4189 -0.1356
 7921TIP3    H145178   2.508   2.138   5.763 -1.2862  0.2774 -0.0599
 7921TIP3    H245179   2.443   2.188   5.890  0.6883  0.6197  0.8519
 7922TIP3   OH245180   3.510   1.111   5.471  0.0723  0.6077  0.0205
 7922TIP3    H145181   3.453   1.175   5.428  1.1010 -0.4530 -3.2356
 7922TIP3    H245182   3.496   1.125   5.564 -2.4573  3.0697 -0.5951
 7923TIP3   OH245183   6.250   4.043  15.824  0.8124 -0.4529 -0.0542
 7923TIP3    H145184   6.234   4.129  15.863  1.5912 -0.6145  0.6425
 7923TIP3    H245185   6.322   4.006  15.876  0.4460 -1.5499 -0.3045
 7924TIP3   OH245186   4.154   3.304  10.764 -0.1802 -0.1128 -0.6383
 7924TIP3    H145187   4.107   3.367  10.819  1.1032 -0.5603  1.0308
 7924TIP3    H245188   4.244   3.337  10.761  0.0369 -0.7507 -1.4928
 7925TIP3   OH245189   3.353   6.588  13.863  0.0679  0.0571  0.2913
 7925TIP3    H145190   3.268   6.630  13.851  1.0409  1.5119 -2.3576
 7925TIP3    H245191   3.416   6.661  13.862  1.4078 -1.0028  1.8510
 7926TIP3   OH245192   6.751   1.125   0.102 -0.1428  0.1577  0.5555
 7926TIP3    H145193   6.762   1.059   0.033  0.5901 -0.7095  1.4833
 7926TIP3    H245194   6.774   1.207   0.059  1.2334 -0.4875  0.0013
 7927TIP3   OH245195   2.161   3.918   0.238  0.5657 -0.3585 -0.1894
 7927TIP3    H145196   2.143   3.846   0.177 -2.0155 -0.4655  0.5868
 7927TIP3    H245197   2.167   3.877   0.324  0.1313  0.2207  0.1280
 7928TIP3   OH245198   4.126   5.572   4.548  0.2272  0.4562 -0.4828
 7928TIP3    H145199   4.120   5.476   4.553  0.9350  0.4723  1.5499
 7928TIP3    H245200   4.035   5.602   4.545 -0.0980 -0.2404  1.1116
 7929TIP3   OH245201   6.462   6.119  14.570  0.4236 -0.1586 -0.1144
 7929TIP3    H145202   6.398   6.122  14.499 -0.7353 -0.3825  0.8840
 7929TIP3    H245203   6.438   6.192  14.627  0.2235 -1.0261  0.9514
 7930TIP3   OH245204   1.911   0.913  14.755  0.2217  0.7273  0.1977
 7930TIP3    H145205   1.931   0.885  14.845 -2.3014 -2.2025  0.0391
 7930TIP3    H245206   1.941   0.841  14.700 -0.0758  1.5589 -1.1059
 7931TIP3   OH245207   2.609   5.610  12.563  0.0444  0.0439  0.2178
 7931TIP3    H145208   2.657   5.686  12.530  0.7703 -0.6472 -0.3498
 7931TIP3    H245209   2.632   5.606  12.656  1.8375 -0.7840 -0.2182
 7932TIP3   OH245210   5.772   3.583  13.258  0.4653 -0.0114  0.2777
 7932TIP3    H145211   5.737   3.601  13.171 -0.3333  1.9109  0.9332
 7932TIP3    H245212   5.738   3.654  13.313  1.7638 -0.5990  1.9484
 7933TIP3   OH245213   2.773   6.348  11.842 -0.6647 -0.3757  0.4468
 7933TIP3    H145214   2.835   6.388  11.903 -1.2874  0.9020  0.2822
 7933TIP3    H245215   2.699   6.321  11.897 -0.8277 -0.0504  0.3949
 7934TIP3   OH245216   5.603   4.936  13.120 -0.0439  0.8112 -0.5063
 7934TIP3    H145217   5.663   4.909  13.190  0.4732  0.9220 -0.9050
 7934TIP3    H245218   5.641   4.901  13.040 -0.4878  0.9228 -0.7707
 7935TIP3   OH245219   3.307   2.085  14.920 -0.1589  0.6448  0.9706
 7935TIP3    H145220   3.280   1.993  14.914  1.0116  0.2440  1.6110
 7935TIP3    H245221   3.283   2.122  14.835  2.0229 -0.9962 -0.4788
 7936TIP3   OH245222   0.523   4.457   1.705 -0.4893  0.3380 -0.1904
 7936TIP3    H145223   0.587   4.462   1.635 -0.2591  2.0488  0.1088
 7936TIP3    H245224   0.569   4.412   1.776 -0.7762 -1.5522 -1.1357
 7937TIP3   OH245225   2.242   5.976   1.065  0.1933  0.5954  0.1239
 7937TIP3    H145226   2.238   5.887   1.102 -0.8975  1.0698  1.2176
 7937TIP3    H245227   2.335   5.990   1.047  0.3276 -0.9515 -0.5454
 7938TIP3   OH245228   2.166   0.913   4.234 -0.3492  0.1405 -0.2463
 7938TIP3    H145229   2.082   0.923   4.280 -0.5791 -0.6602 -0.4832
 7938TIP3    H245230   2.217   0.854   4.290 -0.3905 -0.3256 -0.6908
 7939TIP3   OH245231   3.390   4.540  15.104  0.1586  0.2314  0.0873
 7939TIP3    H145232   3.482   4.555  15.129 -0.5643  1.5871  2.3000
 7939TIP3    H245233   3.389   4.452  15.068  2.3061  0.0957  0.2159
 7940TIP3   OH245234   0.776   2.226  12.458  0.3236 -0.3712  0.2703
 7940TIP3    H145235   0.683   2.222  12.480  0.3283  0.7440  0.5416
 7940TIP3    H245236   0.783   2.181  12.373 -0.5492  0.0041 -0.0047
 7941TIP3   OH245237   0.210   5.188   6.566 -0.4258  0.0672  0.1489
 7941TIP3    H145238   0.151   5.236   6.509  2.1965  1.5853 -1.4688
 7941TIP3    H245239   0.268   5.141   6.506  0.6445 -0.5895  1.6469
 7942TIP3   OH245240   2.827   3.711   1.522  0.7504 -0.1018 -0.6259
 7942TIP3    H145241   2.834   3.626   1.479  3.8743 -0.1732 -0.1541
 7942TIP3    H245242   2.742   3.709   1.566 -0.5540 -1.7739 -3.0248
 7943TIP3   OH245243   3.114   4.436   4.860 -0.0908 -0.3172 -0.0600
 7943TIP3    H145244   3.120   4.521   4.904 -0.5240 -0.3774  0.1181
 7943TIP3    H245245   3.020   4.420   4.851 -0.0084 -0.6662 -0.3125
 7944TIP3   OH245246   4.369   3.185   3.555 -0.2837  0.2973  0.0451
 7944TIP3    H145247   4.338   3.251   3.494 -1.4415 -0.1522  0.1225
 7944TIP3    H245248   4.314   3.197   3.633 -0.4237 -0.6563  0.1038
 7945TIP3   OH245249   6.569   5.636  16.794 -0.6186 -0.2322 -0.4601
 7945TIP3    H145250   6.633   5.698  16.829 -0.4766  0.2334 -1.4909
 7945TIP3    H245251   6.574   5.560  16.852 -0.4845  0.5437  0.5698
 7946TIP3   OH245252   1.923   1.274  12.259  0.3237  0.3667 -0.5767
 7946TIP3    H145253   1.911   1.274  12.355 -0.6610  1.6103 -0.6773
 7946TIP3    H245254   1.856   1.213  12.228  0.5976  0.0150 -0.4831
 7947TIP3   OH245255   2.906   4.599   4.034 -0.8408 -0.1332  0.5241
 7947TIP3    H145256   2.880   4.675   3.982  0.7617  0.2566  0.2554
 7947TIP3    H245257   2.865   4.613   4.119 -0.0530  1.3790  0.6883
 7948TIP3   OH245258   4.738   3.150  12.708  0.7448  0.6505  0.1368
 7948TIP3    H145259   4.713   3.214  12.641  0.1047  1.0993  0.8007
 7948TIP3    H245260   4.707   3.066  12.674 -0.2170  0.9750  0.1931
 7949TIP3   OH245261   0.248   2.813  13.265 -0.1481 -0.3278  0.0688
 7949TIP3    H145262   0.300   2.869  13.207 -0.3626 -0.0578  0.1364
 7949TIP3    H245263   0.157   2.835  13.244 -0.2396 -0.7736 -0.0261
 7950TIP3   OH245264   5.988   2.747  11.206  0.1675 -0.2097 -0.0323
 7950TIP3    H145265   5.964   2.735  11.297  3.5629 -3.6069  0.7014
 7950TIP3    H245266   5.971   2.662  11.165  2.1612  0.0366 -1.5481
 7951TIP3   OH245267   5.265   0.816  15.499 -0.1610 -0.2965 -0.3105
 7951TIP3    H145268   5.177   0.799  15.465  0.0602 -2.2224 -0.0635
 7951TIP3    H245269   5.288   0.735  15.546  1.6307  0.2726 -0.1326
 7952TIP3   OH245270   1.518   3.314  12.406 -0.1275 -0.3726  0.3045
 7952TIP3    H145271   1.472   3.395  12.386  0.1065 -0.4962 -0.7846
 7952TIP3    H245272   1.539   3.320  12.499 -1.3147  0.1996  0.5486
 7953TIP3   OH245273   3.594   3.589  16.636  0.3153 -0.3618 -0.3197
 7953TIP3    H145274   3.689   3.583  16.628  0.3505 -0.3696  0.0645
 7953TIP3    H245275   3.561   3.578  16.547  0.7457  1.1639 -0.6803
 7954TIP3   OH245276   3.864   0.005   4.877  0.1124  0.5783 -0.0788
 7954TIP3    H145277   3.932  -0.047   4.919  1.8702  2.1149 -0.8545
 7954TIP3    H245278   3.911   0.057   4.811 -2.1099  0.3457 -1.9527
 7955TIP3   OH245279   4.202   0.281  13.271 -0.1273  0.3060  0.4908
 7955TIP3    H145280   4.278   0.245  13.226 -2.0603 -1.8620 -1.3080
 7955TIP3    H245281   4.190   0.368  13.232 -0.0254 -0.3454 -1.0281
 7956TIP3   OH245282   4.107   5.815   2.798 -0.0963 -0.2135 -0.4708
 7956TIP3    H145283   4.084   5.902   2.830 -0.5826  0.4213 -2.3847
 7956TIP3    H245284   4.106   5.759   2.876  0.5584  1.5391  0.8540
 7957TIP3   OH245285   6.607   4.200  14.328 -0.3729  0.2104 -0.3322
 7957TIP3    H145286   6.549   4.154  14.267  0.5837  0.4124 -1.4151
 7957TIP3    H245287   6.642   4.131  14.384 -0.3027 -0.1455 -0.8086
 7958TIP3   OH245288   0.217   2.854   6.499  0.0354  0.3296  0.1713
 7958TIP3    H145289   0.168   2.811   6.428 -0.1489 -1.0783  1.1138
 7958TIP3    H245290   0.272   2.784   6.535  0.0689  1.0041  1.4582
 7959TIP3   OH245291   3.124   3.412  13.674  0.1035 -0.4182  0.3223
 7959TIP3    H145292   3.055   3.346  13.665  0.8718 -1.1587 -0.4464
 7959TIP3    H245293   3.176   3.403  13.593  1.2498 -0.0748  0.9953
 7960TIP3   OH245294   6.625   1.310   2.382 -0.8123 -0.1848  0.0739
 7960TIP3    H145295   6.659   1.387   2.427 -3.3219  0.2712  1.3870
 7960TIP3    H245296   6.532   1.307   2.407 -1.1376 -2.8059 -1.1263
 7961TIP3   OH245297   4.569   5.758   0.780  0.5161  0.9650 -0.5714
 7961TIP3    H145298   4.662   5.781   0.784  0.6238  0.7523 -1.5217
 7961TIP3    H245299   4.538   5.801   0.700 -0.0180  0.3954 -0.6753
 7962TIP3   OH245300   3.965   2.228  13.689  0.3020 -0.2896  0.4341
 7962TIP3    H145301   4.014   2.165  13.637  1.4316  0.0590  1.0291
 7962TIP3    H245302   3.961   2.307  13.634 -2.1144 -1.1895 -0.7862
 7963TIP3   OH245303   0.357   1.738   0.183  0.2772 -0.3204  0.0659
 7963TIP3    H145304   0.414   1.724   0.258  0.1260  1.4954  0.5548
 7963TIP3    H245305   0.277   1.689   0.204  0.1345  0.3813  1.2088
 7964TIP3   OH245306   4.787   6.205   4.656 -0.1382 -0.3838  0.0749
 7964TIP3    H145307   4.864   6.178   4.605  1.2938  0.8109  1.5125
 7964TIP3    H245308   4.717   6.213   4.591  1.7573  1.6811 -1.9195
 7965TIP3   OH245309   4.407   4.076   6.559  0.0148  0.0757 -0.0631
 7965TIP3    H145310   4.365   4.151   6.517 -0.0663  0.7447  1.1416
 7965TIP3    H245311   4.336   4.033   6.607  0.2577 -0.1582  0.0861
 7966TIP3   OH245312   1.281   0.016  16.138  0.6062 -0.5797  0.0950
 7966TIP3    H145313   1.333   0.091  16.108  0.1421  0.1432  1.0390
 7966TIP3    H245314   1.203   0.017  16.083  0.2526  0.0902  0.6036
 7967TIP3   OH245315   4.669   0.673   3.774  0.3014 -0.0260  0.2935
 7967TIP3    H145316   4.601   0.636   3.719 -0.2261  1.6455 -0.2310
 7967TIP3    H245317   4.632   0.673   3.862 -1.0588  2.2567 -0.2027
 7968TIP3   OH245318   0.685   5.099   1.850  0.2068 -0.4885 -0.1778
 7968TIP3    H145319   0.611   5.041   1.834 -0.1322  0.2269 -1.3027
 7968TIP3    H245320   0.676   5.124   1.942 -1.3987  0.1906 -0.4833
 7969TIP3   OH245321   1.237   2.472  12.611 -0.2258 -0.1369  0.3254
 7969TIP3    H145322   1.237   2.378  12.596  1.5950 -0.5252  2.2814
 7969TIP3    H245323   1.147   2.500  12.589 -0.7469 -2.2500 -0.4830
 7970TIP3   OH245324   0.053   1.318  16.786  0.0073 -0.1344 -0.1019
 7970TIP3    H145325   0.049   1.300  16.692 -1.9321 -0.6211  0.0204
 7970TIP3    H245326  -0.038   1.308  16.816  0.9579 -2.9670  2.3688
 7971TIP3   OH245327   2.842   4.090   4.988 -0.2604 -0.6135 -0.1746
 7971TIP3    H145328   2.780   4.091   4.916  1.5019  0.5167 -1.7709
 7971TIP3    H245329   2.899   4.015   4.970  0.9659  0.4192 -0.7059
 7972TIP3   OH245330   6.441   0.068   1.128  0.1092  1.1848  0.1315
 7972TIP3    H145331   6.533   0.094   1.121  0.3157  0.4449  0.0408
 7972TIP3    H245332   6.392   0.150   1.120  0.7787  1.6346  0.6054
 7973TIP3   OH245333   2.445   4.538   5.513 -0.0041 -0.0467  0.3896
 7973TIP3    H145334   2.359   4.499   5.527  0.4068 -0.6529  1.4388
 7973TIP3    H245335   2.451   4.607   5.579  0.5554 -0.4640  0.7934
 7974TIP3   OH245336   6.699   0.298   2.232 -0.0559  0.6655  0.2790
 7974TIP3    H145337   6.750   0.238   2.178 -1.0585  0.1562 -0.1303
 7974TIP3    H245338   6.761   0.332   2.296  1.0136  0.7717 -0.7743
 7975TIP3   OH245339   3.635   4.168  16.031 -0.1906  0.1284 -0.2092
 7975TIP3    H145340   3.723   4.190  15.999  0.1304 -0.1004  0.5081
 7975TIP3    H245341   3.650   4.113  16.108 -0.9495  0.8587  0.4800
 7976TIP3   OH245342   5.121   4.864   2.582 -0.5376  0.4879  0.0297
 7976TIP3    H145343   5.198   4.907   2.619  0.4521  0.9065 -2.3631
 7976TIP3    H245344   5.077   4.932   2.531 -1.2346 -0.3109 -0.4729
 7977TIP3   OH245345   1.723   2.784  15.113 -0.1936 -0.2403 -0.2311
 7977TIP3    H145346   1.714   2.728  15.036  0.2216 -1.3240  0.4859
 7977TIP3    H245347   1.745   2.871  15.077  2.8948 -1.3153 -1.3015
 7978TIP3   OH245348   1.810   4.835  14.161  0.0213  0.2664 -0.0509
 7978TIP3    H145349   1.744   4.785  14.113  1.1449 -2.1502  0.7962
 7978TIP3    H245350   1.794   4.813  14.253  2.0902 -0.5511  0.1569
 7979TIP3   OH245351   3.786   4.185  13.095  0.2689  0.0893 -0.1003
 7979TIP3    H145352   3.840   4.232  13.031 -0.7909  0.3941 -0.8126
 7979TIP3    H245353   3.741   4.253  13.144 -0.8373 -0.1486 -0.7475
 7980TIP3   OH245354   1.541   2.841   2.564 -0.6819  0.1060  0.2303
 7980TIP3    H145355   1.501   2.755   2.550 -1.3853  0.4569  0.0512
 7980TIP3    H245356   1.582   2.834   2.651 -4.2145  0.8495  2.1343
 7981TIP3   OH245357   4.415   3.526   4.124  0.8869  0.9998 -0.5322
 7981TIP3    H145358   4.387   3.435   4.134  0.5197  1.1203 -0.4421
 7981TIP3    H245359   4.407   3.544   4.031  1.5525  0.7521 -0.6391
 7982TIP3   OH245360   4.320   1.006  11.374  0.0219  1.0258  0.1348
 7982TIP3    H145361   4.244   0.960  11.411 -0.0342  0.5226 -0.5848
 7982TIP3    H245362   4.363   1.047  11.450 -0.1036  0.0353  0.7588
 7983TIP3   OH245363   6.518   2.565  11.967 -0.3039 -0.0418 -0.6285
 7983TIP3    H145364   6.579   2.502  11.929  0.4730 -0.0290  0.5168
 7983TIP3    H245365   6.444   2.512  11.996 -0.1452 -0.2875 -0.6666
 7984TIP3   OH245366   0.420   3.849   2.149 -0.0473 -0.1362  0.0862
 7984TIP3    H145367   0.385   3.926   2.194 -1.5813 -1.4585  1.2930
 7984TIP3    H245368   0.460   3.797   2.219  1.9972  0.0313 -0.8715
 7985TIP3   OH245369   5.838   0.488  14.593 -0.0728  0.1058  0.0758
 7985TIP3    H145370   5.866   0.444  14.512 -0.7693  0.9054 -0.6221
 7985TIP3    H245371   5.825   0.579  14.567 -1.1859  0.1879  0.8648
 7986TIP3   OH245372   6.673   5.758   2.903 -0.0475  0.8228 -0.0079
 7986TIP3    H145373   6.627   5.695   2.959 -1.8652  0.5826 -1.6543
 7986TIP3    H245374   6.740   5.706   2.860  0.1223  0.5915  0.5256
 7987TIP3   OH245375   4.581   5.399   0.637  0.6227  0.4704 -0.0954
 7987TIP3    H145376   4.599   5.305   0.636  1.3757  0.5795  1.4074
 7987TIP3    H245377   4.524   5.413   0.713  1.9060  1.4357  0.7395
 7988TIP3   OH245378   6.057   2.878   3.923  0.1077 -0.3980 -0.4858
 7988TIP3    H145379   6.139   2.925   3.912 -0.8109  0.9468 -2.0026
 7988TIP3    H245380   6.011   2.889   3.840 -1.8574 -0.6442  0.4949
 7989TIP3   OH245381   2.458   5.705   3.359  0.1874  0.2412 -0.2364
 7989TIP3    H145382   2.363   5.713   3.363  0.1488 -0.1096 -0.4365
 7989TIP3    H245383   2.489   5.796   3.356 -0.2182  0.3649 -1.6950
 7990TIP3   OH245384   3.564   3.640   5.058 -0.0265 -0.8172 -0.1676
 7990TIP3    H145385   3.612   3.719   5.032 -1.9076  0.2047 -0.7470
 7990TIP3    H245386   3.614   3.568   5.021  0.0845  0.2939 -2.3580
 7991TIP3   OH245387   5.323   1.223   5.045 -0.0445 -0.0502  0.3571
 7991TIP3    H145388   5.396   1.207   4.985 -0.6601 -1.9760  0.0371
 7991TIP3    H245389   5.245   1.223   4.988 -0.5737 -1.2539  1.0397
 7992TIP3   OH245390   5.541   1.749  15.602  0.0822 -0.0987 -0.4144
 7992TIP3    H145391   5.596   1.727  15.527 -0.4432  0.9235 -1.1286
 7992TIP3    H245392   5.596   1.731  15.679  1.6469  1.4851 -1.1038
 7993TIP3   OH245393   4.158   0.925  14.926 -0.2916  0.0169  0.0256
 7993TIP3    H145394   4.108   0.857  14.972  0.6345 -0.4236  0.4027
 7993TIP3    H245395   4.249   0.900  14.938  0.0100  0.4096 -1.2837
 7994TIP3   OH245396   5.238   5.802   5.021 -0.0345  0.6216 -0.8574
 7994TIP3    H145397   5.210   5.728   4.968 -0.0465 -0.4064  0.5514
 7994TIP3    H245398   5.210   5.879   4.971 -0.3741 -0.3091 -2.1474
 7995TIP3   OH245399   1.550   4.038  14.333 -0.1835 -0.0741 -0.2642
 7995TIP3    H145400   1.552   3.990  14.416 -1.4871 -0.0308 -0.1863
 7995TIP3    H245401   1.577   3.974  14.267  2.0387  0.2063  0.2989
 7996TIP3   OH245402   1.387   1.182   3.803  0.5418 -0.0785  0.0862
 7996TIP3    H145403   1.436   1.180   3.885 -0.6746 -1.8189  0.8580
 7996TIP3    H245404   1.323   1.111   3.813  0.9795 -0.9959 -2.7625
 7997TIP3   OH245405   2.209   3.308   2.873  0.6364 -0.1452 -0.6800
 7997TIP3    H145406   2.304   3.310   2.863  0.6811 -1.5088 -0.6540
 7997TIP3    H245407   2.185   3.216   2.864 -0.7161  0.1995 -0.9236
 7998TIP3   OH245408   4.058   4.659   2.134 -0.1844  0.2874 -0.6985
 7998TIP3    H145409   4.117   4.692   2.067  0.3690  0.9531  0.0922
 7998TIP3    H245410   3.991   4.727   2.143  0.0200  0.4365 -0.2443
 7999TIP3   OH245411   5.931   5.304   5.592  0.1603 -0.2916 -0.0852
 7999TIP3    H145412   5.905   5.213   5.576 -0.1442 -0.2219  0.0178
 7999TIP3    H245413   5.857   5.343   5.637 -1.1510  0.9533 -3.0790
 8000TIP3   OH245414   6.013   2.811   5.267 -0.1891 -0.3658 -0.2266
 8000TIP3    H145415   6.004   2.907   5.265 -1.5799 -0.2887  3.0991
 8000TIP3    H245416   5.927   2.779   5.239  0.7705 -0.7761 -2.9312
 8001TIP3   OH245417   6.157   2.520  13.620  0.2665  0.1727 -0.2638
 8001TIP3    H145418   6.092   2.563  13.676 -0.7158  0.6792 -1.7420
 8001TIP3    H245419   6.115   2.514  13.534  1.6824 -0.7038 -0.9316
 8002TIP3   OH245420   3.599   0.555   1.418  0.6810  0.0460  0.0819
 8002TIP3    H145421   3.620   0.462   1.427  0.7409 -0.0922 -1.3151
 8002TIP3    H245422   3.552   0.561   1.335  0.0757  1.1720  0.4871
 8003TIP3   OH245423   4.291   5.864   1.764 -0.2902  0.1060  0.6057
 8003TIP3    H145424   4.317   5.835   1.676  1.7713 -1.3491  1.6017
 8003TIP3    H245425   4.363   5.921   1.792 -1.5938  1.6976  0.8728
 8004TIP3   OH245426   2.116   4.015  13.285  0.8881  0.1099  0.1477
 8004TIP3    H145427   2.089   4.107  13.275 -2.5181 -0.9855 -5.9385
 8004TIP3    H245428   2.189   4.005  13.224 -0.5374 -1.5346 -1.4240
 8005TIP3   OH245429   5.239   5.318   2.953 -0.4611  0.0373  0.6895
 8005TIP3    H145430   5.212   5.374   2.880  0.7034  2.5414  2.0453
 8005TIP3    H245431   5.332   5.301   2.938 -0.3522  0.0869  1.2767
 8006TIP3   OH245432   2.814   5.814  13.575  0.1447 -0.5439 -0.1946
 8006TIP3    H145433   2.782   5.726  13.559 -0.3093 -0.4520  0.1830
 8006TIP3    H245434   2.896   5.820  13.525 -0.5473 -0.6938 -1.3820
 8007TIP3   OH245435   2.299   6.078   5.912 -0.0751  0.0603 -0.1329
 8007TIP3    H145436   2.327   6.129   5.988  1.4360 -0.7701 -0.0987
 8007TIP3    H245437   2.369   6.090   5.848 -0.9907  0.1758 -1.1479
 8008TIP3   OH245438   0.060   2.110   0.842  0.4478  0.0824  0.3921
 8008TIP3    H145439   0.102   2.072   0.920 -1.1628 -1.6341  0.5025
 8008TIP3    H245440   0.041   2.200   0.867  2.0358  0.2500  1.1171
 8009TIP3   OH245441   3.536   1.199  14.249  0.3675  0.4193  0.0641
 8009TIP3    H145442   3.563   1.120  14.201  2.6861  0.6008  0.9706
 8009TIP3    H245443   3.450   1.177  14.285  0.1464 -0.9929 -1.2131
 8010TIP3   OH245444   4.146   1.221   4.291 -0.4707  0.4971  0.5919
 8010TIP3    H145445   4.060   1.209   4.251 -1.5540  1.6852  2.4486
 8010TIP3    H245446   4.128   1.241   4.383  1.7580  1.4259  0.9020
 8011TIP3   OH245447   1.468   0.701  11.113 -1.0112  0.0642  0.2322
 8011TIP3    H145448   1.433   0.725  11.027  0.7797 -2.4261 -1.3268
 8011TIP3    H245449   1.459   0.606  11.117  1.6787 -0.2542  1.4296
 8012TIP3   OH245450   5.766   4.302  16.807 -0.1623 -0.1674  0.4514
 8012TIP3    H145451   5.738   4.342  16.889  0.6874  0.4680  0.4521
 8012TIP3    H245452   5.694   4.245  16.782  0.5634 -2.3460  2.9216
 8013TIP3   OH245453   0.720   6.766   2.100 -0.3495  0.5753 -0.2632
 8013TIP3    H145454   0.816   6.761   2.098 -0.3931 -3.0276 -1.7646
 8013TIP3    H245455   0.701   6.808   2.184  2.5377  0.6900  0.4689
 8014TIP3   OH245456   1.833   1.697   0.529 -0.1411  0.0606 -0.3854
 8014TIP3    H145457   1.908   1.673   0.585  0.9666  2.1961 -0.8536
 8014TIP3    H245458   1.793   1.772   0.573 -2.4851 -1.3959  0.1739
 8015TIP3   OH245459   2.675   4.839  17.278  0.0288 -0.0477  0.2353
 8015TIP3    H145460   2.751   4.854  17.222 -2.0790  1.5449 -2.4718
 8015TIP3    H245461   2.631   4.924  17.282 -0.6260 -0.4327  3.3940
 8016TIP3   OH245462   5.599   2.427  11.367  0.4216 -0.0064 -0.1983
 8016TIP3    H145463   5.684   2.401  11.400  1.2506  1.1198 -1.3630
 8016TIP3    H245464   5.615   2.454  11.277 -1.2235 -0.0998 -0.5501
 8017TIP3   OH245465   4.342   6.108  14.073  0.4353  0.4286 -0.2794
 8017TIP3    H145466   4.342   6.129  13.979 -1.2181  1.4851 -0.0793
 8017TIP3    H245467   4.330   6.192  14.116 -2.1712 -0.3893  0.7333
 8018TIP3   OH245468   3.044   5.682  12.400 -0.1885  0.1913 -0.4288
 8018TIP3    H145469   3.051   5.598  12.446 -1.3799  0.3978  0.1491
 8018TIP3    H245470   3.007   5.660  12.315  0.2552  0.0458 -0.5914
 8019TIP3   OH245471   4.205   2.427  14.200 -0.0534  0.0641 -0.1958
 8019TIP3    H145472   4.288   2.467  14.176 -0.0037 -0.0240 -0.1675
 8019TIP3    H245473   4.220   2.333  14.194 -0.3548  0.0574 -0.8926
 8020TIP3   OH245474   3.191   1.928  16.615 -0.6138 -0.5931  0.3867
 8020TIP3    H145475   3.134   1.948  16.540 -0.5697 -0.9168  0.2667
 8020TIP3    H245476   3.265   1.881  16.577 -0.1361  0.0501  0.5043
 8021TIP3   OH245477   6.395   3.122  16.159 -0.7447 -0.4387  0.6770
 8021TIP3    H145478   6.358   3.037  16.137 -0.0333 -0.8092  0.8640
 8021TIP3    H245479   6.345   3.184  16.106 -0.8901 -1.0321  0.0987
 8022TIP3   OH245480   4.046   3.587   6.970  0.8642 -0.2833 -0.3257
 8022TIP3    H145481   4.051   3.559   6.879  0.5666 -0.0589 -0.4093
 8022TIP3    H245482   3.967   3.641   6.975  2.0134  1.4926 -0.4109
 8023TIP3   OH245483   5.658   0.982  12.215 -0.5484  0.0574 -0.0099
 8023TIP3    H145484   5.580   0.992  12.161  1.1118  1.0312 -2.4300
 8023TIP3    H245485   5.691   0.895  12.194 -0.5190 -0.0161  0.3352
 8024TIP3   OH245486   1.901   1.742  14.249  0.5049  0.8070  0.9153
 8024TIP3    H145487   1.835   1.707  14.309 -0.5277  2.1925  0.6305
 8024TIP3    H245488   1.867   1.723  14.162  0.7618  1.0307  0.7631
 8025TIP3   OH245489   2.298   2.805  16.646 -0.0972 -0.4608  0.2823
 8025TIP3    H145490   2.374   2.862  16.640 -0.4825  0.1566  1.0420
 8025TIP3    H245491   2.223   2.865  16.641 -0.5054 -0.8557  1.4835
 8026TIP3   OH245492   6.256   2.993  15.198 -0.2752 -0.0709  0.4834
 8026TIP3    H145493   6.262   3.072  15.250  0.5103 -0.6207  1.2684
 8026TIP3    H245494   6.241   2.923  15.261  2.0616 -0.9446  0.1961
 8027TIP3   OH245495   4.405   4.968   2.423  0.1142 -0.2879  0.0816
 8027TIP3    H145496   4.368   4.900   2.480 -1.4616  0.3011 -0.1767
 8027TIP3    H245497   4.497   4.944   2.413  0.1003 -1.1515  1.7612
 8028TIP3   OH245498   0.584   0.332   5.443  0.4563  0.6104  0.4545
 8028TIP3    H145499   0.518   0.401   5.449 -0.4752 -0.3682  2.1692
 8028TIP3    H245500   0.659   0.365   5.492  0.3632  0.7901  0.4741
 8029TIP3   OH245501   5.374   4.841  15.358 -0.3201 -0.0684 -0.1281
 8029TIP3    H145502   5.389   4.749  15.334  0.7089  0.0266  0.0976
 8029TIP3    H245503   5.391   4.890  15.279 -0.1860 -0.0209 -0.0702
 8030TIP3   OH245504   3.718   0.869  10.622 -0.2116 -0.5785  0.5647
 8030TIP3    H145505   3.662   0.945  10.607  0.6742 -0.2509 -1.4019
 8030TIP3    H245506   3.665   0.795  10.594 -0.1515 -0.4001 -0.0449
 8031TIP3   OH245507   5.895   6.647   5.198 -0.2169  0.5857  0.2565
 8031TIP3    H145508   5.832   6.659   5.268 -1.2599 -2.4287 -0.0149
 8031TIP3    H245509   5.851   6.680   5.120 -0.2935  1.1032  0.5166
 8032TIP3   OH245510   3.130   5.790  12.088  0.2250  0.1614 -0.4222
 8032TIP3    H145511   3.117   5.699  12.065  0.6907 -0.0428  0.0938
 8032TIP3    H245512   3.052   5.835  12.056 -0.6022 -0.6215  0.4630
 8033TIP3   OH245513   4.365   6.329  15.743 -0.2752  0.4032  0.0403
 8033TIP3    H145514   4.384   6.249  15.791 -0.0567  0.2584 -0.2854
 8033TIP3    H245515   4.443   6.345  15.690 -1.1939 -0.4560 -1.6594
 8034TIP3   OH245516   5.854   6.089   5.749  0.4746 -0.7158  0.1870
 8034TIP3    H145517   5.845   6.099   5.844 -1.2512 -0.8833  0.0711
 8034TIP3    H245518   5.949   6.085   5.734  0.8448  1.1623  1.6934
 8035TIP3   OH245519   6.769   0.938  15.779  0.9563  0.4254  0.2754
 8035TIP3    H145520   6.767   0.910  15.687  1.9073 -0.4689  0.5080
 8035TIP3    H245521   6.696   1.000  15.787 -0.8451 -1.4634 -0.4561
 8036TIP3   OH245522   4.202   2.271   0.160  0.2420  0.0242  0.4154
 8036TIP3    H145523   4.295   2.276   0.136  0.0926 -0.3820 -0.2937
 8036TIP3    H245524   4.186   2.178   0.174  0.0155  0.1291  0.8738
 8037TIP3   OH245525   3.373   2.930  11.705  0.5666  0.5577  0.3952
 8037TIP3    H145526   3.337   2.972  11.626  2.3622  1.5241  0.0363
 8037TIP3    H245527   3.298   2.922  11.763 -0.7611  0.0784 -1.2875
 8038TIP3   OH245528   6.206   4.153   2.966 -0.2472 -0.0019 -0.4437
 8038TIP3    H145529   6.170   4.135   2.879 -1.2089 -0.2559 -0.0108
 8038TIP3    H245530   6.282   4.208   2.949  0.3862 -1.1671 -1.5300
 8039TIP3   OH245531   1.348   3.423  13.582  0.1003 -0.7002  0.1791
 8039TIP3    H145532   1.368   3.380  13.665 -1.2886 -0.0774  0.8694
 8039TIP3    H245533   1.404   3.380  13.518  2.4953 -0.0502  1.7144
 8040TIP3   OH245534   5.102   2.259   2.607 -0.1350 -0.1568  0.6309
 8040TIP3    H145535   5.129   2.210   2.684 -1.1300  0.0588  1.1269
 8040TIP3    H245536   5.007   2.270   2.617 -0.0032  1.4769  0.3163
 8041TIP3   OH245537   3.054   0.032  15.084  0.3490 -0.0287  0.3452
 8041TIP3    H145538   2.991  -0.009  15.025 -0.8191  3.9225 -1.4301
 8041TIP3    H245539   3.139   0.019  15.040 -0.1607  0.5576 -0.8453
 8042TIP3   OH245540   3.689   0.559   6.486  0.2090 -0.3175  0.7618
 8042TIP3    H145541   3.721   0.469   6.475 -1.1069 -1.0976  2.6778
 8042TIP3    H245542   3.597   0.555   6.459  0.2277  0.5511  0.5423
 8043TIP3   OH245543   0.887   2.160  11.508 -0.0919  0.6963  0.2731
 8043TIP3    H145544   0.954   2.168  11.439 -0.4315  2.8663  0.1027
 8043TIP3    H245545   0.908   2.231  11.569 -1.2525  0.3486  1.0991
 8044TIP3   OH245546   0.065   5.785   3.479  0.2379  0.4987  0.3455
 8044TIP3    H145547   0.160   5.775   3.483  0.0683 -0.8569  1.8147
 8044TIP3    H245548   0.052   5.878   3.460  1.8438  0.6430 -0.2419
 8045TIP3   OH245549   2.326   6.455   0.331  0.1058 -0.2545  0.6239
 8045TIP3    H145550   2.241   6.418   0.353 -0.2772 -0.2126 -0.7129
 8045TIP3    H245551   2.386   6.381   0.330 -0.6419 -0.9151 -1.9834
 8046TIP3   OH245552   4.509   1.596   3.141 -0.7083 -0.0640 -0.0647
 8046TIP3    H145553   4.424   1.553   3.128 -1.2591  1.2597 -1.0315
 8046TIP3    H245554   4.488   1.689   3.146  0.8014  0.4149 -1.6846
 8047TIP3   OH245555   1.298   2.570  16.343  0.1598 -0.1470  0.4465
 8047TIP3    H145556   1.320   2.593  16.433 -0.9534  0.2292  0.6361
 8047TIP3    H245557   1.212   2.528  16.349  0.4423 -0.8769 -0.3494
 8048TIP3   OH245558   0.912   4.336   4.944  0.0630 -0.4459 -0.1302
 8048TIP3    H145559   0.866   4.354   5.027 -0.6344  0.1225 -0.6226
 8048TIP3    H245560   0.955   4.419   4.923  1.9330 -1.1579  0.6679
 8049TIP3   OH245561   6.399   6.004   2.624  0.2692  0.0522 -0.0492
 8049TIP3    H145562   6.431   6.094   2.635  0.4387  0.0289 -0.3374
 8049TIP3    H245563   6.406   5.965   2.711 -0.9477  0.6817  0.3621
 8050TIP3   OH245564   3.412   3.510  11.800  0.0475 -0.0299 -0.0200
 8050TIP3    H145565   3.354   3.464  11.739  0.9707  0.8609 -1.6221
 8050TIP3    H245566   3.352   3.552  11.862 -0.9260 -0.7422 -0.4474
 8051TIP3   OH245567   0.228   2.022  11.043  0.1532 -0.4751 -0.1893
 8051TIP3    H145568   0.242   2.106  11.086 -0.3454  0.6006 -2.0224
 8051TIP3    H245569   0.314   1.979  11.047  0.3413 -0.0250  1.0239
 8052TIP3   OH245570   2.892   6.664   1.464 -0.1606 -0.0155  0.4963
 8052TIP3    H145571   2.947   6.672   1.542 -0.3421  0.8184  0.5408
 8052TIP3    H245572   2.932   6.592   1.415  1.3047  0.9002  0.2639
 8053TIP3   OH245573   2.159   6.632   5.975  0.0966 -0.0585 -0.7181
 8053TIP3    H145574   2.169   6.697   5.906  0.3895 -1.2127 -1.8160
 8053TIP3    H245575   2.247   6.596   5.987 -0.3156 -1.2615 -1.1844
 8054TIP3   OH245576   4.424   5.841   1.204  0.5615 -0.5662  0.2557
 8054TIP3    H145577   4.408   5.936   1.207  0.7526 -0.5172 -0.1553
 8054TIP3    H245578   4.427   5.814   1.295  0.7264 -0.1341  0.3821
 8055TIP3   OH245579   4.591   1.959   4.937 -0.0211 -0.0595 -0.1949
 8055TIP3    H145580   4.609   1.894   4.869 -1.0844  0.0600 -0.6091
 8055TIP3    H245581   4.496   1.955   4.949  0.0784  0.3544  0.8539
 8056TIP3   OH245582   2.117   4.612  13.200 -0.5938  0.2421 -0.1258
 8056TIP3    H145583   2.052   4.601  13.269  0.5162 -1.3960  0.7377
 8056TIP3    H245584   2.075   4.577  13.122 -1.1389  0.1700  0.1924
 8057TIP3   OH245585   6.687   5.826  16.566  0.1444 -0.1457  0.4449
 8057TIP3    H145586   6.713   5.848  16.655 -2.3501  1.3121  0.9090
 8057TIP3    H245587   6.637   5.902  16.536  0.1554 -0.9636 -1.8934
 8058TIP3   OH245588   3.889   6.050   0.223  0.0173  0.0396 -0.0670
 8058TIP3    H145589   3.840   6.122   0.182 -0.1177  0.4501  0.7896
 8058TIP3    H245590   3.911   6.083   0.310  0.3986 -0.7704  0.1517
 8059TIP3   OH245591   5.088   4.222   2.147 -0.7335 -0.3299  0.4240
 8059TIP3    H145592   5.138   4.231   2.065 -1.4739  0.4699  0.0456
 8059TIP3    H245593   5.134   4.279   2.209 -1.1203  0.3430  0.0994
 8060TIP3   OH245594   2.349   1.298   4.851  0.0878  0.1109 -0.3028
 8060TIP3    H145595   2.303   1.244   4.916  1.7939 -1.3025 -0.1710
 8060TIP3    H245596   2.330   1.388   4.877 -1.3543 -0.4181  0.6130
 8061TIP3   OH245597   4.744   1.116  16.537 -0.0530 -0.5462 -0.4935
 8061TIP3    H145598   4.740   1.093  16.630  0.9781 -0.9811 -0.5447
 8061TIP3    H245599   4.838   1.114  16.516 -0.3541 -1.9674 -1.9056
 8062TIP3   OH245600   3.577   5.213  13.151  0.6982  0.4948 -0.2014
 8062TIP3    H145601   3.501   5.270  13.165 -0.7470 -1.3360 -0.3187
 8062TIP3    H245602   3.652   5.269  13.173 -0.7569  1.6370  2.3549
 8063TIP3   OH245603   4.845   5.246   0.231  0.6328  0.7419 -0.2937
 8063TIP3    H145604   4.831   5.339   0.250  0.0263  0.9769 -1.7330
 8063TIP3    H245605   4.904   5.246   0.156  1.2922 -0.0775  0.2018
 8064TIP3   OH245606   2.612   0.073   5.133  0.3664 -0.3681  0.2280
 8064TIP3    H145607   2.566   0.023   5.201  0.9919 -0.0931  0.8680
 8064TIP3    H245608   2.583   0.164   5.148  0.1305 -0.3737 -0.1873
 8065TIP3   OH245609   4.747   1.922   0.502  0.0805 -0.5488  0.0113
 8065TIP3    H145610   4.716   1.837   0.533 -0.1209 -0.4762  0.0110
 8065TIP3    H245611   4.763   1.910   0.409 -1.3564 -0.1945 -0.3010
 8066TIP3   OH245612   0.941   0.882   5.228  0.3778  0.3893 -0.4370
 8066TIP3    H145613   0.980   0.945   5.289  3.5818 -2.7771  1.1414
 8066TIP3    H245614   0.877   0.834   5.280  0.1749  0.2972 -0.7668
 8067TIP3   OH245615   3.224   5.171  11.588 -0.6654  0.3241  1.3715
 8067TIP3    H145616   3.244   5.264  11.582 -0.6608  0.2396 -2.6499
 8067TIP3    H245617   3.295   5.134  11.641  1.1160  2.1959  0.4218
 8068TIP3   OH245618   3.746   5.315   0.798 -0.6592  0.0869  0.3161
 8068TIP3    H145619   3.653   5.339   0.800 -0.2459  1.7503  1.7735
 8068TIP3    H245620   3.767   5.310   0.705 -1.6151  2.2137 -0.0659
 8069TIP3   OH245621   4.308   6.715  15.166  0.5636 -0.3698  0.0530
 8069TIP3    H145622   4.326   6.679  15.252 -1.0313 -2.0195 -0.2372
 8069TIP3    H245623   4.382   6.772  15.147  1.3750 -0.6707  2.1191
 8070TIP3   OH245624   4.957   2.968   5.059  0.1010 -0.2757 -0.2575
 8070TIP3    H145625   4.953   2.881   5.099 -1.3503 -0.5372 -0.9042
 8070TIP3    H245626   5.001   2.954   4.976  0.4936 -0.2601 -0.0544
 8071TIP3   OH245627   6.480   4.542  16.500  0.2499 -0.1710 -0.5481
 8071TIP3    H145628   6.404   4.517  16.447 -0.4480 -0.3589  0.5337
 8071TIP3    H245629   6.447   4.549  16.589  1.6369 -0.8901  0.0545
 8072TIP3   OH245630   3.345   6.465  16.492  1.1265 -0.5621 -0.2753
 8072TIP3    H145631   3.257   6.442  16.463  1.1820 -0.4912 -0.4986
 8072TIP3    H245632   3.402   6.402  16.447  1.0171 -2.0932  1.5632
 8073TIP3   OH245633   4.303   4.935   4.648  0.2792 -0.4657 -0.3940
 8073TIP3    H145634   4.290   4.885   4.568  1.3754  1.8831 -2.1597
 8073TIP3    H245635   4.215   4.954   4.679 -0.1700 -1.2363 -1.1479
 8074TIP3   OH245636   1.219   3.657   1.810 -0.9461  0.3569 -0.2555
 8074TIP3    H145637   1.253   3.679   1.896 -0.7776 -0.8371 -0.0114
 8074TIP3    H245638   1.139   3.608   1.828 -0.7202 -0.2054 -0.7749
 8075TIP3   OH245639   6.605   4.792   2.086  0.0914 -0.0786 -0.1084
 8075TIP3    H145640   6.524   4.741   2.094  0.3223 -0.6142 -1.0133
 8075TIP3    H245641   6.675   4.727   2.090  0.4675  0.3353  0.2262
 8076TIP3   OH245642   6.398   2.074  15.668  0.5337 -0.0338  0.5664
 8076TIP3    H145643   6.346   1.997  15.690  0.5537 -0.0793  0.4535
 8076TIP3    H245644   6.360   2.106  15.586  0.4201  0.1715  0.6970
 8077TIP3   OH245645   6.221   6.622  13.048  0.0463  0.4706 -0.3677
 8077TIP3    H145646   6.200   6.531  13.025  0.5294  0.4969 -0.9144
 8077TIP3    H245647   6.165   6.674  12.991  0.6859  0.5277 -0.9479
 8078TIP3   OH245648   2.919   0.765  15.172 -0.5110  0.4828  0.2486
 8078TIP3    H145649   2.997   0.726  15.212 -1.3583 -0.4463  1.0473
 8078TIP3    H245650   2.900   0.708  15.097  0.6242  1.7766 -1.0776
 8079TIP3   OH245651   0.539   2.411  16.396  0.1462  0.0032  0.2657
 8079TIP3    H145652   0.545   2.460  16.478  0.6284  0.0945  0.1762
 8079TIP3    H245653   0.564   2.473  16.328  3.0381 -0.9438  0.3515
 8080TIP3   OH245654   4.791   0.118   4.962 -0.9690 -0.4320 -0.1083
 8080TIP3    H145655   4.818   0.111   4.870 -2.4142 -0.4846 -0.5617
 8080TIP3    H245656   4.831   0.199   4.993  0.4380 -0.9695 -0.4389
 8081TIP3   OH245657   2.703   6.339   2.704  0.2995  0.0960 -0.2383
 8081TIP3    H145658   2.661   6.254   2.720  0.3478  0.1914  0.4197
 8081TIP3    H245659   2.682   6.359   2.613 -0.5512 -0.1599 -0.1081
 8082TIP3   OH245660   2.923   3.830  11.750 -0.2018 -0.5319  0.5083
 8082TIP3    H145661   3.018   3.843  11.759 -0.0623 -0.8757 -0.3611
 8082TIP3    H245662   2.915   3.765  11.680 -1.0513 -1.2429  1.2521
 8083TIP3   OH245663   2.836   2.485  17.244  0.2087  0.4186  0.0583
 8083TIP3    H145664   2.771   2.554  17.229 -0.7322 -0.5364 -0.3902
 8083TIP3    H245665   2.829   2.465  17.337  0.3564  0.7954  0.1530
 8084TIP3   OH245666   6.250   6.389   3.718 -0.6011 -0.2768 -0.4799
 8084TIP3    H145667   6.330   6.336   3.719 -0.4863 -0.1109 -0.6526
 8084TIP3    H245668   6.187   6.339   3.770  0.5618  1.0458  2.4343
 8085TIP3   OH245669   3.727   5.852  13.785 -0.2219  0.1181 -0.4412
 8085TIP3    H145670   3.797   5.916  13.801  0.3072 -0.8267  1.2208
 8085TIP3    H245671   3.720   5.848  13.690  0.4982  1.8125 -0.6063
 8086TIP3   OH245672   0.299   0.922  13.980  0.4393  0.0695 -0.5378
 8086TIP3    H145673   0.281   0.900  13.889 -0.4866 -2.1072  0.1210
 8086TIP3    H245674   0.319   0.839  14.022  2.4190  1.1891  0.9593
 8087TIP3   OH245675   4.806   1.526  13.363  0.1952 -0.2619 -0.7373
 8087TIP3    H145676   4.862   1.541  13.440  1.4483 -0.1778 -1.6334
 8087TIP3    H245677   4.798   1.431  13.358 -0.6932 -0.2380  0.0429
 8088TIP3   OH245678   6.377   3.974   1.347  0.2258  0.5527  0.4628
 8088TIP3    H145679   6.401   4.002   1.259 -0.9667  1.7405  0.4870
 8088TIP3    H245680   6.289   3.937   1.338  1.3513 -2.3504  0.6237
 8089TIP3   OH245681   1.823   2.973   6.416 -0.1711  0.1434 -0.4631
 8089TIP3    H145682   1.896   2.971   6.478  0.2409  1.4652 -0.8550
 8089TIP3    H245683   1.749   3.007   6.467 -0.8691 -2.2063  0.2222
 8090TIP3   OH245684   4.299   1.665   6.459  0.4640  0.7348 -0.3447
 8090TIP3    H145685   4.311   1.594   6.521 -0.3387  1.2607  0.4415
 8090TIP3    H245686   4.217   1.644   6.414 -0.2599  1.5768  0.5216
 8091TIP3   OH245687   4.894   4.600   3.617 -0.1131  0.6563 -0.6036
 8091TIP3    H145688   4.971   4.552   3.648 -1.1661  0.3241  1.7144
 8091TIP3    H245689   4.893   4.680   3.670 -1.0358  0.9394 -1.0301
 8092TIP3   OH245690   5.586   2.548   3.085 -0.6453  0.2512  0.3421
 8092TIP3    H145691   5.645   2.580   3.016  1.4742  0.2044  2.0079
 8092TIP3    H245692   5.588   2.453   3.075 -2.1240  0.3129 -0.8572
 8093TIP3   OH245693   5.451   3.491   1.386  0.0835  0.2714 -0.3854
 8093TIP3    H145694   5.381   3.467   1.324  0.7089 -0.2183 -0.9142
 8093TIP3    H245695   5.481   3.407   1.420 -0.2632  0.5420  0.6049
 8094TIP3   OH245696   5.768   4.963  11.243 -0.2003 -0.2422  0.0216
 8094TIP3    H145697   5.850   4.956  11.193  0.5684 -1.6436  1.3855
 8094TIP3    H245698   5.781   4.905  11.318 -0.6768  2.9010  2.7583
 8095TIP3   OH245699   1.511   4.749   0.568  0.0868  0.1021 -0.0152
 8095TIP3    H145700   1.470   4.810   0.507  2.4263  0.6748 -1.1607
 8095TIP3    H245701   1.553   4.684   0.512 -1.0985 -1.7361  1.1507
 8096TIP3   OH245702   2.934   0.594   2.944  0.1457 -0.7543  0.0557
 8096TIP3    H145703   2.974   0.514   2.978 -1.8413 -1.2760  1.3483
 8096TIP3    H245704   2.957   0.594   2.851  1.6762 -1.8590  0.3829
 8097TIP3   OH245705   0.972   0.117  11.396 -0.3862 -0.3733  0.0202
 8097TIP3    H145706   0.974   0.160  11.482  1.4353 -0.5220  0.0961
 8097TIP3    H245707   1.044   0.158  11.347  0.3010 -2.1096 -0.4994
 8098TIP3   OH245708   2.154   4.530   4.733  0.4838 -0.5739  0.5880
 8098TIP3    H145709   2.135   4.582   4.811  1.0223 -1.1072  1.0926
 8098TIP3    H245710   2.168   4.594   4.664  0.0453 -0.0878  0.9416
 8099TIP3   OH245711   3.501   3.798   0.632 -0.0369 -0.0849  0.5779
 8099TIP3    H145712   3.508   3.879   0.683 -2.8104 -0.4243  1.6885
 8099TIP3    H245713   3.541   3.731   0.688  1.0808  0.2779  0.2320
 8100TIP3   OH245714   5.539   6.273  10.761  0.3112 -0.1159 -0.0135
 8100TIP3    H145715   5.479   6.200  10.774  0.5543 -0.4975 -0.9311
 8100TIP3    H245716   5.583   6.253  10.679  0.1433  1.2289 -0.4574
 8101TIP3   OH245717   6.410   3.007   4.625  0.0173 -0.4170 -0.8118
 8101TIP3    H145718   6.378   3.050   4.546 -0.5742 -0.5821 -0.6691
 8101TIP3    H245719   6.345   3.029   4.692  1.6175  1.5053  0.1884
 8102TIP3   OH245720   1.976   2.908  10.483 -0.1006 -0.4157  0.0605
 8102TIP3    H145721   2.017   2.840  10.537  3.1323  0.7189 -0.7245
 8102TIP3    H245722   1.935   2.967  10.546 -0.9197 -1.8142  0.8955
 8103TIP3   OH245723   5.470   5.425   3.989  0.1582 -0.0698  0.0382
 8103TIP3    H145724   5.388   5.469   4.008  0.1012  0.4081 -1.2283
 8103TIP3    H245725   5.493   5.381   4.071 -0.3706  1.3431  0.9843
 8104TIP3   OH245726   2.435   0.243  10.950 -0.5058 -0.1061 -0.6339
 8104TIP3    H145727   2.425   0.246  10.855 -0.5379 -0.5826 -0.6478
 8104TIP3    H245728   2.350   0.273  10.984 -1.0175 -1.3390 -0.7582
 8105TIP3   OH245729   4.144   3.603  11.728  0.4631  0.1537  0.4940
 8105TIP3    H145730   4.201   3.680  11.737 -1.2266  1.4593  0.5464
 8105TIP3    H245731   4.063   3.629  11.773 -0.3318 -1.4736  0.0460
 8106TIP3   OH245732   6.157   4.069  11.021 -0.0907 -0.1286 -0.1658
 8106TIP3    H145733   6.134   4.045  10.932  0.4444 -0.0141 -0.3412
 8106TIP3    H245734   6.243   4.028  11.035 -0.8298 -1.4430  0.8225
 8107TIP3   OH245735   2.733   2.848   6.306  0.5329 -0.5313 -0.1294
 8107TIP3    H145736   2.650   2.814   6.338  0.3555 -1.2126 -1.2653
 8107TIP3    H245737   2.786   2.770   6.289  1.4129 -0.1067  0.5546
 8108TIP3   OH245738   2.163   6.476  12.766 -0.2438 -0.5619 -0.3998
 8108TIP3    H145739   2.209   6.442  12.689  0.0827 -1.0912  0.0171
 8108TIP3    H245740   2.137   6.564  12.741 -0.3253 -0.7982 -1.1917
 8109TIP3   OH245741   1.033   6.164  15.056  0.5646  0.6533  1.1548
 8109TIP3    H145742   0.943   6.134  15.057  0.6326  0.0952 -1.4626
 8109TIP3    H245743   1.084   6.089  15.087  0.2989 -0.0603 -0.0525
 8110TIP3   OH245744   1.481   0.887  16.666 -0.4698  0.0879  0.1985
 8110TIP3    H145745   1.523   0.830  16.602  1.4019 -0.0768  1.4781
 8110TIP3    H245746   1.453   0.964  16.616  0.2676 -0.3638 -0.9371
 8111TIP3   OH245747   1.149   0.975   3.891 -0.0631 -0.2375  0.1282
 8111TIP3    H145748   1.170   0.943   3.979 -2.4352 -1.0544  0.4570
 8111TIP3    H245749   1.070   0.927   3.866 -0.3540  1.1378 -1.8119
 8112TIP3   OH245750   4.990   0.079  13.825 -0.1542  0.4299  0.0510
 8112TIP3    H145751   5.019   0.031  13.748 -0.3829  1.6941 -0.8517
 8112TIP3    H245752   5.035   0.036  13.898  0.0681 -0.7903 -0.7709
 8113TIP3   OH245753   1.650   1.719  13.147  0.0037  0.5819  0.4454
 8113TIP3    H145754   1.561   1.752  13.141 -1.3154 -2.8253 -1.5176
 8113TIP3    H245755   1.682   1.718  13.057  1.1607 -0.3763  0.8272
 8114TIP3   OH245756   4.310   1.350   0.742  0.2379  0.2641  0.1511
 8114TIP3    H145757   4.232   1.398   0.712 -0.1138 -0.2372  0.2501
 8114TIP3    H245758   4.333   1.294   0.668  0.4761  0.3746  0.1408
 8115TIP3   OH245759   5.845   0.455  13.248 -0.2120  0.5799 -0.0618
 8115TIP3    H145760   5.815   0.537  13.207 -1.0024  0.6364  0.6114
 8115TIP3    H245761   5.935   0.474  13.275 -0.4898  1.3455  0.3744
 8116TIP3   OH245762   0.917   1.580  16.232  0.1259 -0.0815  1.1406
 8116TIP3    H145763   0.929   1.661  16.183 -0.4591 -0.9910 -0.5714
 8116TIP3    H245764   0.822   1.574  16.244 -0.0368 -1.4427 -0.4727
 8117TIP3   OH245765   5.377   4.066   4.272  0.5516 -0.1955  0.0518
 8117TIP3    H145766   5.439   3.998   4.299  0.0621 -0.7651 -0.2348
 8117TIP3    H245767   5.339   4.033   4.191  0.7565  0.7152 -0.4189
 8118TIP3   OH245768   0.009   5.025  13.369  0.0709  0.2588 -0.2472
 8118TIP3    H145769   0.009   4.935  13.335 -0.3925  0.6275 -1.2595
 8118TIP3    H245770  -0.051   5.072  13.311  2.0271  1.7630 -1.1807
 8119TIP3   OH245771   0.424   3.757   1.715  0.4508 -0.3291 -0.0869
 8119TIP3    H145772   0.515   3.745   1.687  0.5878  1.1814 -0.3665
 8119TIP3    H245773   0.426   3.835   1.770 -0.4021 -1.3017  1.4051
 8120TIP3   OH245774   5.906   6.637  16.602 -0.1756  0.2789 -0.6782
 8120TIP3    H145775   5.894   6.627  16.696  0.9022 -0.0668 -0.5665
 8120TIP3    H245776   5.949   6.556  16.574 -0.7392  0.2559 -1.5214
 8121TIP3   OH245777   2.597   0.430  12.495 -0.0349  0.4176  0.1678
 8121TIP3    H145778   2.672   0.485  12.517 -1.4683  2.3899  0.3834
 8121TIP3    H245779   2.603   0.418  12.400 -0.2364  1.8587 -0.0558
 8122TIP3   OH245780   4.996   2.835  16.106  1.2690 -0.3625  0.7511
 8122TIP3    H145781   4.903   2.860  16.106  1.0128 -1.1854 -0.4529
 8122TIP3    H245782   5.012   2.800  16.193  0.4116 -0.3043  0.9427
 8123TIP3   OH245783   1.886   5.977   4.142 -0.3029  0.5157  0.7493
 8123TIP3    H145784   1.856   5.895   4.102 -0.9049  1.0671  0.0421
 8123TIP3    H245785   1.885   5.959   4.236  0.9588 -0.7428  0.5567
 8124TIP3   OH245786   3.166   6.324   3.284 -0.4217 -0.0711  0.0416
 8124TIP3    H145787   3.133   6.257   3.225  1.5902  0.4146 -1.7702
 8124TIP3    H245788   3.142   6.407   3.243 -0.5603  0.3106  0.8642
 8125TIP3   OH245789   1.891   3.005  13.586 -0.4469  0.4208  0.2068
 8125TIP3    H145790   1.872   3.012  13.492 -0.7291  0.4822  0.2702
 8125TIP3    H245791   1.935   2.921  13.595  2.2625  1.6494 -0.4486
 8126TIP3   OH245792   3.562   0.065   1.779 -0.1742  0.0022 -0.5716
 8126TIP3    H145793   3.570   0.002   1.851 -0.2443  1.4102  0.7353
 8126TIP3    H245794   3.650   0.101   1.769  0.2896 -1.5129 -2.5368
 8127TIP3   OH245795   0.854   0.717   2.340 -0.0529  0.0228 -0.1326
 8127TIP3    H145796   0.782   0.683   2.286 -0.1179  2.4134 -1.6809
 8127TIP3    H245797   0.820   0.798   2.377  1.6821  0.9618 -0.5334
 8128TIP3   OH245798   6.542   5.986  13.291 -0.2357 -0.0897 -0.0822
 8128TIP3    H145799   6.479   5.996  13.219 -1.7218  0.8270  1.2721
 8128TIP3    H245800   6.550   5.891  13.301 -2.5390 -0.2829  0.5942
 8129TIP3   OH245801   1.450   0.157   2.143  0.2475 -0.4788  0.1470
 8129TIP3    H145802   1.516   0.225   2.150  0.1837 -0.1021 -2.2029
 8129TIP3    H245803   1.489   0.081   2.186  0.6932  0.7178  1.9713
 8130TIP3   OH245804   4.828   3.901   0.159  0.1745 -0.5308  0.4661
 8130TIP3    H145805   4.891   3.923   0.089 -1.2439 -0.4779 -0.8512
 8130TIP3    H245806   4.763   3.846   0.116 -1.0054 -0.1123  1.6431
 8131TIP3   OH245807   1.683   3.762  15.931  0.1061  0.5258 -0.5778
 8131TIP3    H145808   1.760   3.818  15.944  0.2531  0.2478 -0.2318
 8131TIP3    H245809   1.718   3.680  15.898  0.4905 -1.0775  3.2238
 8132TIP3   OH245810   4.746   3.690   5.887 -0.7923  0.4553  0.7073
 8132TIP3    H145811   4.805   3.758   5.920  1.8469 -1.4130  0.1952
 8132TIP3    H245812   4.773   3.611   5.935 -2.9816 -0.4941  0.4777
 8133TIP3   OH245813   4.436   6.136  15.973 -0.4050  0.2798  0.5507
 8133TIP3    H145814   4.355   6.160  16.018 -0.8787  0.9100 -0.6159
 8133TIP3    H245815   4.489   6.093  16.041 -1.6561 -0.0437  1.3508
 8134TIP3   OH245816   4.607   3.841   5.310 -0.3401  0.2226  0.2788
 8134TIP3    H145817   4.604   3.861   5.404 -1.1767  0.8386  0.1397
 8134TIP3    H245818   4.561   3.758   5.302  0.1329 -0.0572  0.4700
 8135TIP3   OH245819   2.507   0.829  16.976  0.0805 -0.2325  0.2134
 8135TIP3    H145820   2.515   0.737  16.954  0.7506 -0.2973  0.7226
 8135TIP3    H245821   2.554   0.839  17.059  1.2969  0.8366 -0.5628
 8136TIP3   OH245822   5.248   6.009  15.900 -0.2545 -0.2038 -0.3133
 8136TIP3    H145823   5.304   6.028  15.975  0.4600  2.4408 -1.4064
 8136TIP3    H245824   5.283   5.927  15.865  0.8133 -0.3175  0.9379
 8137TIP3   OH245825   6.110   2.704   1.292  0.3820  0.1225 -0.2357
 8137TIP3    H145826   6.028   2.658   1.313 -1.4292  2.9863 -0.4739
 8137TIP3    H245827   6.131   2.675   1.204  0.8570 -2.2037  0.5502
 8138TIP3   OH245828   4.023   0.649   4.597 -0.4820 -0.1528 -0.5655
 8138TIP3    H145829   4.097   0.650   4.658  0.1014  1.1655 -1.2613
 8138TIP3    H245830   4.036   0.571   4.544 -1.1127 -1.4498  1.0917
 8139TIP3   OH245831   1.464   1.697  13.440  0.1526 -0.1122  0.0015
 8139TIP3    H145832   1.514   1.618  13.462 -0.2374 -0.2215  0.5066
 8139TIP3    H245833   1.491   1.718  13.351  0.9627 -0.2765  0.2033
 8140TIP3   OH245834   4.186   4.632   0.301  0.4163  0.2863  0.0915
 8140TIP3    H145835   4.273   4.647   0.339  0.8526  0.2780 -0.8894
 8140TIP3    H245836   4.140   4.715   0.313  0.5710  0.3031  0.5860
 8141TIP3   OH245837   4.612   6.667   4.590 -0.4277 -0.0349 -0.0919
 8141TIP3    H145838   4.546   6.602   4.613  0.1575 -1.1293 -1.3668
 8141TIP3    H245839   4.695   6.630   4.621 -0.2057  0.5724  0.0611
 8142TIP3   OH245840   4.232   6.076  11.327  0.4784  0.1078  0.0865
 8142TIP3    H145841   4.245   6.023  11.405  0.6988  0.3622  0.2229
 8142TIP3    H245842   4.138   6.074  11.311  0.5323 -0.6736 -0.1556
 8143TIP3   OH245843   0.735   5.375  16.036  0.5471 -0.3748  0.0752
 8143TIP3    H145844   0.698   5.287  16.033 -1.6909  0.5280 -0.5260
 8143TIP3    H245845   0.707   5.415  15.954  2.7400  0.4704 -0.3138
 8144TIP3   OH245846   1.476   6.125  11.934 -0.4288 -0.3293  0.1520
 8144TIP3    H145847   1.382   6.116  11.918 -0.0685 -1.3695 -1.6452
 8144TIP3    H245848   1.514   6.045  11.899  1.2978  0.8144 -0.7605
 8145TIP3   OH245849   0.189   1.571  16.787  0.2963 -0.8546  0.5902
 8145TIP3    H145850   0.150   1.493  16.825  1.4923 -2.5127 -1.3456
 8145TIP3    H245851   0.260   1.538  16.731  0.0196  1.4881 -1.3483
 8146TIP3   OH245852   3.423   3.326   3.495  0.2478  0.0168 -0.1759
 8146TIP3    H145853   3.403   3.280   3.577  0.2261 -0.0729 -0.2322
 8146TIP3    H245854   3.350   3.307   3.437  0.4672 -0.2678 -0.3620
 8147TIP3   OH245855   4.392   2.246   0.509  0.3618 -0.7486 -0.5055
 8147TIP3    H145856   4.482   2.218   0.527  0.7651  0.3876 -0.6903
 8147TIP3    H245857   4.340   2.203   0.577  1.0136 -1.5502 -0.4989
 8148TIP3   OH245858   6.474   2.262   0.542  0.3196 -0.3682  0.5125
 8148TIP3    H145859   6.534   2.334   0.524  1.8993 -2.0094 -1.2571
 8148TIP3    H245860   6.530   2.184   0.546 -1.4516 -1.6917  1.0038
 8149TIP3   OH245861   4.126   1.140  12.080  0.0429  0.4602 -0.3396
 8149TIP3    H145862   4.184   1.075  12.119 -1.1990 -0.4592  0.0594
 8149TIP3    H245863   4.101   1.197  12.152 -0.4941  0.1181 -0.2517
 8150TIP3   OH245864   1.142   5.334  16.947  0.2132  0.4531 -0.1337
 8150TIP3    H145865   1.178   5.326  16.859 -0.6814  1.2127 -0.5844
 8150TIP3    H245866   1.213   5.373  16.998  0.8437 -0.2718 -0.4275
 8151TIP3   OH245867   2.212   1.792  13.003 -0.0039 -0.0315 -0.2026
 8151TIP3    H145868   2.289   1.736  12.989 -0.2764 -0.2884 -0.7222
 8151TIP3    H245869   2.186   1.819  12.915 -0.5938 -0.0632 -0.0428
 8152TIP3   OH245870   1.630   6.519   4.231  0.3953 -0.1725  0.3869
 8152TIP3    H145871   1.578   6.439   4.228  0.8015 -0.4878  1.2589
 8152TIP3    H245872   1.720   6.490   4.212  0.4618  0.1463  0.2173
 8153TIP3   OH245873   4.162   0.129   4.136  0.0949  0.3495  0.8195
 8153TIP3    H145874   4.129   0.137   4.225 -2.2487  1.5379 -0.0669
 8153TIP3    H245875   4.149   0.037   4.114 -0.2539  0.2636  1.3656
 8154TIP3   OH245876   0.929   5.103  13.319 -0.1442 -0.0320 -0.4136
 8154TIP3    H145877   0.972   5.019  13.305  0.6068  0.5059 -1.5086
 8154TIP3    H245878   0.987   5.150  13.378  0.3260  0.3411 -1.1524
 8155TIP3   OH245879   6.335   3.425  10.962  0.1364  0.4526  0.6129
 8155TIP3    H145880   6.371   3.336  10.965 -2.0107 -0.4500  2.4918
 8155TIP3    H245881   6.412   3.482  10.953  1.4422 -1.5849 -3.1141
 8156TIP3   OH245882   4.057   0.902   4.513 -0.1196  0.1016 -0.0467
 8156TIP3    H145883   4.054   0.809   4.536  0.8241 -0.2024 -1.0235
 8156TIP3    H245884   4.116   0.941   4.578 -0.1425 -0.0790  0.0836
 8157TIP3   OH245885   1.241   2.525  13.684  0.4280 -0.4069 -0.3288
 8157TIP3    H145886   1.300   2.551  13.754 -0.0955 -0.0208 -0.0261
 8157TIP3    H245887   1.169   2.482  13.728 -1.0278  1.8125 -0.3777
 8158TIP3   OH245888   5.155   6.745   4.928 -0.6091 -0.4352  0.0311
 8158TIP3    H145889   5.162   6.839   4.946 -0.8490 -0.0661 -1.5737
 8158TIP3    H245890   5.239   6.721   4.890 -0.7422 -0.7374 -0.0789
 8159TIP3   OH245891   5.468   1.441   4.087  0.2433 -0.2138 -0.0223
 8159TIP3    H145892   5.396   1.493   4.122 -1.5310 -0.9007 -2.4379
 8159TIP3    H245893   5.503   1.493   4.015 -1.4796 -2.1357 -2.3942
 8160TIP3   OH245894   5.889   3.568   5.301 -0.3329  0.2704 -0.2381
 8160TIP3    H145895   5.931   3.612   5.375  0.3543 -0.7497 -0.0029
 8160TIP3    H245896   5.803   3.609   5.294 -0.2370  0.6784  0.8477
 8161TIP3   OH245897   4.397   5.572  13.353  0.0344  0.5677 -0.5412
 8161TIP3    H145898   4.375   5.589  13.261 -0.4641 -1.5787 -0.8672
 8161TIP3    H245899   4.375   5.480  13.366 -0.1290  0.8877  1.8190
 8162TIP3   OH245900   0.182   1.704  12.692  0.2316 -0.4302 -0.0657
 8162TIP3    H145901   0.099   1.699  12.739 -0.2798 -0.6492 -0.9681
 8162TIP3    H245902   0.248   1.676  12.756 -0.5882 -1.9002  0.1728
 8163TIP3   OH245903   5.477   3.418  12.916  0.2969 -0.8340  0.1588
 8163TIP3    H145904   5.456   3.412  12.823 -1.1981 -2.1055  0.5297
 8163TIP3    H245905   5.519   3.335  12.938 -1.3857 -1.5049  1.0425
 8164TIP3   OH245906   0.070   0.990  13.482  0.2287 -0.1860 -0.1586
 8164TIP3    H145907   0.132   1.063  13.484 -1.0580  0.9460  0.7171
 8164TIP3    H245908   0.078   0.954  13.394  2.2176 -0.1963 -0.0164
 8165TIP3   OH245909   0.100   5.529   3.753 -0.6093  0.1320  0.5206
 8165TIP3    H145910   0.089   5.524   3.658 -1.8724 -2.7337  0.7189
 8165TIP3    H245911   0.041   5.600   3.780 -2.0497 -0.5808 -0.6269
 8166TIP3   OH245912   2.681   0.471  11.440  0.3527  0.2724  0.0062
 8166TIP3    H145913   2.751   0.475  11.375 -1.1737  0.0998 -1.7220
 8166TIP3    H245914   2.713   0.525  11.513  3.2460 -1.6542  0.3171
 8167TIP3   OH245915   3.911   0.263   1.258  0.1769 -0.7567  0.3757
 8167TIP3    H145916   3.818   0.244   1.272 -0.4578  0.8768 -1.2518
 8167TIP3    H245917   3.914   0.357   1.239  2.0290 -0.9784 -0.6937
 8168TIP3   OH245918   0.741   6.248   0.235 -0.6497 -0.3696  0.5578
 8168TIP3    H145919   0.805   6.236   0.305 -1.4490 -0.7187  1.2564
 8168TIP3    H245920   0.767   6.186   0.167 -0.9091 -1.3675  1.3343
 8169TIP3   OH245921   3.770   4.187  12.680  0.3689  0.0055  0.3452
 8169TIP3    H145922   3.729   4.195  12.766  0.1767 -1.1380  0.3800
 8169TIP3    H245923   3.862   4.168  12.698  0.4939  0.5494  0.2880
 8170TIP3   OH245924   1.171   0.246   2.566  0.5946  0.6178  0.0195
 8170TIP3    H145925   1.106   0.228   2.634  2.3034  0.4698  1.6877
 8170TIP3    H245926   1.154   0.337   2.540 -1.2295  0.1167 -0.7252
 8171TIP3   OH245927   5.756   4.002  16.216  0.3850  0.2838  0.0151
 8171TIP3    H145928   5.840   4.045  16.232  0.3967  0.2900 -0.0611
 8171TIP3    H245929   5.693   4.074  16.206  0.3129  0.2729  0.3941
 8172TIP3   OH245930   1.314   0.898  16.898  0.2556 -0.3917  0.2959
 8172TIP3    H145931   1.367   0.872  16.822 -1.2752 -1.0255 -0.5994
 8172TIP3    H245932   1.224   0.895  16.866 -0.2758  2.4731  1.1959
 8173TIP3   OH245933   1.027   5.498   0.292 -0.5242 -0.3561  1.0303
 8173TIP3    H145934   0.998   5.471   0.205 -0.9993 -1.4637  1.5098
 8173TIP3    H245935   1.098   5.560   0.276  1.5808 -2.8915 -0.1744
 8174TIP3   OH245936   1.473   4.710   2.898 -0.1921 -0.4035  0.3397
 8174TIP3    H145937   1.386   4.739   2.870 -0.0240  0.5282  0.7516
 8174TIP3    H245938   1.475   4.727   2.992  0.9614  0.9952  0.0937
 8175TIP3   OH245939   1.712   1.305   2.435 -0.0473 -0.5451 -0.1763
 8175TIP3    H145940   1.771   1.230   2.431  0.1833 -0.3661 -0.1488
 8175TIP3    H245941   1.769   1.380   2.455  0.4396  0.4195 -4.3111
 8176TIP3   OH245942   4.853   4.191   2.593 -0.5465  0.4143  0.3644
 8176TIP3    H145943   4.939   4.154   2.612 -0.4079  0.4669 -0.1461
 8176TIP3    H245944   4.837   4.169   2.501 -1.6392 -0.6986  0.7857
 8177TIP3   OH245945   1.940   1.679   5.649 -0.7802 -0.1911 -0.0707
 8177TIP3    H145946   1.909   1.665   5.738 -1.7200  0.7269 -0.2384
 8177TIP3    H245947   1.916   1.598   5.603 -1.5445 -0.1228  0.1845
 8178TIP3   OH245948   6.383   0.734   4.849 -0.3470 -0.1658  0.5820
 8178TIP3    H145949   6.354   0.644   4.834 -0.0044 -0.0815 -0.7623
 8178TIP3    H245950   6.352   0.755   4.936 -0.8336 -1.4344  0.7407
 8179TIP3   OH245951   2.174   1.068   4.726 -0.4412 -0.5446  0.3951
 8179TIP3    H145952   2.154   1.157   4.698  0.0223 -0.9842 -1.4914
 8179TIP3    H245953   2.128   1.057   4.809 -1.3925  1.0822  0.1098
 8180TIP3   OH245954   5.335   3.328   0.822  0.3257  0.0179  0.4927
 8180TIP3    H145955   5.413   3.355   0.774  1.2449 -2.6200  0.3470
 8180TIP3    H245956   5.323   3.236   0.798 -2.3623  0.1223  1.1647
 8181TIP3   OH245957   0.565   0.583   0.546 -0.4855 -0.4176 -0.1732
 8181TIP3    H145958   0.586   0.663   0.595  0.2771 -0.1629 -0.8952
 8181TIP3    H245959   0.650   0.543   0.528 -0.6122  0.2043 -2.4744
 8182TIP3   OH245960   1.557   1.216   1.057 -0.1342  0.0844  0.3880
 8182TIP3    H145961   1.564   1.153   0.984  2.0514 -0.0596  0.6668
 8182TIP3    H245962   1.586   1.299   1.019 -2.1884  0.7965  0.2588
 8183TIP3   OH245963   3.100   5.070   5.573  0.7510  0.1325  0.2420
 8183TIP3    H145964   3.082   5.162   5.551 -0.7625  0.0022  0.7994
 8183TIP3    H245965   3.039   5.020   5.520  0.2171 -0.4258  1.3435
 8184TIP3   OH245966   0.622   2.138   0.224  0.5864 -0.0202 -0.3479
 8184TIP3    H145967   0.564   2.083   0.171  0.0186  2.0053 -1.9870
 8184TIP3    H245968   0.566   2.171   0.294  0.5745 -0.4852 -0.1386
 8185TIP3   OH245969   3.473   5.587  14.404 -0.4594  0.3356  0.2460
 8185TIP3    H145970   3.424   5.563  14.483 -3.9328 -0.6558 -1.9486
 8185TIP3    H245971   3.472   5.683  14.404 -3.3711  0.3972 -0.0914
 8186TIP3   OH245972   6.519   0.629  15.098 -0.2434 -0.3259 -0.0971
 8186TIP3    H145973   6.494   0.625  15.190 -0.5973 -0.6415 -0.2037
 8186TIP3    H245974   6.582   0.702  15.093  0.7413 -1.0949  0.6168
 8187TIP3   OH245975   0.776   1.033  12.733 -0.6014 -0.0988  0.2849
 8187TIP3    H145976   0.687   1.007  12.757 -1.1362  0.2570 -1.2088
 8187TIP3    H245977   0.765   1.097  12.663  0.7681  2.1815  2.0359
 8188TIP3   OH245978   3.158   3.090   1.399  0.3767 -0.2939 -0.1002
 8188TIP3    H145979   3.236   3.094   1.345  0.3033 -1.6579 -0.3222
 8188TIP3    H245980   3.102   3.024   1.358  0.2952 -1.3246  1.5822
 8189TIP3   OH245981   3.125   6.403  12.434  0.0539  0.3576  0.1001
 8189TIP3    H145982   3.147   6.496  12.435 -2.1882  0.9670 -0.3507
 8189TIP3    H245983   3.090   6.385  12.521 -0.6203  0.2665 -0.1767
 8190TIP3   OH245984   6.201   2.990   5.694 -0.4209  0.1769  0.1577
 8190TIP3    H145985   6.173   3.026   5.610 -1.4698 -3.1207 -1.0992
 8190TIP3    H245986   6.226   3.066   5.747 -0.5337  2.4444 -2.8135
 8191TIP3   OH245987   1.280   4.633   6.592 -0.4722 -0.0484  0.5761
 8191TIP3    H145988   1.235   4.550   6.582 -0.6923  0.0709  0.5600
 8191TIP3    H245989   1.210   4.698   6.600 -0.3031  0.1114  0.7893
 8192TIP3   OH245990   2.930   3.198   4.346 -0.7185 -0.1070  0.2715
 8192TIP3    H145991   3.013   3.214   4.301 -0.4853 -2.3893 -0.2266
 8192TIP3    H245992   2.950   3.211   4.439  0.4641 -1.4493  0.2375
 8193TIP3   OH245993   1.307   3.340   3.897 -0.2401 -0.0921 -0.0284
 8193TIP3    H145994   1.396   3.358   3.930  0.4013 -4.3701  1.1242
 8193TIP3    H245995   1.312   3.360   3.804  1.7781  0.2939  0.1133
 8194TIP3   OH245996   2.146   2.906  15.244  0.2771 -0.0722 -0.1752
 8194TIP3    H145997   2.197   2.825  15.233 -0.7653 -0.7474 -0.2109
 8194TIP3    H245998   2.084   2.886  15.314 -1.3800 -0.0367 -1.5709
 8195TIP3   OH245999   1.309   3.444   1.062  0.0956  0.1028 -0.0281
 8195TIP3    H146000   1.312   3.364   1.010  0.0431 -1.2756  1.9706
 8195TIP3    H246001   1.396   3.482   1.052  1.2323 -1.9140  1.4322
 8196TIP3   OH246002   1.094   1.665  14.471  0.0422  0.1542  0.5539
 8196TIP3    H146003   1.001   1.681  14.489 -0.9182 -1.9482 -1.9374
 8196TIP3    H246004   1.105   1.571  14.479  1.4721  0.1238 -1.1406
 8197TIP3   OH246005   6.529   6.488  14.481  0.1835  0.1491  0.0952
 8197TIP3    H146006   6.513   6.408  14.429  3.3325 -0.0113 -0.8723
 8197TIP3    H246007   6.566   6.456  14.563  1.9855  0.5568 -0.5163
 8198TIP3   OH246008   2.765   0.514   1.209 -0.6965  0.9997 -0.8435
 8198TIP3    H146009   2.719   0.526   1.292 -0.7846  3.5554 -1.1727
 8198TIP3    H246010   2.820   0.592   1.202  0.4071  0.1223 -2.5332
 8199TIP3   OH246011   2.863   4.815  14.422  0.0791 -0.5295  0.0338
 8199TIP3    H146012   2.834   4.724  14.412 -0.7414 -0.3052  0.2844
 8199TIP3    H246013   2.809   4.850  14.493 -1.2896  0.8186 -1.5590
 8200TIP3   OH246014   3.978   2.110   0.792  0.4690  0.1898  0.2895
 8200TIP3    H146015   3.992   2.112   0.697  0.5923  0.5546  0.3114
 8200TIP3    H246016   4.057   2.151   0.828  0.1486  0.6185  0.5144
 8201TIP3   OH246017   4.408   1.838  16.998  0.0190  0.4209 -0.0601
 8201TIP3    H146018   4.428   1.866  17.087 -0.3736 -0.3325  0.2717
 8201TIP3    H246019   4.333   1.779  17.007 -1.3343  1.8987 -1.1053
 8202TIP3   OH246020   2.175   1.292  13.783  0.3558  0.4726  0.6837
 8202TIP3    H146021   2.178   1.201  13.752 -1.7219  0.8478 -0.8256
 8202TIP3    H246022   2.159   1.285  13.877 -1.9591 -0.7799  0.2649
 8203TIP3   OH246023   1.814   0.638   4.004  0.6558  0.4534 -0.0841
 8203TIP3    H146024   1.744   0.580   3.974  0.0561  0.7735  0.6996
 8203TIP3    H246025   1.787   0.725   3.977  1.2306  0.4637 -0.6497
 8204TIP3   OH246026   5.832   3.409   4.838 -0.1668  0.0287 -0.5061
 8204TIP3    H146027   5.879   3.465   4.900 -1.1564 -0.6792  0.9281
 8204TIP3    H246028   5.878   3.325   4.843 -0.3477 -0.0753 -0.6028
 8205TIP3   OH246029   1.723   2.988   4.480 -0.2535  0.4667 -0.5216
 8205TIP3    H146030   1.687   3.074   4.456 -0.2183  0.0594 -2.1894
 8205TIP3    H246031   1.818   3.000   4.475 -0.2500  0.3089 -0.9098
 8206TIP3   OH246032   4.679   4.902   0.819  0.3969  0.0554 -1.0584
 8206TIP3    H146033   4.615   4.963   0.855  0.0520 -0.8072 -0.1832
 8206TIP3    H246034   4.763   4.932   0.852 -0.0458 -1.7248  2.0875
 8207TIP3   OH246035   4.641   2.970   5.189 -0.3724  0.3071 -0.4569
 8207TIP3    H146036   4.714   2.914   5.215  1.7124  2.7527 -0.6468
 8207TIP3    H246037   4.593   2.986   5.270  0.1886 -0.1196 -0.0288
 8208TIP3   OH246038   4.508   0.267  14.288 -0.0487  0.6974  0.0954
 8208TIP3    H146039   4.553   0.315  14.358  0.2957 -0.6519  0.8477
 8208TIP3    H246040   4.417   0.295  14.294 -0.2962 -0.3466  1.9859
 8209TIP3   OH246041   0.918   5.821  11.772 -0.4382 -0.1784 -0.0097
 8209TIP3    H146042   0.928   5.906  11.815  0.5905 -0.8155  1.0694
 8209TIP3    H246043   0.858   5.772  11.829  0.1437 -0.6824  0.1787
 8210TIP3   OH246044   1.654   3.743   4.757  0.5391 -0.5292 -0.6444
 8210TIP3    H146045   1.674   3.834   4.734  0.3774 -0.3329 -0.0294
 8210TIP3    H246046   1.590   3.715   4.692  1.1672 -0.4623 -1.3099
 8211TIP3   OH246047   1.257   0.678   3.034  0.3377 -0.3791  0.3941
 8211TIP3    H146048   1.250   0.752   3.093  0.7608  1.2099 -1.4348
 8211TIP3    H246049   1.347   0.680   3.003  0.2281 -1.3843 -0.0400
 8212TIP3   OH246050   1.247   3.054   5.025  0.3142 -0.2932  0.7068
 8212TIP3    H146051   1.191   2.998   5.079 -1.3943 -0.0910 -0.7530
 8212TIP3    H246052   1.230   3.026   4.936  1.3538  0.8751  0.1048
 8213TIP3   OH246053   3.895   0.394  15.391  0.5681  0.1677 -0.0168
 8213TIP3    H146054   3.814   0.446  15.393  0.4773  0.0269  1.2290
 8213TIP3    H246055   3.964   0.457  15.372  0.1880  0.3147 -0.9588
 8214TIP3   OH246056   1.519   1.754   5.800 -0.1120 -0.6309 -0.1786
 8214TIP3    H146057   1.433   1.722   5.829 -0.2745 -1.6280 -1.6664
 8214TIP3    H246058   1.499   1.809   5.723  0.6316 -1.6784 -1.1514
 8215TIP3   OH246059   2.662   3.157   0.975  0.1947  0.1486 -0.4003
 8215TIP3    H146060   2.572   3.190   0.984 -0.3592 -1.2127 -0.7245
 8215TIP3    H246061   2.707   3.192   1.052 -1.2003 -0.9240  0.9864
 8216TIP3   OH246062   0.616   1.587  16.835 -0.2945  0.0590 -0.3423
 8216TIP3    H146063   0.703   1.583  16.875 -0.0984  2.5193 -0.3299
 8216TIP3    H246064   0.601   1.499  16.801  2.7245 -0.1906 -1.3732
 8217TIP3   OH246065   2.893   0.046   5.114  0.5943 -0.4157 -0.2341
 8217TIP3    H146066   2.901   0.020   5.205 -0.3409 -2.6523 -0.7391
 8217TIP3    H246067   2.814   0.099   5.110 -0.1224 -1.4486  0.0431
 8218TIP3   OH246068   3.068   3.869  16.132  0.6347 -0.2432 -0.0517
 8218TIP3    H146069   3.079   3.946  16.076 -1.1174  0.7618  0.9058
 8218TIP3    H246070   3.113   3.891  16.214 -0.4256  0.0561  0.4629
 8219TIP3   OH246071   4.628   6.170   5.568 -0.4092 -0.0317  0.0853
 8219TIP3    H146072   4.671   6.088   5.544 -0.1814 -0.2353  1.1523
 8219TIP3    H246073   4.648   6.230   5.495  2.0125 -0.0023  0.7064
 8220TIP3   OH246074   2.463   2.386  17.114  0.2325 -0.1468 -0.2882
 8220TIP3    H146075   2.401   2.316  17.135  0.8956 -0.6109  0.1632
 8220TIP3    H246076   2.549   2.344  17.119  0.6129  0.6021 -0.4281
 8221TIP3   OH246077   0.263   0.975  14.264 -0.3363 -0.2861  0.1243
 8221TIP3    H146078   0.258   0.984  14.168  1.1580 -0.9062 -0.0366
 8221TIP3    H246079   0.306   0.891  14.278  1.5731  0.8399  1.2993
 8222TIP3   OH246080   3.956   1.362  17.109  0.1631 -0.5367  0.4316
 8222TIP3    H146081   3.985   1.441  17.063 -0.6915  0.8136  2.1127
 8222TIP3    H246082   3.861   1.370  17.113  0.1354 -1.1988  1.3935
 8223TIP3   OH246083   4.073   6.171  13.643  0.4571  0.1509 -0.3385
 8223TIP3    H146084   4.157   6.151  13.601  0.4231  1.5357 -1.1324
 8223TIP3    H246085   4.086   6.257  13.682 -0.2966 -0.0559  0.3932
 8224TIP3   OH246086   3.649   0.685  12.520  0.3097 -0.4638 -0.3524
 8224TIP3    H146087   3.588   0.629  12.471 -0.3913  0.6574 -0.7886
 8224TIP3    H246088   3.731   0.636  12.520 -0.1353 -1.2377 -1.2235
 8225TIP3   OH246089   5.160   0.462   5.842 -0.9324 -0.0364 -0.2170
 8225TIP3    H146090   5.154   0.372   5.871  0.2830  0.3065  1.2249
 8225TIP3    H246091   5.221   0.503   5.903 -2.2710  2.0340 -0.1774
 8226TIP3   OH246092   5.582   0.388   2.269 -0.3453  0.3670 -0.4272
 8226TIP3    H146093   5.597   0.294   2.260 -0.6730  0.1925  0.6067
 8226TIP3    H246094   5.496   0.394   2.311  0.0350  1.0868  0.2842
 8227TIP3   OH246095   2.765   2.562  11.365  0.3261  0.0852 -0.2751
 8227TIP3    H146096   2.669   2.559  11.372  0.3731 -1.5980 -0.0434
 8227TIP3    H246097   2.787   2.651  11.392 -0.9659 -0.3916  2.8468
 8228TIP3   OH246098   2.045   4.329  10.960 -0.3667 -0.2008 -0.2493
 8228TIP3    H146099   2.105   4.318  11.033 -1.5393 -0.1070  0.7525
 8228TIP3    H246100   2.069   4.413  10.921 -0.7154  0.4670  0.9604
 8229TIP3   OH246101   5.028   1.840  14.666  0.2586 -0.9417 -0.2303
 8229TIP3    H146102   5.121   1.844  14.642  0.1894 -2.5787 -0.9144
 8229TIP3    H246103   5.026   1.866  14.758  0.9505  2.3175 -1.0208
 8230TIP3   OH246104   5.074   1.103  14.763 -0.1846 -0.0671  0.2641
 8230TIP3    H146105   5.016   1.127  14.691  0.0602 -0.4005 -0.0487
 8230TIP3    H246106   5.137   1.042  14.724  0.5501  0.5012  0.5220
 8231TIP3   OH246107   2.196   0.596   0.584 -0.6206 -0.7309  0.2591
 8231TIP3    H146108   2.187   0.553   0.498 -1.2737 -0.9825  0.4409
 8231TIP3    H246109   2.193   0.524   0.646 -1.3933 -0.4581  0.5525
 8232TIP3   OH246110   0.429   4.195   3.194  0.5509 -0.1803  0.1220
 8232TIP3    H146111   0.482   4.258   3.145 -1.4290  0.9534 -0.6444
 8232TIP3    H246112   0.464   4.200   3.283  1.8638  0.3762 -0.3916
 8233TIP3   OH246113   1.606   2.664   1.662  0.0370  0.4135 -0.0180
 8233TIP3    H146114   1.570   2.619   1.738  1.3132  2.0749  1.6498
 8233TIP3    H246115   1.692   2.625   1.648  0.8353  1.7557  0.9696
 8234TIP3   OH246116   1.194   3.071   1.025 -0.0491  0.0095 -0.6927
 8234TIP3    H146117   1.145   3.130   1.082  1.5250  1.3524 -0.6401
 8234TIP3    H246118   1.237   3.129   0.962 -0.7098 -1.3420 -2.4629
 8235TIP3   OH246119   2.986   0.461   1.584 -0.0274 -0.1276  0.0134
 8235TIP3    H146120   3.072   0.467   1.542 -1.0323 -1.8553 -2.5277
 8235TIP3    H246121   2.994   0.515   1.663  3.4359 -0.4218  0.0165
 8236TIP3   OH246122   2.497   3.140  17.104 -0.0253 -0.3011 -0.6853
 8236TIP3    H146123   2.452   3.057  17.085  0.1640 -0.4729 -0.3935
 8236TIP3    H246124   2.580   3.114  17.142 -0.5955  0.0189  0.8663
 8237TIP3   OH246125   6.176   2.762   3.638  0.2676  0.4234 -0.6610
 8237TIP3    H146126   6.086   2.794   3.636 -0.2256 -0.5873  1.8931
 8237TIP3    H246127   6.215   2.794   3.557 -1.6458  3.0156 -0.6648
 8238TIP3   OH246128   1.920   3.412  13.840  0.3527  0.3132 -0.0856
 8238TIP3    H146129   1.985   3.482  13.833  0.6932 -0.1264 -1.8929
 8238TIP3    H246130   1.889   3.417  13.930  1.6322  1.6564  0.3234
 8239TIP3   OH246131   2.429   6.727  11.951  0.2920 -0.0525  0.8591
 8239TIP3    H146132   2.436   6.795  11.884 -0.2475 -1.4100 -0.6431
 8239TIP3    H246133   2.520   6.704  11.972  0.4801 -0.2947 -0.1648
 8240TIP3   OH246134   5.190   0.398  10.563  0.1038  0.6872  0.0090
 8240TIP3    H146135   5.217   0.462  10.629 -1.1273 -0.7574  2.0385
 8240TIP3    H246136   5.095   0.411  10.554 -0.0719 -0.4532  0.0417
 8241TIP3   OH246137   0.140   4.056  16.282  0.5771  0.2050 -0.3999
 8241TIP3    H146138   0.069   4.089  16.227 -0.1507  0.6671  0.7778
 8241TIP3    H246139   0.104   3.978  16.324  0.5058  0.7903  0.6820
 8242TIP3   OH246140   2.024   1.705   0.236 -0.4453 -0.0956  0.0600
 8242TIP3    H146141   1.973   1.671   0.310  0.5098  0.2132  0.8803
 8242TIP3    H246142   2.067   1.783   0.270 -1.0304  0.8240 -1.2257
 8243TIP3   OH246143   6.027   0.729   4.422  0.3501 -0.4413 -0.4429
 8243TIP3    H146144   6.107   0.724   4.368 -0.4425 -0.4305 -1.6723
 8243TIP3    H246145   5.958   0.695   4.365 -0.6214  0.0754  0.3931
 8244TIP3   OH246146   5.977   4.666   2.546  0.3359  0.0418  0.1484
 8244TIP3    H146147   6.062   4.624   2.560 -0.0167 -0.6504  0.2717
 8244TIP3    H246148   5.936   4.613   2.478  0.0759  0.4872 -0.0443
 8245TIP3   OH246149   4.665   1.881   0.851 -0.1154  0.1835  0.0330
 8245TIP3    H146150   4.606   1.833   0.909  0.5941 -0.1480  0.5018
 8245TIP3    H246151   4.752   1.847   0.873  0.4476  1.8928  0.6342
 8246TIP3   OH246152   2.425   3.286   0.042  0.0483  0.2194 -0.1330
 8246TIP3    H146153   2.484   3.361   0.036  0.5807 -0.0822  1.0676
 8246TIP3    H246154   2.458   3.224  -0.023  0.2000  0.6284 -0.4456
 8247TIP3   OH246155   5.083   3.184   2.361 -0.7942  0.6199  0.4540
 8247TIP3    H146156   5.138   3.262   2.368  0.2802  0.0004 -0.6295
 8247TIP3    H246157   5.039   3.177   2.445  0.3368  1.4853  1.1366
 8248TIP3   OH246158   2.470   0.957   6.573  0.1998  0.6763  0.2000
 8248TIP3    H146159   2.425   0.923   6.651 -0.0516 -2.3658 -1.1229
 8248TIP3    H246160   2.409   0.938   6.501  0.9939  2.2044 -0.9259
 8249TIP3   OH246161   3.752   2.016   1.270 -0.0899  0.6154  0.0481
 8249TIP3    H146162   3.830   2.037   1.218  0.1392 -1.3886 -0.5055
 8249TIP3    H246163   3.690   2.086   1.251  1.3344  1.9157  0.0132
 8250TIP3   OH246164   5.599   2.212   2.634 -0.0557  0.1745  0.1373
 8250TIP3    H146165   5.565   2.162   2.560  1.2077 -2.5529  1.2803
 8250TIP3    H246166   5.690   2.229   2.612  0.3710 -0.7926  1.1128
 8251TIP3   OH246167   2.645   3.296   3.615  0.6760 -0.0881  0.4342
 8251TIP3    H146168   2.659   3.389   3.597  0.8631 -0.4347 -1.4642
 8251TIP3    H246169   2.577   3.270   3.553  0.5325 -1.1969  1.0348
 8252TIP3   OH246170   3.530   1.675  11.837 -0.3369  0.1451 -0.1710
 8252TIP3    H146171   3.476   1.754  11.840 -1.3290 -0.3415 -2.7401
 8252TIP3    H246172   3.469   1.603  11.852 -0.0496 -0.2800 -0.9637
 8253TIP3   OH246173   5.730   0.339  14.298  0.0982  0.0834  0.0191
 8253TIP3    H146174   5.738   0.249  14.331 -1.6628  0.3833  1.3850
 8253TIP3    H246175   5.707   0.329  14.206 -0.8545 -0.8981  0.3424
 8254TIP3   OH246176   4.390   4.846   3.679  0.1635  0.2365  0.4317
 8254TIP3    H146177   4.338   4.790   3.737 -1.2645  1.4663  0.3889
 8254TIP3    H246178   4.455   4.786   3.641  1.0821 -0.6459  3.1496
 8255TIP3   OH246179   0.469   4.503   4.430 -0.5015 -0.3118 -0.1846
 8255TIP3    H146180   0.529   4.464   4.366 -0.3967  1.0993 -0.9896
 8255TIP3    H246181   0.402   4.545   4.376 -0.6476  0.5479  0.6553
 8256TIP3   OH246182   3.754   5.057  14.355 -0.5424 -0.3502 -0.0962
 8256TIP3    H146183   3.745   4.993  14.426  2.1857 -0.4497  0.2517
 8256TIP3    H246184   3.767   5.003  14.277  1.6825 -0.2991  0.1851
 8257TIP3   OH246185   6.572   4.892   0.128 -0.3994  0.3676 -0.1970
 8257TIP3    H146186   6.545   4.878   0.219 -0.1144  0.5666 -0.0800
 8257TIP3    H246187   6.504   4.950   0.092  0.3514  1.6273  0.3680
 8258TIP3   OH246188   3.130   2.640  11.774  0.4433 -0.1129 -0.6565
 8258TIP3    H146189   3.223   2.649  11.757  0.7239 -2.5057 -0.8206
 8258TIP3    H246190   3.124   2.563  11.831 -1.4716 -0.3568 -1.1245
 8259TIP3   OH246191   2.716   3.138  17.252  0.0986 -0.4210 -0.1041
 8259TIP3    H146192   2.726   3.146  17.347  2.1695  0.1472 -0.3335
 8259TIP3    H246193   2.752   3.052  17.231 -0.1284 -0.4445 -0.4025
 8260TIP3   OH246194   0.066   5.990   0.530  0.4205 -0.0306 -0.1612
 8260TIP3    H146195   0.112   5.984   0.446  0.9277  0.5430  0.0660
 8260TIP3    H246196  -0.026   5.981   0.507  0.5950 -0.5989 -0.6951
 8261TIP3   OH246197   2.240   2.818   6.791  0.0369 -0.2785  0.4169
 8261TIP3    H146198   2.263   2.887   6.729 -1.2009  0.5653  0.8515
 8261TIP3    H246199   2.299   2.746   6.769  0.1996  0.2882 -1.1848
 8262TIP3   OH246200   6.179   2.864  16.157 -0.0212 -1.0175 -0.0167
 8262TIP3    H146201   6.148   2.935  16.213  0.2121  0.6502 -1.9014
 8262TIP3    H246202   6.106   2.845  16.099 -0.0061 -2.2150  0.3222
 8263TIP3   OH246203   5.132   5.380   4.634  0.4913 -0.9946 -0.0439
 8263TIP3    H146204   5.147   5.420   4.548 -0.2448 -0.0611  0.2522
 8263TIP3    H246205   5.053   5.328   4.622  1.1311 -1.9412 -0.2745
 8264TIP3   OH246206   3.522   6.318   2.304 -0.1055  0.4808 -0.2827
 8264TIP3    H146207   3.531   6.228   2.334 -1.7494  0.1086 -0.8299
 8264TIP3    H246208   3.612   6.347   2.288  0.7424 -0.0047  2.8351
 8265TIP3   OH246209   6.522   3.717  12.075 -0.0023  0.1281 -0.0213
 8265TIP3    H146210   6.536   3.654  12.146 -0.1029  1.8052  1.5723
 8265TIP3    H246211   6.427   3.724  12.067 -0.0248  1.0408  0.7757
 8266TIP3   OH246212   3.971   4.156  14.214 -0.6178  0.9297 -0.1833
 8266TIP3    H146213   4.014   4.239  14.196  0.9231  0.2594  0.1988
 8266TIP3    H246214   3.956   4.156  14.309 -0.0143  0.5146 -0.0817
 8267TIP3   OH246215   3.675   6.715   4.188 -0.2293  0.2576  0.0067
 8267TIP3    H146216   3.746   6.769   4.153 -0.2805  1.0391  1.0526
 8267TIP3    H246217   3.716   6.630   4.206 -0.3327 -0.3626 -2.4057
 8268TIP3   OH246218   3.176   3.004  14.724  0.2127 -0.1565 -0.7236
 8268TIP3    H146219   3.123   3.042  14.654  0.4188 -0.3793 -1.0013
 8268TIP3    H246220   3.127   3.024  14.804 -0.0991 -0.0272 -0.9427
 8269TIP3   OH246221   3.838   6.025  15.322 -0.3343  0.2672 -0.3272
 8269TIP3    H146222   3.819   6.041  15.230 -0.1054 -0.4682 -0.5070
 8269TIP3    H246223   3.783   5.951  15.345  0.8148 -0.6154 -0.3258
 8270TIP3   OH246224   1.364   5.012  15.768 -0.1234  0.6846  0.6339
 8270TIP3    H146225   1.427   5.063  15.717 -0.2643 -0.8338 -1.1682
 8270TIP3    H246226   1.280   5.055  15.753 -0.4511 -0.6713 -1.8936
 8271TIP3   OH246227   1.827   0.073  11.802  0.5497 -0.3303  0.2524
 8271TIP3    H146228   1.838   0.167  11.793  1.0484 -0.4549 -0.4543
 8271TIP3    H246229   1.915   0.039  11.815  0.6028 -0.8811 -1.3033
 8272TIP3   OH246230   4.019   4.827   4.952 -0.0194  0.4975  0.0423
 8272TIP3    H146231   4.033   4.872   5.035  1.5510  0.8560 -0.3761
 8272TIP3    H246232   4.029   4.895   4.886  0.2492 -0.0601 -0.5071
 8273TIP3   OH246233   5.453   2.161   1.103 -0.6557  0.0213  0.4410
 8273TIP3    H146234   5.362   2.160   1.134 -1.0421  0.3219 -0.6652
 8273TIP3    H246235   5.463   2.248   1.063 -0.1294 -0.3216 -0.1670
 8274TIP3   OH246236   4.864   5.295   4.725 -0.0301  0.4958  0.0760
 8274TIP3    H146237   4.824   5.309   4.811 -1.9817 -0.1182 -0.6746
 8274TIP3    H246238   4.953   5.267   4.745 -1.0095 -1.6257  2.0176
 8275TIP3   OH246239   6.502   5.958  14.962  0.0983  0.4198 -0.4408
 8275TIP3    H146240   6.478   5.974  15.054 -0.8010 -0.6567 -0.4664
 8275TIP3    H246241   6.551   6.036  14.936  1.9679 -0.0207  1.4859
 8276TIP3   OH246242   3.653   1.717   5.813  0.2510  0.4134  0.3069
 8276TIP3    H146243   3.591   1.770   5.763  0.9226  1.0373  0.1253
 8276TIP3    H246244   3.681   1.650   5.751 -0.4430 -0.0464  0.4750
 8277TIP3   OH246245   3.576   1.939   2.274  0.3449  0.1043  0.5114
 8277TIP3    H146246   3.498   1.884   2.270 -0.1467  0.7532  1.0611
 8277TIP3    H246247   3.600   1.954   2.182  1.0181 -1.7422  0.3367
 8278TIP3   OH246248   4.840   4.329   0.930  0.0393  0.4574  0.6894
 8278TIP3    H146249   4.832   4.336   1.025 -0.8561 -1.3269  0.7822
 8278TIP3    H246250   4.923   4.283   0.916  0.5710  1.4336  0.5534
 8279TIP3   OH246251   0.581   6.222  12.532  0.1273  0.3618  0.2242
 8279TIP3    H146252   0.609   6.170  12.457  1.0544 -0.7294  1.2812
 8279TIP3    H246253   0.611   6.172  12.608 -0.2321  1.7418  1.3078
 8280TIP3   OH246254   1.307   2.742  12.160  0.3489 -0.3323 -0.4120
 8280TIP3    H146255   1.232   2.788  12.124 -1.5479 -0.7012  2.6426
 8280TIP3    H246256   1.379   2.805  12.157 -0.8030  0.9906 -0.9859
 8281TIP3   OH246257   6.148   1.122  13.230 -0.2372 -0.9864  0.2505
 8281TIP3    H146258   6.206   1.147  13.302 -0.9262 -2.6405  1.4670
 8281TIP3    H246259   6.151   1.196  13.169  1.8283 -0.3310  1.0634
 8282TIP3   OH246260   0.120   3.695   3.712 -0.4148 -0.1463 -0.8673
 8282TIP3    H146261   0.146   3.606   3.688  0.7488  0.3754 -1.6340
 8282TIP3    H246262   0.198   3.748   3.698 -0.4318  0.6632  1.6819
 8283TIP3   OH246263   4.649   5.270  14.872  0.4907 -0.1621 -0.4130
 8283TIP3    H146264   4.664   5.305  14.960 -1.3301  1.5479 -0.7029
 8283TIP3    H246265   4.651   5.175  14.883  1.1751  0.0120  1.2915
 8284TIP3   OH246266   0.015   0.128   3.693  0.3300 -0.4462  0.1383
 8284TIP3    H146267   0.087   0.069   3.673 -0.1613 -0.6650 -1.1029
 8284TIP3    H246268  -0.047   0.075   3.741  0.5582 -0.5289  0.3418
 8285TIP3   OH246269   0.269   2.835  15.423  0.1651 -0.4270  0.0426
 8285TIP3    H146270   0.200   2.796  15.369 -0.1353  0.9466 -0.6306
 8285TIP3    H246271   0.349   2.824  15.372  0.1008 -0.2771 -0.0925
 8286TIP3   OH246272   5.862   1.266   6.486  0.5877 -0.0102 -0.4462
 8286TIP3    H146273   5.802   1.212   6.435 -0.7587  0.9665  0.0473
 8286TIP3    H246274   5.820   1.352   6.489  1.4074  0.3778  0.9579
 8287TIP3   OH246275   5.534   5.024   1.789 -0.0642 -0.2961  0.4599
 8287TIP3    H146276   5.565   4.969   1.716 -0.2180 -1.4985  1.2765
 8287TIP3    H246277   5.578   4.989   1.866  0.7242  1.4780  0.8645
 8288TIP3   OH246278   5.982   3.698  11.530 -0.4160  0.5422  0.5604
 8288TIP3    H146279   5.908   3.701  11.470  0.8241  2.2396 -1.0008
 8288TIP3    H246280   6.014   3.608  11.526 -1.7268  0.0683  0.4505
 8289TIP3   OH246281   2.961   0.696   1.100 -0.4683 -0.5485 -0.0727
 8289TIP3    H146282   2.965   0.656   1.013  0.6487  0.0464 -0.3112
 8289TIP3    H246283   3.045   0.675   1.141 -0.1446  0.9110  0.0661
 8290TIP3   OH246284   4.601   2.203   0.296 -0.1364 -0.0441  0.1835
 8290TIP3    H146285   4.637   2.290   0.315 -1.9474  0.7270  0.3268
 8290TIP3    H246286   4.628   2.149   0.370  1.6038  0.1845 -0.2531
 8291TIP3   OH246287   4.892   0.074  16.411 -0.1851 -0.1913  0.3188
 8291TIP3    H146288   4.933  -0.012  16.400 -1.3982 -0.6841 -0.7152
 8291TIP3    H246289   4.870   0.078  16.504 -2.5706 -2.2508 -0.0334
 8292TIP3   OH246290   4.089   0.373  13.966  0.0113 -0.0122  0.4510
 8292TIP3    H146291   4.134   0.425  13.900 -3.0922  0.7716 -1.2837
 8292TIP3    H246292   4.096   0.424  14.047 -0.8182  1.9454 -0.6367
 8293TIP3   OH246293   5.446   1.029   6.490 -0.3691 -0.3474  0.5862
 8293TIP3    H146294   5.458   1.091   6.418 -0.0458 -0.4521  0.5474
 8293TIP3    H246295   5.518   1.048   6.551  0.4546 -1.4792  0.0023
 8294TIP3   OH246296   5.534   6.477  15.957 -0.1136  0.0116 -0.1540
 8294TIP3    H146297   5.496   6.556  15.995 -2.7035 -0.5630 -1.3470
 8294TIP3    H246298   5.552   6.500  15.866 -0.3863 -0.6226 -0.3706
 8295TIP3   OH246299   6.770   0.734  16.304  0.2379  0.3633  0.0184
 8295TIP3    H146300   6.733   0.821  16.314 -0.7063 -0.2158  2.3133
 8295TIP3    H246301   6.798   0.710  16.392 -1.5667 -2.4804 -0.0501
 8296TIP3   OH246302   1.623   5.367   4.223  0.2023  0.3581 -0.2990
 8296TIP3    H146303   1.665   5.335   4.143 -0.6218 -0.6943 -0.3357
 8296TIP3    H246304   1.534   5.389   4.196  0.8561  3.3123 -0.3901
 8297TIP3   OH246305   3.429   0.490   5.325  0.5627 -0.0327 -0.2235
 8297TIP3    H146306   3.510   0.439   5.313  0.8252  0.4554 -0.5660
 8297TIP3    H246307   3.359   0.427   5.313  0.8598 -1.1975  3.1132
 8298TIP3   OH246308   3.046   2.467  12.910 -0.0613 -0.6151  0.0348
 8298TIP3    H146309   2.958   2.432  12.925 -0.5797  0.4585 -0.4178
 8298TIP3    H246310   3.062   2.525  12.984 -0.8581  1.2891 -1.2150
 8299TIP3   OH246311   4.265   5.069  16.181  0.4867  0.0272 -0.0473
 8299TIP3    H146312   4.317   5.019  16.244 -0.3609 -1.1371 -0.2211
 8299TIP3    H246313   4.305   5.050  16.097  1.4036  1.2994  0.0875
 8300TIP3   OH246314   3.717   2.518   1.113 -0.3845  0.1405 -0.0277
 8300TIP3    H146315   3.732   2.581   1.184 -1.6353  0.0951  0.2989
 8300TIP3    H246316   3.714   2.571   1.034 -1.3707  0.4952  0.2382
 8301TIP3   OH246317   6.678   0.928   1.410  0.8176  0.0522 -0.1088
 8301TIP3    H146318   6.749   0.977   1.451 -0.2853  0.1630  1.7823
 8301TIP3    H246319   6.600   0.981   1.425 -0.1229 -1.4106  0.4298
 8302TIP3   OH246320   0.776   0.519  11.608  0.0633 -0.6937 -0.3280
 8302TIP3    H146321   0.686   0.485  11.612  0.0140 -0.7454 -1.5291
 8302TIP3    H246322   0.772   0.589  11.543  0.9122 -0.7637 -0.4644
 8303TIP3   OH246323   2.306   3.239  14.346 -0.0864 -0.2379  0.3605
 8303TIP3    H146324   2.382   3.198  14.386 -1.1461  0.9282  3.8803
 8303TIP3    H246325   2.246   3.166  14.329  0.2250 -0.7584  1.3930
 8304TIP3   OH246326   1.853   6.552   2.329 -0.3134  0.4256 -0.1852
 8304TIP3    H146327   1.806   6.606   2.392 -1.8580 -0.5702 -0.4374
 8304TIP3    H246328   1.944   6.583   2.334 -0.9105  2.1518  0.5777
 8305TIP3   OH246329   6.644   0.569   1.785  0.4313  0.2861  0.8077
 8305TIP3    H146330   6.647   0.589   1.691 -1.8693  0.8932  0.7895
 8305TIP3    H246331   6.692   0.487   1.794 -0.9635 -0.8495 -1.2476
 8306TIP3   OH246332   6.182   4.436  14.053  0.4449 -0.2561  0.1687
 8306TIP3    H146333   6.268   4.393  14.052  0.6493  0.1473 -0.3362
 8306TIP3    H246334   6.148   4.422  13.965 -0.1669 -0.7129  0.4728
 8307TIP3   OH246335   4.659   6.276  16.185  0.4028  0.5078 -0.7389
 8307TIP3    H146336   4.741   6.234  16.211 -0.1254  1.4983  3.1966
 8307TIP3    H246337   4.591   6.218  16.219 -0.3832  2.1257  0.5742
 8308TIP3   OH246338   4.772   0.583  12.195  0.1723  0.0886 -0.1417
 8308TIP3    H146339   4.796   0.514  12.256  1.2066 -0.4238 -1.0892
 8308TIP3    H246340   4.713   0.541  12.132 -0.6960  0.5519  0.3424
 8309TIP3   OH246341   1.381   1.755   5.076  0.4051  0.0507  0.1215
 8309TIP3    H146342   1.296   1.772   5.117  0.4842  1.9903 -0.3960
 8309TIP3    H246343   1.391   1.660   5.078 -0.7862 -0.0802  2.1480
 8310TIP3   OH246344   3.612   1.541   5.206  0.0730 -0.2964  0.0301
 8310TIP3    H146345   3.634   1.564   5.296  1.5768  0.1512 -0.4194
 8310TIP3    H246346   3.521   1.570   5.195  0.0984  0.2665  1.1829
 8311TIP3   OH246347   0.641   4.403   3.193  0.5433 -0.1893 -0.2758
 8311TIP3    H146348   0.653   4.363   3.107  1.4907  0.3288 -0.3993
 8311TIP3    H246349   0.730   4.423   3.223  0.2130 -0.1744  0.7366
 8312TIP3   OH246350   6.031   1.009  11.196 -0.1530 -0.5247  0.3725
 8312TIP3    H146351   6.074   1.016  11.111 -0.7432 -0.6779  0.0570
 8312TIP3    H246352   5.944   1.045  11.182  0.6538  2.2201  1.6124
 8313TIP3   OH246353   3.905   0.568   0.885 -0.3181 -0.1749 -0.3967
 8313TIP3    H146354   3.859   0.644   0.920 -1.4337 -1.5819  1.3780
 8313TIP3    H246355   3.978   0.553   0.946  0.0116 -0.3977 -0.8395
 8314TIP3   OH246356   2.518   5.991   1.094 -0.0459 -0.5922 -0.3182
 8314TIP3    H146357   2.533   5.951   1.180 -0.7280 -1.0701 -0.4140
 8314TIP3    H246358   2.602   5.981   1.048  0.3092 -0.3657  0.2769
 8315TIP3   OH246359   6.383   2.273   3.030  0.5952  0.1993  0.0143
 8315TIP3    H146360   6.290   2.284   3.011  0.3898 -0.9307  0.2537
 8315TIP3    H246361   6.424   2.353   2.998 -0.2785  0.1306 -1.3501
 8316TIP3   OH246362   3.348   3.519  11.173 -0.4651  0.6464 -0.0613
 8316TIP3    H146363   3.339   3.424  11.167 -2.1797  0.4432  3.3897
 8316TIP3    H246364   3.299   3.551  11.097  0.7545 -1.1475 -1.7191
 8317TIP3   OH246365   3.829   5.325   3.955 -0.1995 -0.0704 -0.0654
 8317TIP3    H146366   3.844   5.416   3.926 -2.0395  0.0424 -0.7987
 8317TIP3    H246367   3.839   5.329   4.050  0.1362  0.8128 -0.1218
 8318TIP3   OH246368   5.239   0.659   3.510 -0.0720 -0.0454 -0.1200
 8318TIP3    H146369   5.242   0.755   3.507 -3.3940  0.1476 -0.1808
 8318TIP3    H246370   5.288   0.637   3.590 -0.6936  1.8209  0.8452
 8319TIP3   OH246371   0.750   1.388   3.153 -0.3583 -0.7224 -0.1154
 8319TIP3    H146372   0.727   1.297   3.171 -0.5572 -0.3681  1.6763
 8319TIP3    H246373   0.689   1.439   3.208  0.4772  0.4412 -0.2314
 8320TIP3   OH246374   4.907   3.922   1.215  0.4376 -0.4827 -0.0303
 8320TIP3    H146375   4.814   3.928   1.194  0.5775  1.0869 -0.3219
 8320TIP3    H246376   4.919   3.833   1.248 -1.0936 -0.8103 -0.2993
 8321TIP3   OH246377   4.362   2.002   2.566  0.2745  0.2067  0.7250
 8321TIP3    H146378   4.439   1.959   2.529  0.6414  0.0531  1.6296
 8321TIP3    H246379   4.329   1.939   2.630 -0.8610  0.0945  0.0385
 8322TIP3   OH246380   0.127   1.691  11.551 -0.2258  0.7030  0.0990
 8322TIP3    H146381   0.077   1.730  11.622 -0.9729  1.3543 -0.7676
 8322TIP3    H246382   0.189   1.759  11.524 -1.2345  1.1820 -1.1193
 8323TIP3   OH246383   2.117   1.454  10.896 -0.1509 -0.3278  0.8328
 8323TIP3    H146384   2.142   1.470  10.805  1.3607  1.0816  1.4460
 8323TIP3    H246385   2.184   1.395  10.930 -0.1069 -0.0027  1.3132
 8324TIP3   OH246386   5.691   3.805  16.967  0.5513 -0.2562 -0.3408
 8324TIP3    H146387   5.764   3.823  16.907 -0.3690  2.7017 -0.7098
 8324TIP3    H246388   5.613   3.807  16.912 -0.2625  1.9734  0.7740
 8325TIP3   OH246389   5.707   2.407  11.115  0.2711  0.3033 -0.0499
 8325TIP3    H146390   5.728   2.314  11.127  1.6361  0.6959  0.7577
 8325TIP3    H246391   5.775   2.440  11.057 -0.7358  0.6254 -1.0863
 8326TIP3   OH246392   4.211   2.722  11.738  0.0493  0.4200 -0.3780
 8326TIP3    H146393   4.239   2.813  11.733  1.3677  0.0502 -0.1844
 8326TIP3    H246394   4.286   2.672  11.704  0.6978 -0.7921  2.5013
 8327TIP3   OH246395   0.371   6.569   3.688  0.2794  0.1307  0.7647
 8327TIP3    H146396   0.460   6.542   3.713  0.2018  1.3430  2.5085
 8327TIP3    H246397   0.313   6.519   3.745 -0.1555 -0.3586 -0.0897
 8328TIP3   OH246398   0.648   2.940  13.283 -0.6907 -0.4587  0.2574
 8328TIP3    H146399   0.732   2.927  13.240 -0.4109  0.9859  0.2991
 8328TIP3    H246400   0.595   2.865  13.257  0.6413 -1.4506  0.3317
 8329TIP3   OH246401   2.198   5.775  11.753 -0.0887 -0.3527  0.2088
 8329TIP3    H146402   2.275   5.777  11.697 -0.2915 -1.4881 -0.1520
 8329TIP3    H246403   2.230   5.740  11.836 -0.0603 -0.0668  0.3160
 8330TIP3   OH246404   4.307   3.414  12.143 -0.1180  0.1706 -0.1856
 8330TIP3    H146405   4.385   3.433  12.195 -0.0030 -0.7776  0.0098
 8330TIP3    H246406   4.334   3.431  12.053  0.4733 -0.6167 -0.1653
 8331TIP3   OH246407   1.248   2.503  17.211  0.3122 -0.3375  0.1668
 8331TIP3    H146408   1.200   2.585  17.219 -3.0103 -2.2020  1.6182
 8331TIP3    H246409   1.252   2.469  17.300 -0.7260 -2.8889 -0.6771
 8332TIP3   OH246410   2.465   0.917   1.435  0.3321  0.1892 -0.0289
 8332TIP3    H146411   2.399   0.957   1.377  0.6773  1.4022  0.3751
 8332TIP3    H246412   2.481   0.831   1.397 -0.5663  0.3611 -0.8590
 8333TIP3   OH246413   3.203   2.061   0.676  0.2019 -0.2477 -0.3623
 8333TIP3    H146414   3.120   2.076   0.631 -0.6733  1.1333  1.5603
 8333TIP3    H246415   3.263   2.124   0.637 -0.2933  0.3217 -0.2160
 8334TIP3   OH246416   5.469   0.001   2.688 -0.1254  0.7385 -0.5536
 8334TIP3    H146417   5.497   0.060   2.758  1.4854 -1.1037  0.4409
 8334TIP3    H246418   5.513   0.035   2.610  1.6201  0.3375  0.1987
 8335TIP3   OH246419   1.488   5.311   3.363 -0.9439 -0.0784  0.2358
 8335TIP3    H146420   1.456   5.223   3.342 -0.7363  0.0854 -0.7780
 8335TIP3    H246421   1.550   5.296   3.435  0.4569 -0.9920 -1.1129
 8336TIP3   OH246422   4.508   5.512  16.361 -0.4408  0.0019 -0.3079
 8336TIP3    H146423   4.455   5.433  16.369 -0.1907 -0.1015  0.3832
 8336TIP3    H246424   4.450   5.575  16.318 -1.0323 -0.2015  0.1820
 8337TIP3   OH246425   2.272   0.072   1.931  0.4650  0.0013  0.7037
 8337TIP3    H146426   2.201   0.135   1.943 -0.8912 -1.4992  0.9523
 8337TIP3    H246427   2.329   0.112   1.866 -1.4641  0.5735 -0.7147
 8338TIP3   OH246428   4.998   4.011   3.843  0.6636  0.0393 -0.0730
 8338TIP3    H146429   5.066   4.039   3.782  0.6654  0.0639 -0.0599
 8338TIP3    H246430   4.957   3.936   3.801  0.2349  0.4529 -0.4100
 8339TIP3   OH246431   2.818   3.731   5.434 -0.5034  0.1469  0.0923
 8339TIP3    H146432   2.827   3.826   5.439 -0.5446  0.2034 -0.7924
 8339TIP3    H246433   2.906   3.699   5.418 -0.4073 -0.0101  0.8932
 8340TIP3   OH246434   5.760   0.789   1.658  0.9702 -0.2390 -0.0202
 8340TIP3    H146435   5.776   0.730   1.584  1.6055 -0.5442  0.3422
 8340TIP3    H246436   5.771   0.733   1.736  1.5012  0.3273  0.3271
 8341TIP3   OH246437   0.307   1.521   6.219 -0.1919 -0.0977 -0.8000
 8341TIP3    H146438   0.320   1.614   6.199 -2.1131  0.3729 -0.1280
 8341TIP3    H246439   0.224   1.518   6.267  0.4451 -2.0367  0.3083
 8342TIP3   OH246440   0.456   6.230  15.409  0.0653 -0.4288 -0.1241
 8342TIP3    H146441   0.500   6.149  15.435 -0.3464 -0.5414  0.2344
 8342TIP3    H246442   0.500   6.298  15.461 -0.4541 -0.5953  0.5431
 8343TIP3   OH246443   1.015   0.661  15.802 -0.2755 -0.2371  0.9100
 8343TIP3    H146444   1.098   0.631  15.838  1.1693 -0.1717 -2.0949
 8343TIP3    H246445   1.013   0.626  15.713 -2.6941  1.1693  0.3129
 8344TIP3   OH246446   3.612   6.169   1.270 -0.3396  0.2397 -0.2818
 8344TIP3    H146447   3.588   6.137   1.183 -2.6481  1.2712 -0.1063
 8344TIP3    H246448   3.608   6.091   1.326  0.2979 -0.2697 -0.9269
 8345TIP3   OH246449   2.309   4.137   5.582  0.5994 -0.0511  0.5749
 8345TIP3    H146450   2.260   4.218   5.592 -0.3815 -0.6081  0.4156
 8345TIP3    H246451   2.342   4.140   5.492 -2.5373 -1.4367 -0.7646
 8346TIP3   OH246452   3.400   1.370   3.104 -0.4119  0.3130  0.2385
 8346TIP3    H146453   3.427   1.278   3.098  1.6248  0.9525 -2.2535
 8346TIP3    H246454   3.317   1.373   3.057  0.3101 -0.0347 -1.1155
 8347TIP3   OH246455   1.255   1.941  13.738  0.2516  0.0858 -0.6247
 8347TIP3    H146456   1.249   1.986  13.823  0.9054 -1.3801  0.2499
 8347TIP3    H246457   1.315   1.995  13.687  1.9244 -0.3171  0.8001
 8348TIP3   OH246458   1.565   0.078   3.016 -0.6816 -0.2487 -0.5028
 8348TIP3    H146459   1.549   0.119   3.101 -0.0062  0.4780 -0.7128
 8348TIP3    H246460   1.478   0.068   2.977 -0.8659  1.1865 -0.5216
 8349TIP3   OH246461   6.437   6.059   0.683  0.3601  0.3801 -0.0535
 8349TIP3    H146462   6.514   6.010   0.713  1.4719  1.5508 -0.8686
 8349TIP3    H246463   6.470   6.147   0.668 -1.1652  0.9049 -0.4501
 8350TIP3   OH246464   1.372   2.293  13.123 -0.0726 -0.3221 -0.1242
 8350TIP3    H146465   1.305   2.280  13.190 -0.1254  0.3599 -0.0380
 8350TIP3    H246466   1.424   2.367  13.155  2.2205 -2.2881  1.0007
 8351TIP3   OH246467   3.693   6.718  11.743 -0.2059 -0.9516  0.2341
 8351TIP3    H146468   3.617   6.772  11.721 -0.4978 -0.7603  1.6263
 8351TIP3    H246469   3.728   6.757  11.823  1.3758 -1.0393 -0.3612
 8352TIP3   OH246470   2.893   6.144   4.018 -0.0306  1.3516  0.1647
 8352TIP3    H146471   2.864   6.072   3.962  0.1192  0.2936  1.3949
 8352TIP3    H246472   2.897   6.220   3.960 -0.5671  0.4558 -1.0823
 8353TIP3   OH246473   0.003   6.480   3.379 -0.2145 -0.3551 -0.3862
 8353TIP3    H146474   0.092   6.502   3.409 -0.9715 -0.0139  1.8285
 8353TIP3    H246475   0.012   6.394   3.339  1.0562 -0.5273  0.1980
 8354TIP3   OH246476   4.936   2.196   3.503 -0.3957 -0.3417  0.2400
 8354TIP3    H146477   4.886   2.180   3.422 -0.4705 -1.6140  0.5179
 8354TIP3    H246478   4.964   2.109   3.531  0.7183  0.2159  0.9057
 8355TIP3   OH246479   2.329   4.674   0.212  0.0583  0.3834 -0.1472
 8355TIP3    H146480   2.330   4.585   0.245 -2.6548  0.2546 -0.1343
 8355TIP3    H246481   2.393   4.721   0.266 -0.0151 -1.0896  1.2960
 8356TIP3   OH246482   3.919   4.339  11.605 -1.0248  0.3028 -0.2127
 8356TIP3    H146483   3.854   4.404  11.631  0.2617  1.2004  0.8899
 8356TIP3    H246484   3.879   4.255  11.627 -1.2261  0.9081  1.9564
 8357TIP3   OH246485   1.546   5.602   3.205 -0.2408  0.1816 -0.1198
 8357TIP3    H146486   1.537   5.534   3.272 -1.3714  0.0830 -0.3457
 8357TIP3    H246487   1.530   5.557   3.123  1.1263  0.3102 -0.4714
 8358TIP3   OH246488   5.895   0.675   1.037  0.1304  0.2591  0.6036
 8358TIP3    H146489   5.830   0.733   1.077 -1.1202 -0.4473 -0.3223
 8358TIP3    H246490   5.856   0.588   1.042  2.0558 -0.5858  2.1497
 8359TIP3   OH246491   4.567   2.312   4.710 -0.2562 -0.0308 -0.3254
 8359TIP3    H146492   4.480   2.328   4.748 -0.0398  1.5278 -0.4317
 8359TIP3    H246493   4.616   2.392   4.728  0.3639  0.1406 -2.4995
 8360TIP3   OH246494   0.364   5.796  11.929  0.2197 -0.1859 -0.0672
 8360TIP3    H146495   0.433   5.828  11.872  0.0403  0.3355  0.0062
 8360TIP3    H246496   0.408   5.735  11.988  1.0599  1.7363  1.3848
 8361TIP3   OH246497   0.201   0.223  13.019 -0.5630  0.0427  0.0995
 8361TIP3    H146498   0.208   0.298  13.078  0.5075  2.4808 -2.9168
 8361TIP3    H246499   0.117   0.235  12.975 -1.0944 -1.4452  0.6262
 8362TIP3   OH246500   4.094   5.801  14.529 -0.0237 -0.3978  0.1231
 8362TIP3    H146501   4.036   5.805  14.605  0.6005 -2.2956  0.7527
 8362TIP3    H246502   4.167   5.859  14.552 -0.8776  0.7620 -0.0046
 8363TIP3   OH246503   2.584   1.664  12.691 -0.1407 -0.1345  0.1401
 8363TIP3    H146504   2.610   1.755  12.677 -2.4583  0.3336 -1.8522
 8363TIP3    H246505   2.650   1.612  12.645  1.3783  0.4361  1.5553
 8364TIP3   OH246506   5.354   4.424  14.194 -0.1163  0.5086  0.1594
 8364TIP3    H146507   5.274   4.477  14.193 -0.9332 -0.6805 -0.4531
 8364TIP3    H246508   5.366   4.400  14.286  0.4157  1.9352  0.4838
 8365TIP3   OH246509   5.502   5.224   3.779 -0.3142  0.0992 -0.2652
 8365TIP3    H146510   5.491   5.297   3.840 -0.8967  0.0183 -0.2762
 8365TIP3    H246511   5.593   5.196   3.793  0.0719  1.1254 -0.5993
 8366TIP3   OH246512   0.569   5.448   1.752 -0.9209  0.0231  0.0849
 8366TIP3    H146513   0.493   5.502   1.728 -1.5591 -0.9257 -0.1079
 8366TIP3    H246514   0.538   5.395   1.826  0.1276  0.8835  1.1721
 8367TIP3   OH246515   6.166   5.382   1.984  0.1360  0.1497 -1.2025
 8367TIP3    H146516   6.110   5.394   2.061  0.0523 -0.2577 -1.1994
 8367TIP3    H246517   6.255   5.393   2.018  0.0793  0.3813 -1.1269
 8368TIP3   OH246518   5.230   4.304   0.336  0.0649  0.5446  0.1949
 8368TIP3    H146519   5.187   4.280   0.254  1.0028 -0.0631 -0.1392
 8368TIP3    H246520   5.177   4.375   0.372 -1.9638 -1.0217  0.4704
 8369TIP3   OH246521   5.975   5.104  13.436 -0.2136 -0.1566  0.3968
 8369TIP3    H146522   5.990   5.195  13.460 -0.5069 -0.0777  0.2773
 8369TIP3    H246523   6.046   5.084  13.374 -1.1649  0.5287 -0.9632
 8370TIP3   OH246524   0.128   4.613  11.185  0.2898  0.2304 -0.1707
 8370TIP3    H146525   0.133   4.688  11.244  1.4265 -0.4504  0.6295
 8370TIP3    H246526   0.055   4.634  11.126 -0.4179  1.2458  1.0127
 8371TIP3   OH246527   4.862   3.360  12.227 -0.2804  0.1668 -0.5433
 8371TIP3    H146528   4.772   3.329  12.219  0.2577 -1.5962 -0.2201
 8371TIP3    H246529   4.916   3.282  12.211  1.1735  1.0342 -0.0793
 8372TIP3   OH246530   6.619   3.144   5.521 -0.2641  0.0275 -0.0494
 8372TIP3    H146531   6.563   3.175   5.450  0.0423 -1.7007 -1.0921
 8372TIP3    H246532   6.702   3.190   5.507 -0.4539  0.2954 -0.3282
 8373TIP3   OH246533   6.549   4.737  12.194 -0.8073 -0.2302  0.0260
 8373TIP3    H146534   6.488   4.716  12.124 -1.6376 -0.5545  0.8199
 8373TIP3    H246535   6.630   4.761  12.149 -1.4106 -0.1206 -1.0376
 8374TIP3   OH246536   1.157   5.997   5.547 -0.3315  0.2227 -0.0479
 8374TIP3    H146537   1.199   5.911   5.549  0.6829  0.6977 -0.2616
 8374TIP3    H246538   1.154   6.020   5.454 -2.7610 -0.5723 -0.2530
 8375TIP3   OH246539   2.101   5.165  16.772 -0.6828  0.1791 -0.0356
 8375TIP3    H146540   2.041   5.152  16.846 -2.0154 -0.9399 -1.2728
 8375TIP3    H246541   2.059   5.233  16.719  0.6322  1.5161  0.5466
 8376TIP3   OH246542   4.202   4.469  14.436 -0.2076  0.0922 -0.6914
 8376TIP3    H146543   4.141   4.517  14.492  0.2742 -0.1335  0.0352
 8376TIP3    H246544   4.266   4.431  14.496  0.0870 -0.4950 -1.3590
 8377TIP3   OH246545   0.706   6.104  13.470  0.5500 -0.4378 -0.0402
 8377TIP3    H146546   0.775   6.164  13.498  1.2406 -0.0850 -2.3006
 8377TIP3    H246547   0.699   6.040  13.542  2.1694  0.3766  0.8935
 8378TIP3   OH246548   2.825   5.439   1.023  0.5052  0.2648  0.2374
 8378TIP3    H146549   2.736   5.451   1.055  0.3287  0.4528 -0.2996
 8378TIP3    H246550   2.866   5.380   1.085 -0.7707 -1.8715 -0.8365
 8379TIP3   OH246551   5.849   1.984   0.948 -0.4493 -0.3448 -0.4965
 8379TIP3    H146552   5.862   1.920   0.878 -0.1891  0.5815 -1.3255
 8379TIP3    H246553   5.888   2.065   0.914  1.2071 -0.2642  1.3803
 8380TIP3   OH246554   4.889   6.628  12.318 -0.2097  0.2996 -0.3828
 8380TIP3    H146555   4.870   6.602  12.228 -0.9063  0.4394 -0.2811
 8380TIP3    H246556   4.985   6.625  12.324 -0.1889 -0.3392 -0.9319
 8381TIP3   OH246557   1.748   5.095  16.694 -0.3958 -0.5016  0.4377
 8381TIP3    H146558   1.746   5.052  16.780 -0.0930 -1.0173  0.1923
 8381TIP3    H246559   1.708   5.181  16.709  1.9950  0.4787  1.6933
 8382TIP3   OH246560   3.463   3.807  10.584 -0.3163  0.9384  0.1939
 8382TIP3    H146561   3.449   3.762  10.667 -2.8266 -0.9498 -1.1258
 8382TIP3    H246562   3.522   3.750  10.535 -0.3564  1.1006 -0.0420
 8383TIP3   OH246563   6.041   4.539  11.024  0.3226 -0.0704 -0.1136
 8383TIP3    H146564   6.114   4.491  10.987  0.9682  0.4120  0.5028
 8383TIP3    H246565   6.045   4.521  11.118  1.7001  2.5655  0.4281
 8384TIP3   OH246566   0.413   1.759  16.858 -0.2470  0.0312 -0.7068
 8384TIP3    H146567   0.382   1.741  16.770 -1.6337 -2.0836  0.1365
 8384TIP3    H246568   0.501   1.721  16.861 -0.3900 -0.3294 -1.0384
 8385TIP3   OH246569   5.680   2.503   1.162  0.3769 -0.6950 -0.2649
 8385TIP3    H146570   5.585   2.502   1.163  0.3081 -1.7838  2.8875
 8385TIP3    H246571   5.705   2.428   1.109 -0.4867 -0.3320 -1.2118
 8386TIP3   OH246572   2.252   3.949  15.681 -0.0644  0.0823 -0.1500
 8386TIP3    H146573   2.204   3.924  15.760  0.0905 -1.3735 -0.4886
 8386TIP3    H246574   2.285   4.037  15.700  0.8052 -0.5945  1.8273
 8387TIP3   OH246575   3.186   2.523  12.644 -0.3442  0.1107  0.1787
 8387TIP3    H146576   3.131   2.493  12.716  1.8554 -0.8321  1.5822
 8387TIP3    H246577   3.155   2.474  12.568 -1.7470  0.0098  0.7876
 8388TIP3   OH246578   2.006   0.412  11.538  0.0680 -0.5337  0.2690
 8388TIP3    H146579   1.912   0.422  11.525 -0.2156 -1.9586  1.0094
 8388TIP3    H246580   2.040   0.501  11.537 -1.0939 -0.0762 -1.3139
 8389TIP3   OH246581   4.652   2.686   0.411  0.3103  0.3981 -0.5028
 8389TIP3    H146582   4.604   2.603   0.403 -1.4243  1.4908 -2.3183
 8389TIP3    H246583   4.647   2.725   0.324  0.1790  2.8796  0.5367
 8390TIP3   OH246584   0.196   2.180  13.253  0.1609 -0.3450 -0.0811
 8390TIP3    H146585   0.200   2.119  13.179 -1.4739 -0.4695 -0.1103
 8390TIP3    H246586   0.279   2.228  13.250  0.2816 -0.6066 -1.7636
 8391TIP3   OH246587   4.972   1.419   3.712 -0.3375 -0.0033 -0.1439
 8391TIP3    H146588   5.053   1.380   3.744 -0.0728  0.5142 -0.1749
 8391TIP3    H246589   4.917   1.345   3.688 -0.2163 -0.3778  0.7200
 8392TIP3   OH246590   5.815   2.755  17.074  0.2093  0.1489 -0.1084
 8392TIP3    H146591   5.865   2.678  17.100  1.7390  0.6635 -1.3763
 8392TIP3    H246592   5.860   2.828  17.118 -0.0499  0.5152 -0.4491
 8393TIP3   OH246593   1.663   2.626   2.954 -0.1512  0.0739  0.2613
 8393TIP3    H146594   1.706   2.705   2.987  0.4908 -0.1432 -0.0328
 8393TIP3    H246595   1.576   2.628   2.993 -0.0126  0.7339  0.5534
 8394TIP3   OH246596   5.678   1.213  13.453  0.2157  0.2710  0.2062
 8394TIP3    H146597   5.643   1.162  13.380 -0.6544  0.8467  0.2055
 8394TIP3    H246598   5.754   1.257  13.416 -0.0214  0.2954 -0.2694
 8395TIP3   OH246599   0.314   6.734   1.946 -0.2168 -0.4724 -0.3750
 8395TIP3    H146600   0.240   6.688   1.908 -0.5220 -0.5439  0.2894
 8395TIP3    H246601   0.309   6.715   2.040  1.8709 -2.2363 -0.5464
 8396TIP3   OH246602   0.369   5.526   0.571 -0.0034 -0.3058  0.8586
 8396TIP3    H146603   0.340   5.610   0.606 -0.1342 -0.3453  0.8442
 8396TIP3    H246604   0.463   5.538   0.555 -0.4273  0.5881 -1.3052
 8397TIP3   OH246605   2.286   0.248   4.969 -0.7283  0.0256  0.4305
 8397TIP3    H146606   2.272   0.336   5.003  0.1020  0.4717 -0.3509
 8397TIP3    H246607   2.339   0.204   5.035 -1.7272 -0.1354  1.1533
 8398TIP3   OH246608   0.422   4.696  12.791 -0.1581  0.0098  0.1880
 8398TIP3    H146609   0.378   4.697  12.876  1.7070 -0.4953  1.2153
 8398TIP3    H246610   0.414   4.785  12.758 -0.2788  0.4050  1.2460
 8399TIP3   OH246611   3.381   3.940   5.260  0.4193  0.5758 -0.1285
 8399TIP3    H146612   3.408   3.852   5.287  2.4380  1.2552  0.2345
 8399TIP3    H246613   3.373   3.989   5.342 -2.6335  0.2869 -0.1617
 8400TIP3   OH246614   4.289   4.673   5.740  0.5459  0.4138  0.6954
 8400TIP3    H146615   4.362   4.723   5.775  0.7242  0.2565  0.5487
 8400TIP3    H246616   4.279   4.705   5.650  0.8345 -0.0074  0.5144
 8401TIP3   OH246617   4.751   4.656   4.958 -0.4425 -0.3797  0.5222
 8401TIP3    H146618   4.841   4.685   4.972 -1.2825  1.6642  2.0733
 8401TIP3    H246619   4.724   4.618   5.041 -0.9674 -1.2177 -0.0085
 8402TIP3   OH246620   5.736   2.725   5.198 -0.0510 -0.2473  0.2306
 8402TIP3    H146621   5.725   2.739   5.104 -1.5057 -0.1245  0.3918
 8402TIP3    H246622   5.675   2.787   5.238 -0.2451 -1.0608  1.2232
 8403TIP3   OH246623   1.465   5.595   1.264 -0.2312  0.0842 -0.1505
 8403TIP3    H146624   1.435   5.550   1.184  0.0051 -0.2485 -0.0569
 8403TIP3    H246625   1.553   5.627   1.241 -0.6234  1.0067 -0.4067
 8404TIP3   OH246626   1.437   6.302  12.458  0.8894  0.0945  0.6066
 8404TIP3    H146627   1.400   6.390  12.474  1.5371  0.4476  0.1776
 8404TIP3    H246628   1.531   6.312  12.472  1.2021 -0.1245 -1.0822
 8405TIP3   OH246629   2.397   0.588   0.964  0.6173 -0.1846  0.0321
 8405TIP3    H146630   2.420   0.508   1.011 -1.4802 -0.9019 -0.0312
 8405TIP3    H246631   2.330   0.630   1.018  2.5184  2.2370  0.6773
 8406TIP3   OH246632   1.742   0.345  11.293  0.2852 -0.1101 -0.3918
 8406TIP3    H146633   1.749   0.440  11.294  0.3586 -0.0372 -2.8877
 8406TIP3    H246634   1.817   0.315  11.242 -0.9557 -1.3346 -1.5823
 8407TIP3   OH246635   4.762   1.376   2.857  0.1526 -0.4361  0.4109
 8407TIP3    H146636   4.698   1.305   2.861 -0.0311 -0.3250 -0.3929
 8407TIP3    H246637   4.847   1.331   2.861  0.0649 -0.8291 -1.4308
 8408TIP3   OH246638   5.045   6.341   5.562 -0.2822  0.9261  0.9076
 8408TIP3    H146639   5.012   6.266   5.513 -0.1345  0.4288  1.5524
 8408TIP3    H246640   5.140   6.336   5.552 -0.3032  1.3688  0.4680
 8409TIP3   OH246641   6.468   2.525   2.952  0.2979  0.5767  0.0486
 8409TIP3    H146642   6.435   2.582   3.021 -0.4837  1.3254 -0.9196
 8409TIP3    H246643   6.427   2.558   2.872  2.3135  0.6614 -1.0108
 8410TIP3   OH246644   0.968   3.575  11.494 -0.0087  0.4286  0.0711
 8410TIP3    H146645   1.056   3.611  11.508 -0.0672  0.3561  0.6494
 8410TIP3    H246646   0.942   3.540  11.579 -1.0287  1.3827  0.1709
 8411TIP3   OH246647   3.149   3.829  11.162  0.2359 -0.0436 -0.1644
 8411TIP3    H146648   3.174   3.765  11.096  0.7006 -1.9111  1.7204
 8411TIP3    H246649   3.229   3.878  11.180  0.6039 -0.8153  0.3452
 8412TIP3   OH246650   6.468   4.689   5.921  0.6370 -0.1390 -0.3003
 8412TIP3    H146651   6.450   4.768   5.870  2.4266  1.2882  1.1434
 8412TIP3    H246652   6.455   4.715   6.012  0.5677 -1.7315  0.1728
 8413TIP3   OH246653   2.317   3.846   4.317 -0.0150  0.2296  0.4118
 8413TIP3    H146654   2.371   3.794   4.258 -1.8057 -0.2979 -0.8413
 8413TIP3    H246655   2.239   3.792   4.331 -0.9083  1.6070  0.9172
 8414TIP3   OH246656   4.083   2.171   1.981  0.6735 -0.2869 -0.1747
 8414TIP3    H146657   4.173   2.141   1.971  0.5715 -0.2140 -1.3995
 8414TIP3    H246658   4.071   2.237   1.913 -0.6995 -1.2096 -0.8792
 8415TIP3   OH246659   3.852   2.070   6.165  0.3188 -0.1660 -0.2107
 8415TIP3    H146660   3.758   2.056   6.182  0.6850  0.0284  2.3848
 8415TIP3    H246661   3.880   2.129   6.235  2.1762  0.7174 -1.6228
 8416TIP3   OH246662   4.670   0.996   1.225  0.0326 -0.8210 -0.4026
 8416TIP3    H146663   4.618   0.923   1.260  2.1950 -2.1689  0.2000
 8416TIP3    H246664   4.760   0.964   1.226  1.3605  2.4651  1.5389
 8417TIP3   OH246665   6.370   4.123   4.221 -0.0511  0.5083  0.4799
 8417TIP3    H146666   6.436   4.068   4.263  1.7478  2.4622  0.3870
 8417TIP3    H246667   6.288   4.074   4.229  0.8115 -0.6468  3.3914
 8418TIP3   OH246668   4.422   6.513   0.680 -0.5387 -0.1677  0.6622
 8418TIP3    H146669   4.400   6.423   0.658  0.1442 -0.2298  0.2167
 8418TIP3    H246670   4.429   6.557   0.595 -1.4124  0.4377  0.8950
 8419TIP3   OH246671   6.394   4.075  14.202 -0.0149  0.0552 -0.4995
 8419TIP3    H146672   6.396   3.980  14.186 -1.1347 -0.2588  0.9674
 8419TIP3    H246673   6.303   4.099  14.186 -0.1027  0.5634  0.6620
 8420TIP3   OH246674   3.665   2.199  13.312 -0.1780 -0.0054 -0.1791
 8420TIP3    H146675   3.581   2.173  13.276  0.7299 -1.7503 -1.1870
 8420TIP3    H246676   3.694   2.122  13.362  0.8010  0.5671  0.1650
 8421TIP3   OH246677   2.710   4.662   2.286  0.5254  0.3794  0.0687
 8421TIP3    H146678   2.659   4.637   2.209  0.3667  0.8880  0.0074
 8421TIP3    H246679   2.684   4.600   2.354 -0.6140  1.0070  0.2133
 8422TIP3   OH246680   3.338   6.297  12.772  0.1456  0.3399 -0.1554
 8422TIP3    H146681   3.410   6.292  12.709  0.7282  2.5154  0.2757
 8422TIP3    H246682   3.351   6.220  12.828 -0.3673 -1.6297 -2.5758
 8423TIP3   OH246683   2.944   2.415  10.840  0.1332  0.2416 -0.2395
 8423TIP3    H146684   2.933   2.461  10.757  1.3841  2.6302  0.8102
 8423TIP3    H246685   3.036   2.428  10.863 -0.4369  0.7472  2.0681
 8424TIP3   OH246686   5.632   6.007  14.083 -0.5155  0.5412  0.1678
 8424TIP3    H146687   5.596   6.066  14.017  1.8716  2.1725  0.1634
 8424TIP3    H246688   5.616   6.051  14.166 -1.8616 -0.5930  0.5298
 8425TIP3   OH246689   3.428   0.117  11.863  0.1791  0.5890  0.0542
 8425TIP3    H146690   3.373   0.131  11.786  1.7999  0.0083 -1.2747
 8425TIP3    H246691   3.466   0.203  11.881 -0.3936  0.7803  0.3833
 8426TIP3   OH246692   1.618   0.003  13.761 -0.1070 -0.2701  0.3779
 8426TIP3    H146693   1.687  -0.030  13.818  0.3460 -0.4875 -0.2830
 8426TIP3    H246694   1.642  -0.028  13.673  0.2311  1.6035 -0.2392
 8427TIP3   OH246695   3.213   2.484   0.442  0.3947 -0.4690  0.0841
 8427TIP3    H146696   3.229   2.458   0.351  2.4891  0.3885  0.1441
 8427TIP3    H246697   3.245   2.410   0.493 -0.0029 -0.5985  0.1493
 8428TIP3   OH246698   0.382   1.167  16.661  0.2641  0.0547  0.5264
 8428TIP3    H146699   0.322   1.239  16.643 -2.2741 -1.3752  2.4659
 8428TIP3    H246700   0.353   1.096  16.604  1.3536 -0.1270  0.1664
 8429TIP3   OH246701   4.096   2.555   2.606  0.3141 -0.4340 -0.3055
 8429TIP3    H146702   4.053   2.630   2.567  1.1330  0.8647  1.1485
 8429TIP3    H246703   4.035   2.524   2.673  0.5639 -0.1655  0.0515
 8430TIP3   OH246704   6.454   5.530   2.731  0.5542 -0.4261 -0.2722
 8430TIP3    H146705   6.375   5.475   2.728  0.7661 -0.6781 -2.6585
 8430TIP3    H246706   6.430   5.609   2.683  0.7830  0.9636  1.7642
 8431TIP3   OH246707   4.957   3.435   0.144 -0.4485 -0.0751  0.4293
 8431TIP3    H146708   4.885   3.375   0.126 -0.0832 -0.5813  0.6080
 8431TIP3    H246709   4.915   3.516   0.172 -0.9363 -0.7359  1.6970
 8432TIP3   OH246710   2.707   4.524  12.861 -0.3730  0.8881 -0.1364
 8432TIP3    H146711   2.795   4.543  12.827  0.1204  0.1649  0.7015
 8432TIP3    H246712   2.697   4.584  12.934  0.8830 -1.3721  2.0314
 8433TIP3   OH246713   2.080   1.006   4.978  0.0461 -0.2595  0.3247
 8433TIP3    H146714   2.088   0.923   5.024 -0.5990 -0.6522 -0.2546
 8433TIP3    H246715   2.147   1.062   5.018 -0.4775 -0.5877  1.7124
 8434TIP3   OH246716   4.878   3.243   6.039 -0.0903  0.0978 -0.3472
 8434TIP3    H146717   4.820   3.273   5.969 -2.3045  0.3384  1.4586
 8434TIP3    H246718   4.876   3.148   6.033  0.1855  0.1292 -0.9555
 8435TIP3   OH246719   4.503   1.452   2.507 -0.2159 -0.1308  0.1062
 8435TIP3    H146720   4.430   1.392   2.494 -0.8547  0.3896  1.1871
 8435TIP3    H246721   4.581   1.397   2.499 -0.6626 -0.5909 -1.6726
 8436TIP3   OH246722   6.125   6.521   4.870  0.1627 -0.0193  0.0845
 8436TIP3    H146723   6.210   6.545   4.907  1.1531 -2.9860 -0.0213
 8436TIP3    H246724   6.125   6.558   4.782  1.4619 -0.1305  0.0173
 8437TIP3   OH246725   5.271   6.344  13.214  0.0961 -0.2426  0.3385
 8437TIP3    H146726   5.302   6.379  13.130 -0.3730  0.1991  0.3434
 8437TIP3    H246727   5.207   6.408  13.244 -0.5203 -0.9408  0.5246
 8438TIP3   OH246728   2.625   1.401  15.915  0.0126  0.1528 -0.3381
 8438TIP3    H146729   2.711   1.373  15.946 -0.1546 -1.3358 -1.1585
 8438TIP3    H246730   2.568   1.327  15.935 -0.7685  0.5237 -1.1859
 8439TIP3   OH246731   5.791   4.933  11.967  0.4378  0.7044 -0.6013
 8439TIP3    H146732   5.698   4.953  11.980  0.5149  2.0019 -1.7692
 8439TIP3    H246733   5.827   4.930  12.055 -0.6726  0.3792 -0.1386
 8440TIP3   OH246734   5.233   0.892   0.253 -0.1902 -0.2720 -0.5598
 8440TIP3    H146735   5.223   0.943   0.172 -1.1324 -2.2813 -1.7806
 8440TIP3    H246736   5.224   0.957   0.323 -0.9882  1.2832 -2.0176
 8441TIP3   OH246737   0.737   3.315  12.791  0.3740 -0.2956  0.2597
 8441TIP3    H146738   0.652   3.288  12.826 -0.4494  1.1150 -0.5834
 8441TIP3    H246739   0.769   3.238  12.744  0.5406 -1.5348  2.2656
 8442TIP3   OH246740   2.227   6.144  14.705 -0.0189 -0.4634  0.2157
 8442TIP3    H146741   2.274   6.096  14.774 -0.4385 -4.0032 -1.7388
 8442TIP3    H246742   2.275   6.124  14.625 -2.0854 -0.2158 -1.1629
 8443TIP3   OH246743   2.679   4.979  16.384  0.5351  0.1198 -0.4450
 8443TIP3    H146744   2.701   4.941  16.469  0.7217 -3.4225 -1.9083
 8443TIP3    H246745   2.761   5.018  16.353  1.7874 -2.6269 -0.8543
 8444TIP3   OH246746   2.121   2.386  15.010  0.0823  0.2558 -0.3003
 8444TIP3    H146747   2.084   2.432  15.086  0.2289  0.2449 -0.2216
 8444TIP3    H246748   2.213   2.412  15.010 -0.1632  1.2190 -1.1799
 8445TIP3   OH246749   5.786   1.445   5.565 -0.5513  0.4222  0.2923
 8445TIP3    H146750   5.799   1.486   5.650 -1.3479  0.2418  0.5123
 8445TIP3    H246751   5.723   1.502   5.521 -0.6338  0.1642  0.0770
 8446TIP3   OH246752   5.725   5.352  17.063 -0.2232  0.1717 -0.3315
 8446TIP3    H146753   5.797   5.377  17.005  0.6927  1.0857  1.1208
 8446TIP3    H246754   5.695   5.268  17.029  2.2696 -0.7913 -0.3761
 8447TIP3   OH246755   5.668   0.441   1.769 -0.4562  0.2735 -0.0046
 8447TIP3    H146756   5.763   0.435   1.772 -0.2259  1.5869 -2.2036
 8447TIP3    H246757   5.647   0.519   1.821  0.0082  1.7864 -1.9874
 8448TIP3   OH246758   3.829   3.881  13.537  0.2310  0.6108  0.4291
 8448TIP3    H146759   3.902   3.900  13.478  1.2755  0.5554  1.6516
 8448TIP3    H246760   3.795   3.967  13.561  0.7891  0.6981  0.9245
 8449TIP3   OH246761   6.324   5.931  16.927  0.2861 -0.8415 -0.0733
 8449TIP3    H146762   6.292   6.000  16.870 -0.4482 -1.3030 -0.2399
 8449TIP3    H246763   6.273   5.941  17.008 -0.0150 -1.3426 -0.1951
 8450TIP3   OH246764   0.987   3.373  15.162  0.3758 -0.5157  0.1451
 8450TIP3    H146765   1.003   3.439  15.095 -0.3375 -0.0575  0.4120
 8450TIP3    H246766   1.066   3.374  15.216  1.1447 -1.2044 -0.9216
 8451TIP3   OH246767   2.807   2.866  12.278 -0.0628  0.1835 -0.1554
 8451TIP3    H146768   2.886   2.858  12.332 -0.2207  0.3248  0.0963
 8451TIP3    H246769   2.739   2.820  12.328 -0.0202 -0.4035 -0.6181
 8452TIP3   OH246770   6.425   0.457  12.907 -0.0954  0.2814  0.3640
 8452TIP3    H146771   6.350   0.420  12.954 -0.7858 -0.4699 -1.2616
 8452TIP3    H246772   6.491   0.387  12.909 -0.6840 -0.3576 -1.0222
 8453TIP3   OH246773   2.183   3.832   3.990  0.0981  0.1097 -0.0141
 8453TIP3    H146774   2.240   3.763   4.024 -0.7119 -0.3779  0.3813
 8453TIP3    H246775   2.123   3.787   3.931 -0.1142  0.5650 -0.1516
 8454TIP3   OH246776   0.054   1.526  13.705  0.3909  0.6699 -0.4691
 8454TIP3    H146777   0.009   1.597  13.658  0.2700  1.6344  1.0291
 8454TIP3    H246778   0.143   1.527  13.670  0.5487  1.9598 -0.0952
 8455TIP3   OH246779   5.176   6.753  16.285 -0.2615 -0.1222 -0.0160
 8455TIP3    H146780   5.129   6.676  16.317 -0.4348  0.0292  0.0979
 8455TIP3    H246781   5.258   6.752  16.334  0.8952 -1.6647 -1.8296
 8456TIP3   OH246782   6.568   4.511  11.667 -1.1245  0.0398  0.4649
 8456TIP3    H146783   6.539   4.458  11.741 -3.0404 -0.1438 -0.3412
 8456TIP3    H246784   6.613   4.450  11.609 -1.7332 -0.3238  0.3754
 8457TIP3   OH246785   0.764   2.172  15.246 -0.2053  0.2902 -0.4546
 8457TIP3    H146786   0.849   2.216  15.246 -1.5044  3.0483 -0.1171
 8457TIP3    H246787   0.728   2.188  15.158  0.0227 -1.7954 -0.9679
 8458TIP3   OH246788   3.308   3.001   2.076  0.1012  0.7736 -0.3939
 8458TIP3    H146789   3.295   3.068   2.144 -0.0132 -0.4107  0.7879
 8458TIP3    H246790   3.397   2.969   2.090 -0.5861 -0.8458  0.4933
 8459TIP3   OH246791   1.321   1.210  15.818 -0.1887 -0.0273 -0.2863
 8459TIP3    H146792   1.251   1.230  15.880 -0.2865  0.8612 -0.6735
 8459TIP3    H246793   1.309   1.273  15.747 -1.8713 -2.7597 -2.6607
 8460TIP3   OH246794   2.756   5.071  13.009 -0.2957 -0.3509  0.0202
 8460TIP3    H146795   2.714   5.122  12.939  2.6721  0.1608 -1.5656
 8460TIP3    H246796   2.849   5.094  13.003  0.3309 -1.5629  3.1275
 8461TIP3   OH246797   4.305   5.563   1.292 -0.1075  0.4777 -0.4284
 8461TIP3    H146798   4.329   5.582   1.202  1.4918  0.7865  0.0311
 8461TIP3    H246799   4.245   5.488   1.286  2.0902 -1.2997 -1.6202
 8462TIP3   OH246800   0.360   0.734   5.955  0.4331 -0.1239 -0.1009
 8462TIP3    H146801   0.347   0.662   6.017  2.1813 -0.1004  0.3286
 8462TIP3    H246802   0.413   0.798   6.003 -0.1443  0.9619 -0.8557
 8463TIP3   OH246803   6.437   5.807   1.481 -0.3756  0.2658  0.3690
 8463TIP3    H146804   6.412   5.851   1.562 -0.8631  0.0895  0.3163
 8463TIP3    H246805   6.430   5.714   1.502 -0.6879  0.2218  0.0686
 8464TIP3   OH246806   5.487   4.666   3.201  0.6496  0.6123 -0.0126
 8464TIP3    H146807   5.579   4.644   3.186  0.4730 -0.0029 -0.2065
 8464TIP3    H246808   5.483   4.686   3.295  0.6630 -1.0047  0.3626
 8465TIP3   OH246809   4.002   4.969   0.651 -0.1804 -0.0216 -0.2029
 8465TIP3    H146810   3.926   5.024   0.634  0.7649  1.3032 -0.3789
 8465TIP3    H246811   4.038   5.001   0.733 -0.5067 -1.4816  0.5471
 8466TIP3   OH246812   2.445   4.635   6.666 -0.2036  0.1234  0.3623
 8466TIP3    H146813   2.354   4.666   6.667 -0.9980 -2.0241  0.7514
 8466TIP3    H246814   2.468   4.628   6.759 -0.2377 -0.8730  0.3087
 8467TIP3   OH246815   4.037   3.427  15.091  0.3348 -0.1822  0.5264
 8467TIP3    H146816   4.026   3.382  15.175  0.1035 -0.7760  0.1909
 8467TIP3    H246817   4.131   3.423  15.074  0.3203 -0.5307  0.5120
 8468TIP3   OH246818   3.776   2.367   2.530  0.0272 -0.3039  0.1116
 8468TIP3    H146819   3.794   2.279   2.495  0.0843  0.0159 -0.6795
 8468TIP3    H246820   3.710   2.403   2.471  0.5031  0.4452  0.0242
 8469TIP3   OH246821   5.712   3.990   6.227 -0.1761  0.6100  0.6440
 8469TIP3    H146822   5.757   3.932   6.167 -0.3472  1.1240  0.0073
 8469TIP3    H246823   5.734   3.957   6.314 -1.2385 -1.1543  0.2931
 8470TIP3   OH246824   2.452   1.312   5.479  0.2375  0.2215  0.4178
 8470TIP3    H146825   2.473   1.398   5.445  0.8730 -0.4852 -1.0509
 8470TIP3    H246826   2.356   1.308   5.479  0.1982  1.0585  0.8740
 8471TIP3   OH246827   2.883   2.052   3.991  0.2350 -0.3226  0.3482
 8471TIP3    H146828   2.825   1.978   3.974  1.9330 -1.2819 -1.9136
 8471TIP3    H246829   2.966   2.013   4.018  1.7867  0.4587 -2.7283
 8472TIP3   OH246830   3.273   5.380   0.901  0.3690 -0.2242  0.3240
 8472TIP3    H146831   3.252   5.319   0.971 -0.0975 -0.1238  0.2748
 8472TIP3    H246832   3.205   5.447   0.906  1.4313  0.8494  1.0245
 8473TIP3   OH246833   1.485   2.642   0.947  0.7796  0.1214  0.2324
 8473TIP3    H146834   1.399   2.609   0.922  1.1087 -1.2533  0.8284
 8473TIP3    H246835   1.478   2.737   0.937 -0.3381 -0.0669 -1.1483
 8474TIP3   OH246836   0.250   3.627   0.883 -0.0244 -0.4255 -0.9895
 8474TIP3    H146837   0.264   3.538   0.851  0.8139 -0.5901 -0.2079
 8474TIP3    H246838   0.332   3.673   0.863 -0.1344 -0.0644 -0.6225
 8475TIP3   OH246839   0.328   5.229   4.082 -0.2186 -0.0100 -0.1064
 8475TIP3    H146840   0.385   5.292   4.126 -0.4819 -0.3934  0.7956
 8475TIP3    H246841   0.386   5.157   4.059  0.1964  0.7570 -1.6191
 8476TIP3   OH246842   0.553   4.667  15.080  0.5200 -0.5249 -0.1020
 8476TIP3    H146843   0.480   4.703  15.029  1.0790 -0.5566 -0.9532
 8476TIP3    H246844   0.549   4.714  15.163  0.9347  1.2159 -0.9999
 8477TIP3   OH246845   5.990   5.521  15.119 -0.5326 -0.4202  0.0158
 8477TIP3    H146846   5.994   5.450  15.055 -0.6783  0.3291 -0.8669
 8477TIP3    H246847   5.948   5.593  15.071  0.5939  0.6117  0.5314
 8478TIP3   OH246848   0.704   2.501   5.830  0.2575 -0.2673  0.1055
 8478TIP3    H146849   0.773   2.434   5.827  0.8578  0.3213  0.6606
 8478TIP3    H246850   0.629   2.459   5.787  1.7220  0.0103 -2.9337
 8479TIP3   OH246851   5.945   1.762   3.453 -0.0477  0.0127  0.9861
 8479TIP3    H146852   6.029   1.799   3.477 -0.2080 -0.0919  1.7243
 8479TIP3    H246853   5.897   1.835   3.414  0.4463  0.0258  0.3836
 8480TIP3   OH246854   3.456   0.148   3.310 -0.3747  0.5219 -0.6355
 8480TIP3    H146855   3.424   0.058   3.298  0.8008 -0.1449  0.9673
 8480TIP3    H246856   3.412   0.179   3.389  1.3941  0.2611  0.5120
 8481TIP3   OH246857   1.551   3.647   3.960 -0.4161 -0.2823  0.3100
 8481TIP3    H146858   1.632   3.696   3.944 -0.0771 -1.2893 -1.3134
 8481TIP3    H246859   1.493   3.710   4.003  1.2788  0.4039  1.7357
 8482TIP3   OH246860   5.363   6.292  11.368  0.1635 -0.2381 -0.9856
 8482TIP3    H146861   5.269   6.282  11.384  0.2308 -0.1767 -0.5325
 8482TIP3    H246862   5.372   6.381  11.334  0.1341  0.0188 -0.3476
 8483TIP3   OH246863   4.715   3.876  12.227  0.3117  0.0796 -0.5511
 8483TIP3    H146864   4.702   3.961  12.269 -0.5957 -1.5159  2.7611
 8483TIP3    H246865   4.805   3.852  12.249  0.0040 -0.5383  0.0792
 8484TIP3   OH246866   4.251   4.748  13.470 -0.3431 -0.1704 -0.6346
 8484TIP3    H146867   4.243   4.702  13.387 -0.6972 -0.3028 -0.5303
 8484TIP3    H246868   4.345   4.756  13.484 -0.2596  1.2529 -1.8185
 8485TIP3   OH246869   1.234   6.359   4.743 -0.3481 -0.8119  0.1494
 8485TIP3    H146870   1.242   6.384   4.835 -0.6067  0.7602 -0.2360
 8485TIP3    H246871   1.149   6.315   4.737 -0.0689 -1.4614  0.7581
 8486TIP3   OH246872   0.460   2.082  13.494 -0.5151  0.4029 -0.0681
 8486TIP3    H146873   0.429   2.139  13.423 -0.2945  1.8545  0.9603
 8486TIP3    H246874   0.549   2.111  13.511  0.0579 -1.1037 -0.3299
 8487TIP3   OH246875   1.335   4.602  12.374 -0.7013  0.3902 -0.3768
 8487TIP3    H146876   1.295   4.521  12.406  0.1399  0.7238  1.6875
 8487TIP3    H246877   1.392   4.574  12.303 -1.5700 -0.6191 -0.6933
 8488TIP3   OH246878   4.911   2.624  12.659  0.2799 -0.0828 -0.2681
 8488TIP3    H146879   4.911   2.696  12.597  0.5586 -0.2548 -0.4682
 8488TIP3    H246880   4.920   2.545  12.605 -0.1918 -0.2797 -0.0653
 8489TIP3   OH246881   2.968   1.142  10.995 -0.4721  0.0893  0.4389
 8489TIP3    H146882   3.048   1.187  10.969  0.1993 -0.6977  1.0796
 8489TIP3    H246883   2.898   1.192  10.954  0.3376  0.8546 -0.0488
 8490TIP3   OH246884   5.081   3.326  15.536  0.0111 -0.0370  0.1209
 8490TIP3    H146885   5.103   3.233  15.534  1.0771  0.1870  0.5927
 8490TIP3    H246886   5.120   3.358  15.618 -2.0346  0.4276  0.9592
 8491TIP3   OH246887   0.321   0.024  16.125  0.2517  0.2609 -0.0131
 8491TIP3    H146888   0.403   0.074  16.123 -0.9238  2.2607 -2.1846
 8491TIP3    H246889   0.337  -0.052  16.069  0.6645  0.5719 -0.3175
 8492TIP3   OH246890   2.411   5.947  11.899 -0.1107  0.1852  0.3400
 8492TIP3    H146891   2.437   5.923  11.987 -1.1903  1.3470  1.0142
 8492TIP3    H246892   2.493   5.954  11.851  0.5276  0.0185  1.3734
 8493TIP3   OH246893   6.468   0.275   5.855  0.6273 -0.1193  0.3427
 8493TIP3    H146894   6.516   0.270   5.938 -0.2291 -1.8396  0.7824
 8493TIP3    H246895   6.378   0.296   5.881  0.5367  0.2112 -0.2329
 8494TIP3   OH246896   5.171   5.254  13.302  0.2182 -0.7571 -0.2734
 8494TIP3    H146897   5.232   5.306  13.250  0.5728 -0.2691  0.6012
 8494TIP3    H246898   5.095   5.310  13.313 -0.4671 -1.4119 -1.4659
 8495TIP3   OH246899   4.730   5.934   1.182 -0.6852  0.3878 -0.1450
 8495TIP3    H146900   4.681   5.969   1.108  1.7315  1.3769 -1.4009
 8495TIP3    H246901   4.706   5.842   1.185 -0.1726  0.0738 -2.8284
 8496TIP3   OH246902   3.420   1.374   1.725  0.0888 -0.0152 -0.4395
 8496TIP3    H146903   3.402   1.347   1.635  0.7259  3.4636 -1.7740
 8496TIP3    H246904   3.333   1.381   1.766 -0.1446 -3.0040 -0.1773
 8497TIP3   OH246905   1.189   2.023  14.011  0.1336  0.4701 -0.2234
 8497TIP3    H146906   1.094   2.020  14.005 -0.0446 -0.9101  2.1509
 8497TIP3    H246907   1.208   2.114  14.033 -0.9544  0.1722  2.2897
 8498TIP3   OH246908   3.735   4.750  15.953 -0.4453  0.7650 -0.4907
 8498TIP3    H146909   3.812   4.742  16.009 -1.5442  0.5114  1.0350
 8498TIP3    H246910   3.673   4.685  15.987 -1.9901  2.1208 -0.5612
 8499TIP3   OH246911   6.007   2.809   1.912  0.1861 -0.2062 -0.1685
 8499TIP3    H146912   5.930   2.774   1.867 -0.5981 -1.6177  2.0881
 8499TIP3    H246913   5.992   2.787   2.004  2.2828  1.4284  0.6219
 8500TIP3   OH246914   3.049   0.196   0.400  0.1492 -0.3789 -0.0308
 8500TIP3    H146915   3.071   0.127   0.336 -0.9201 -1.8731  1.1194
 8500TIP3    H246916   3.130   0.211   0.448  0.1733 -1.6463  0.3860
 8501TIP3   OH246917   5.025   5.295  16.081  0.0487 -0.2273 -0.3756
 8501TIP3    H146918   5.020   5.203  16.054  3.0538 -0.5623 -0.0599
 8501TIP3    H246919   5.049   5.342  16.002  1.8881 -0.2282  0.1508
 8502TIP3   OH246920   4.750   1.474   0.320 -0.2846  0.1863  0.0078
 8502TIP3    H146921   4.680   1.490   0.257 -0.6588  0.9138  0.5765
 8502TIP3    H246922   4.814   1.420   0.274 -0.2963  1.1383 -1.1565
 8503TIP3   OH246923   5.724   4.571   3.893  0.9082 -0.0348  0.3174
 8503TIP3    H146924   5.787   4.615   3.836 -0.6121  1.2843 -0.4034
 8503TIP3    H246925   5.776   4.504   3.938  2.6076  0.3483 -0.9681
 8504TIP3   OH246926   0.428   4.648   3.864  0.1390 -0.1444 -0.2628
 8504TIP3    H146927   0.456   4.732   3.826  0.5982  0.0875  0.5577
 8504TIP3    H246928   0.350   4.670   3.914  1.0529  0.1088  1.1319
 8505TIP3   OH246929   6.276   0.653  13.883  0.7509  0.5225  0.2393
 8505TIP3    H146930   6.265   0.725  13.821  1.8217 -1.9116 -3.0728
 8505TIP3    H246931   6.232   0.578  13.841 -2.1507 -0.5076  4.4253
 8506TIP3   OH246932   4.578   4.794   0.034 -0.2648  0.7014 -0.0798
 8506TIP3    H146933   4.528   4.873   0.055 -1.5579 -0.1157  0.0152
 8506TIP3    H246934   4.653   4.798   0.093  1.2245  3.2419 -1.9355
 8507TIP3   OH246935   2.228   3.108   2.521 -0.1399  0.6118  0.6729
 8507TIP3    H146936   2.309   3.114   2.470  0.2924  1.0820  1.3900
 8507TIP3    H246937   2.235   3.024   2.567 -1.2802 -0.5996 -1.2401
 8508TIP3   OH246938   2.476   0.319  13.902  0.7176 -0.2228 -0.5173
 8508TIP3    H146939   2.570   0.322  13.885  1.0150 -0.4745  0.9793
 8508TIP3    H246940   2.445   0.407  13.883  1.2416 -0.1551 -1.0784
 8509TIP3   OH246941   4.948   2.442  16.186  0.0814  0.2034 -0.4959
 8509TIP3    H146942   4.967   2.530  16.220  1.1329 -0.2062  0.0002
 8509TIP3    H246943   4.905   2.398  16.259 -1.5078  0.6446 -1.1210
 8510TIP3   OH246944   1.235   2.005  11.986  0.4193 -0.7553  0.4103
 8510TIP3    H146945   1.216   1.940  12.053  1.7922  0.2038  1.7971
 8510TIP3    H246946   1.330   2.004  11.977  0.4025  0.4591 -0.1619
 8511TIP3   OH246947   4.317   6.614   3.115  0.6985 -0.5605 -0.3777
 8511TIP3    H146948   4.342   6.586   3.026  1.5761  0.6869 -0.5571
 8511TIP3    H246949   4.386   6.578   3.171  1.4007  0.5199 -0.5122
 8512TIP3   OH246950   0.992   0.483   0.774 -0.8348 -0.0002  0.8422
 8512TIP3    H146951   0.935   0.532   0.834 -0.2612  0.6091  0.9041
 8512TIP3    H246952   0.932   0.430   0.722 -1.5342  1.1002  0.4807
 8513TIP3   OH246953   3.003   1.296   0.128 -0.0601 -0.0428  0.3494
 8513TIP3    H146954   3.037   1.213   0.164  0.3681 -0.4114 -0.8290
 8513TIP3    H246955   3.051   1.364   0.176 -1.7318 -0.3682  2.6455
 8514TIP3   OH246956   4.872   4.612  12.556 -0.2332  0.2740  0.2060
 8514TIP3    H146957   4.859   4.587  12.465 -0.3120 -0.5820  0.4417
 8514TIP3    H246958   4.966   4.627  12.564 -0.4781  2.4437 -0.5161
 8515TIP3   OH246959   1.787   4.767  13.012  0.3915  0.0526  0.2628
 8515TIP3    H146960   1.776   4.861  13.000 -1.3061 -0.1704 -0.2074
 8515TIP3    H246961   1.755   4.750  13.101  1.3027 -0.0012  0.5875
 8516TIP3   OH246962   0.261   3.569  12.345 -0.9119  0.3024  0.8011
 8516TIP3    H146963   0.270   3.490  12.292 -1.8573 -0.7220  2.0968
 8516TIP3    H246964   0.219   3.632  12.287  0.5342  0.1389 -0.4965
 8517TIP3   OH246965   6.248   6.674   3.732 -0.5240  0.7593  0.1685
 8517TIP3    H146966   6.218   6.583   3.735 -0.4224  0.7263  0.1706
 8517TIP3    H246967   6.249   6.702   3.824 -0.7483  0.8261  0.1527
 8518TIP3   OH246968   2.260   1.181   5.084 -0.3328  0.6137  1.0492
 8518TIP3    H146969   2.231   1.266   5.115  0.8162  1.2011  0.5758
 8518TIP3    H246970   2.331   1.157   5.144  0.3698  0.7109  0.2767
 8519TIP3   OH246971   3.756   0.367   4.108  0.1870  0.0993 -0.5186
 8519TIP3    H146972   3.781   0.279   4.078  0.7779 -0.1305  0.5888
 8519TIP3    H246973   3.805   0.379   4.189  0.6217  1.7223 -0.9894
 8520TIP3   OH246974   2.724   4.870  13.423 -0.2580 -0.3908 -0.2145
 8520TIP3    H146975   2.650   4.856  13.364 -1.2855  0.6938  0.7575
 8520TIP3    H246976   2.708   4.812  13.497 -0.5912  0.4434  0.3807
 8521TIP3   OH246977   4.727   2.457  12.229 -0.4108  0.2088 -0.0536
 8521TIP3    H146978   4.788   2.463  12.156  0.3660  1.2329  0.6461
 8521TIP3    H246979   4.679   2.376  12.213  0.7039 -0.3152 -0.9465
 8522TIP3   OH246980   4.643   0.494   6.817 -0.0434 -0.4824 -0.8876
 8522TIP3    H146981   4.664   0.461   6.730  1.3414 -0.1599 -0.7143
 8522TIP3    H246982   4.632   0.416   6.871  0.8486 -0.6975 -0.9924
 8523TIP3   OH246983   2.543   4.025  16.635  0.2674 -0.5840 -0.0835
 8523TIP3    H146984   2.530   4.119  16.645 -1.5400 -0.8177  0.0787
 8523TIP3    H246985   2.457   3.986  16.652  0.6510 -2.1729 -1.4413
 8524TIP3   OH246986   3.981   3.510   3.104 -0.1491  0.1959 -0.6984
 8524TIP3    H146987   4.056   3.543   3.055  0.4621 -1.6204 -1.0855
 8524TIP3    H246988   4.019   3.446   3.165 -1.0932  1.1879  1.0025
 8525TIP3   OH246989   6.693   2.424   0.493  0.2512 -0.2186 -0.3294
 8525TIP3    H146990   6.762   2.360   0.477  1.2881  0.5244  0.9585
 8525TIP3    H246991   6.730   2.507   0.462 -0.1730  0.1374  0.0982
 8526TIP3   OH246992   1.588   0.637  16.193 -0.0618 -0.3597 -0.4204
 8526TIP3    H146993   1.559   0.727  16.202  1.2381  0.0481 -0.0885
 8526TIP3    H246994   1.507   0.586  16.185 -0.8325  0.7328  0.2084
 8527TIP3   OH246995   6.681   1.693   6.917  0.1524 -0.8941 -0.7766
 8527TIP3    H146996   6.635   1.617   6.951  0.6083 -0.7165  0.2825
 8527TIP3    H246997   6.611   1.751   6.885 -0.1925 -1.7497 -1.6401
 8528TIP3   OH246998   3.539   5.518   0.157  0.0398 -0.0696 -0.3680
 8528TIP3    H146999   3.612   5.578   0.139  0.6530 -1.2597 -2.0678
 8528TIP3    H247000   3.538   5.458   0.083 -1.4609 -1.3053  0.5890
 8529TIP3   OH247001   0.198   5.639   5.742  0.7116 -0.6778 -0.1531
 8529TIP3    H147002   0.229   5.632   5.652 -0.0650 -0.1561 -0.4661
 8529TIP3    H247003   0.267   5.686   5.788  0.6854 -0.1095 -0.6900
 8530TIP3   OH247004   2.107   0.421  16.647 -0.1853 -0.4314  0.3791
 8530TIP3    H147005   2.092   0.414  16.553  2.6135 -0.3184 -0.1695
 8530TIP3    H247006   2.159   0.501  16.656 -2.5292  0.9893  2.3801
 8531TIP3   OH247007   3.902   1.856  15.321  0.6364 -0.1255  0.0040
 8531TIP3    H147008   3.966   1.923  15.346 -0.3922  0.6201  0.7401
 8531TIP3    H247009   3.863   1.828  15.403 -0.2241 -0.3008 -0.4525
 8532TIP3   OH247010   1.385   1.281   1.302  0.5122 -0.6505 -0.4228
 8532TIP3    H147011   1.369   1.238   1.218  0.7450 -1.2551 -0.1634
 8532TIP3    H247012   1.472   1.249   1.329  0.4834 -0.3798 -0.0074
 8533TIP3   OH247013   1.836   2.444  12.174 -0.0062 -0.2874  0.2788
 8533TIP3    H147014   1.855   2.506  12.104 -1.4934 -0.5490 -0.3808
 8533TIP3    H247015   1.775   2.490  12.231  0.2428 -0.5264  0.7458
 8534TIP3   OH247016   2.351   2.675  12.084  0.1525  0.9078  0.3478
 8534TIP3    H147017   2.276   2.677  12.025 -0.2725  1.6542  0.8890
 8534TIP3    H247018   2.428   2.677  12.027 -0.2269 -0.0893 -0.2187
 8535TIP3   OH247019   5.598   3.418   1.732 -0.8363  0.0602 -0.2621
 8535TIP3    H147020   5.609   3.347   1.669 -0.0972 -2.7783  2.7373
 8535TIP3    H247021   5.631   3.496   1.687  0.3241 -1.8760 -3.0683
 8536TIP3   OH247022   0.820   3.781   0.791  0.0278 -0.4748 -0.2429
 8536TIP3    H147023   0.877   3.708   0.817 -1.9508 -1.9381  0.2743
 8536TIP3    H247024   0.795   3.822   0.873 -0.6229 -0.6394 -0.3513
 8537TIP3   OH247025   1.881   4.584  12.341 -0.3376 -0.3157  0.0271
 8537TIP3    H147026   1.823   4.514  12.371  0.6480 -0.6315  1.2859
 8537TIP3    H247027   1.924   4.548  12.264 -1.4718 -0.2365 -0.6686
 8538TIP3   OH247028   3.682   3.970  17.285 -0.6350 -0.4186  0.6516
 8538TIP3    H147029   3.671   3.877  17.263 -0.6521 -0.1784 -0.4486
 8538TIP3    H247030   3.593   4.001  17.303 -0.8372 -0.2682 -0.5304
 8539TIP3   OH247031   2.212   4.752   2.028 -0.4051 -0.2558  0.1856
 8539TIP3    H147032   2.252   4.814   1.969  0.0774  0.1879  0.9678
 8539TIP3    H247033   2.151   4.702   1.973 -0.5161  0.6452 -0.5178
 8540TIP3   OH247034   0.179   4.138   3.050  0.4432  0.1804  0.4120
 8540TIP3    H147035   0.264   4.172   3.078  0.5401  1.2237 -1.0685
 8540TIP3    H247036   0.119   4.211   3.062 -0.2796 -0.5631  1.4787
 8541TIP3   OH247037   1.981   4.063   2.129  0.4577  0.4691 -0.1786
 8541TIP3    H147038   2.076   4.062   2.145  0.3708 -0.8258  0.4199
 8541TIP3    H247039   1.953   3.974   2.152 -0.7549  0.5487 -1.2810
 8542TIP3   OH247040   0.655   1.336  13.254  0.0578 -0.1279 -0.1805
 8542TIP3    H147041   0.680   1.429  13.251  1.9112 -0.5266  1.0444
 8542TIP3    H247042   0.730   1.290  13.216 -1.0217 -1.1144 -1.1678
 8543TIP3   OH247043   2.077   0.102  16.911 -0.8793 -0.4489  0.6614
 8543TIP3    H147044   2.116   0.085  16.997 -0.3575 -0.6502  0.3961
 8543TIP3    H247045   2.094   0.195  16.895 -0.3295 -0.5765  0.4677
 8544TIP3   OH247046   6.259   1.354  11.738  0.3064 -0.5875  0.6294
 8544TIP3    H147047   6.168   1.330  11.721  0.7539 -2.5959  0.8239
 8544TIP3    H247048   6.268   1.441  11.699 -1.4340 -0.7541 -0.2550
 8545TIP3   OH247049   0.528   3.437  14.873  0.3833 -0.8162  0.3999
 8545TIP3    H147050   0.578   3.432  14.954  0.8163  1.1957  0.3193
 8545TIP3    H247051   0.457   3.497  14.892  0.1952 -0.7178 -0.5585
 8546TIP3   OH247052   5.427   1.279  16.680 -0.5319  0.1761 -0.4478
 8546TIP3    H147053   5.428   1.344  16.751  2.6370 -2.0650  1.8563
 8546TIP3    H247054   5.484   1.317  16.613 -0.3719  0.6855 -0.0365
 8547TIP3   OH247055   0.127   1.730   2.077  0.3914 -0.0440 -0.1421
 8547TIP3    H147056   0.074   1.681   2.140 -0.8147 -0.3784 -1.3788
 8547TIP3    H247057   0.143   1.668   2.006 -1.8049  1.4598 -2.1003
 8548TIP3   OH247058   0.599   3.695  11.696 -0.2405 -0.0405  0.2432
 8548TIP3    H147059   0.574   3.770  11.750  1.3073  1.2537 -0.7157
 8548TIP3    H247060   0.623   3.734  11.611 -1.9241 -1.9260 -1.1816
 8549TIP3   OH247061   1.524   6.378  11.022  0.0507  0.4154  0.1504
 8549TIP3    H147062   1.527   6.421  10.937 -1.1010  1.7149  0.7357
 8549TIP3    H247063   1.564   6.293  11.007 -1.1989  0.1288 -1.9931
 8550TIP3   OH247064   2.459   3.550   1.839 -0.8091 -0.2447 -0.1863
 8550TIP3    H147065   2.399   3.594   1.899 -0.7937 -1.3391  0.6712
 8550TIP3    H247066   2.523   3.507   1.897 -0.1373 -0.4010 -1.0256
 8551TIP3   OH247067   4.558   1.483  16.492 -0.9781  0.1558 -0.3977
 8551TIP3    H147068   4.606   1.554  16.449 -1.0085 -0.0695 -0.8168
 8551TIP3    H247069   4.557   1.413  16.426 -0.0565 -0.6063  0.3721
 8552TIP3   OH247070   1.628   0.895  14.046  0.1138 -0.1010 -0.6015
 8552TIP3    H147071   1.572   0.841  14.101  0.4995  0.2257  0.1335
 8552TIP3    H247072   1.588   0.892  13.960 -0.3251 -0.8873 -0.3776
 8553TIP3   OH247073   3.994   3.089  11.876 -0.4254 -0.5298 -0.2012
 8553TIP3    H147074   4.087   3.097  11.900 -0.1965 -2.9897  0.0325
 8553TIP3    H247075   3.995   3.043  11.792 -1.4544 -0.0929 -0.4676
 8554TIP3   OH247076   3.838   0.270  14.091 -0.7454 -0.0843  0.4868
 8554TIP3    H147077   3.759   0.321  14.108 -1.9643 -2.0157  0.9195
 8554TIP3    H247078   3.808   0.196  14.038  1.3827  0.8534 -2.2846
 8555TIP3   OH247079   5.760   3.144   0.340 -0.0465 -0.4476 -0.0338
 8555TIP3    H147080   5.843   3.106   0.314  0.2203  0.0224  0.1033
 8555TIP3    H247081   5.736   3.202   0.267 -0.2402 -0.5604 -0.0609
 8556TIP3   OH247082   3.521   1.911   6.594 -0.1969 -0.2794  0.3664
 8556TIP3    H147083   3.584   1.969   6.552 -2.4560  1.7297 -0.5255
 8556TIP3    H247084   3.564   1.881   6.674  2.5994 -0.6860 -1.1844
 8557TIP3   OH247085   1.119   0.137   5.375 -0.0359 -0.0054 -0.7133
 8557TIP3    H147086   1.143   0.045   5.371 -0.9189 -0.3056  0.3196
 8557TIP3    H247087   1.147   0.173   5.291  2.2467 -0.7091 -0.3254
 8558TIP3   OH247088   0.327   1.535  12.907  0.3624 -0.2719  0.4628
 8558TIP3    H147089   0.382   1.526  12.985  1.4201  1.5392  0.0097
 8558TIP3    H247090   0.387   1.520  12.834  0.2153  1.2819 -0.0294
 8559TIP3   OH247091   0.977   6.167   0.678  0.0847  0.2728  0.2298
 8559TIP3    H147092   0.958   6.177   0.584  1.2615 -0.5939 -0.1199
 8559TIP3    H247093   1.007   6.253   0.706 -0.7251  0.6639 -0.0661
 8560TIP3   OH247094   1.684   6.217   6.157 -0.3100  0.0623  0.1104
 8560TIP3    H147095   1.681   6.127   6.190  1.5367 -0.1189 -0.1131
 8560TIP3    H247096   1.771   6.225   6.116 -1.1621  1.3717 -1.5711
 8561TIP3   OH247097   5.433   4.536  15.712  0.2399  0.3408  0.4417
 8561TIP3    H147098   5.343   4.511  15.731  0.2080 -0.4839 -0.7203
 8561TIP3    H247099   5.425   4.615  15.658  0.0670 -1.3213 -2.1059
 8562TIP3   OH247100   5.555   1.545   2.791  0.0397 -1.1214  0.4814
 8562TIP3    H147101   5.513   1.630   2.803 -2.7608 -2.3225  0.1812
 8562TIP3    H247102   5.527   1.517   2.703  0.3644 -2.5817  0.8159
 8563TIP3   OH247103   1.013   6.745   2.113  0.7950  0.2098  0.1325
 8563TIP3    H147104   1.070   6.668   2.117  2.0958  1.1302 -0.1466
 8563TIP3    H247105   1.030   6.792   2.194 -1.3308 -0.6419  1.1691
 8564TIP3   OH247106   3.302   1.869   1.518 -0.0336 -0.1778  0.0802
 8564TIP3    H147107   3.220   1.860   1.565 -0.9021  0.8978 -1.1722
 8564TIP3    H247108   3.283   1.930   1.447  1.3842 -1.2530 -1.2884
 8565TIP3   OH247109   4.817   6.111  16.457 -0.6539 -0.6797  0.0089
 8565TIP3    H147110   4.787   6.041  16.399 -1.1683  0.6230 -1.3580
 8565TIP3    H247111   4.803   6.076  16.545  0.1159 -2.6996 -0.6042
 8566TIP3   OH247112   0.446   2.624   6.084  0.2283 -0.2128 -0.5020
 8566TIP3    H147113   0.460   2.556   6.150 -3.7139 -1.6374 -0.8604
 8566TIP3    H247114   0.434   2.576   6.002 -3.1189  0.6790 -0.6862
 8567TIP3   OH247115   1.267   4.933  11.893  0.0064  0.5375  0.5681
 8567TIP3    H147116   1.277   4.855  11.948 -0.8641 -2.6135 -3.3255
 8567TIP3    H247117   1.354   4.948  11.856 -0.7679 -2.1721 -2.8041
 8568TIP3   OH247118   3.197   1.836   0.410 -0.3154  0.2474 -0.2158
 8568TIP3    H147119   3.128   1.825   0.344 -1.5365  0.3476  1.0189
 8568TIP3    H247120   3.239   1.919   0.386 -2.3566  1.5603  0.5224
 8569TIP3   OH247121   3.264   3.221   2.264 -0.0606  0.0221 -0.1084
 8569TIP3    H147122   3.279   3.314   2.281 -1.0938 -0.0484  1.3518
 8569TIP3    H247123   3.192   3.197   2.322 -0.5770 -1.4365 -1.2894
 8570TIP3   OH247124   2.297   1.920   5.902 -0.5326  0.7958 -0.0574
 8570TIP3    H147125   2.374   1.925   5.845 -0.3915 -2.7527 -0.4330
 8570TIP3    H247126   2.228   1.885   5.846 -0.6227 -1.9598  1.5816
 8571TIP3   OH247127   0.652   3.942   5.952  0.0034 -0.1306 -0.8921
 8571TIP3    H147128   0.642   3.964   6.045 -0.6385  0.0748 -1.0103
 8571TIP3    H247129   0.568   3.963   5.912  0.7515  1.2969 -1.8313
 8572TIP3   OH247130   3.056   5.756   5.288  0.2737 -0.2713  0.0712
 8572TIP3    H147131   2.990   5.773   5.220 -1.8612 -0.8739  1.8742
 8572TIP3    H247132   3.063   5.661   5.291  1.5961 -0.2159 -0.3586
 8573TIP3   OH247133   6.424   0.092  11.512 -0.0054  0.1048  0.0178
 8573TIP3    H147134   6.441   0.178  11.474 -1.5601  0.4555  0.0522
 8573TIP3    H247135   6.474   0.092  11.594 -0.2249  1.0849  0.1622
 8574TIP3   OH247136   5.155   5.841   3.516  0.2124 -0.3922 -0.7969
 8574TIP3    H147137   5.152   5.759   3.467  1.7190 -0.5607 -0.6694
 8574TIP3    H247138   5.065   5.857   3.542 -0.2194 -1.6314 -1.4371
 8575TIP3   OH247139   3.100   5.640   1.163  0.1048  0.0919  0.3323
 8575TIP3    H147140   3.073   5.606   1.248  0.8958 -0.1261  0.5016
 8575TIP3    H247141   3.082   5.570   1.101  1.0162 -0.3551  0.5647
 8576TIP3   OH247142   4.440   0.755  15.815 -0.2640  0.0096  0.3300
 8576TIP3    H147143   4.528   0.791  15.805 -0.7378  2.1460  2.9098
 8576TIP3    H247144   4.447   0.692  15.887 -0.2598 -2.3390 -1.6056
 8577TIP3   OH247145   3.990   6.121   2.885 -0.3633 -0.6428 -0.1617
 8577TIP3    H147146   3.993   6.162   2.972  1.1363 -1.1869  0.0733
 8577TIP3    H247147   3.959   6.190   2.827  3.4364  1.4448 -0.0389
 8578TIP3   OH247148   2.519   6.082   2.733  0.1735  0.3618 -0.0587
 8578TIP3    H147149   2.480   5.994   2.730  0.0459  0.3662  1.0524
 8578TIP3    H247150   2.447   6.140   2.709  0.3708  0.1497 -1.2373
 8579TIP3   OH247151   3.945   6.433   6.576 -0.2264  0.0703  0.3040
 8579TIP3    H147152   3.969   6.474   6.660  0.8740  1.1774 -0.5163
 8579TIP3    H247153   4.021   6.447   6.520 -1.2113 -0.0406 -1.1053
 8580TIP3   OH247154   2.248   5.811   0.326  0.5530 -0.2146 -0.2538
 8580TIP3    H147155   2.217   5.732   0.370 -2.6376  0.6235 -0.7951
 8580TIP3    H247156   2.231   5.882   0.387 -2.3012  0.7305 -1.9327
 8581TIP3   OH247157   3.142   2.445   2.377  0.0761  0.9301  0.1345
 8581TIP3    H147158   3.185   2.362   2.355 -1.3453 -0.3973  2.0096
 8581TIP3    H247159   3.087   2.464   2.301  1.1054  0.6601 -0.7053
 8582TIP3   OH247160   4.047   2.502  13.969 -0.4588  0.1440 -0.1173
 8582TIP3    H147161   4.093   2.463  14.043 -1.2700 -1.5273 -0.4384
 8582TIP3    H247162   4.116   2.529  13.909  0.1577  0.0891  0.5521
 8583TIP3   OH247163   2.122   6.761  10.732  0.1606  0.2862 -0.6298
 8583TIP3    H147164   2.216   6.773  10.744  0.1498  1.4216 -1.5019
 8583TIP3    H247165   2.114   6.698  10.661  0.2323 -1.3257  0.7390
 8584TIP3   OH247166   3.456   4.023   5.006  0.0105  0.5616  0.0071
 8584TIP3    H147167   3.378   4.065   4.968 -0.4456 -1.5934 -1.6442
 8584TIP3    H247168   3.428   3.996   5.093 -0.7005  0.8940 -0.1078
 8585TIP3   OH247169   1.470   0.171  16.031  0.3066  0.3100 -0.3565
 8585TIP3    H147170   1.559   0.178  16.064  0.2777 -1.0270  0.0763
 8585TIP3    H247171   1.480   0.136  15.943  0.2208  0.5760 -0.4728
 8586TIP3   OH247172   2.413   2.814   5.112  0.0448 -0.0976 -0.7758
 8586TIP3    H147173   2.383   2.756   5.183  0.1760 -0.0095 -0.6465
 8586TIP3    H247174   2.370   2.897   5.130 -0.0801 -0.1313 -0.9162
 8587TIP3   OH247175   2.820   2.265   3.550  0.4637 -0.3362 -0.1796
 8587TIP3    H147176   2.785   2.214   3.624  0.5596 -1.2917 -0.7838
 8587TIP3    H247177   2.893   2.213   3.518  0.9853  0.5222 -0.3933
 8588TIP3   OH247178   4.192   4.954   6.339 -0.1952 -0.0177 -0.1024
 8588TIP3    H147179   4.106   4.995   6.335 -0.5836 -0.7960  0.0868
 8588TIP3    H247180   4.196   4.899   6.262  0.7268  1.1124 -0.8937
 8589TIP3   OH247181   4.969   4.024  12.489 -0.1371 -0.8722  0.0266
 8589TIP3    H147182   4.894   4.070  12.527  0.6111  0.0491  0.4582
 8589TIP3    H247183   5.023   4.000  12.564  0.9587  0.2437 -0.3651
 8590TIP3   OH247184   6.003   2.400   4.773  0.3813  0.4710  0.3303
 8590TIP3    H147185   6.044   2.458   4.710  2.3325  0.7854  1.8183
 8590TIP3    H247186   6.060   2.324   4.777  0.8390  0.8608  2.3633
 8591TIP3   OH247187   2.450   6.509  17.143 -0.3735 -0.4433  0.5266
 8591TIP3    H147188   2.417   6.595  17.170 -0.1257  0.4599 -1.7705
 8591TIP3    H247189   2.374   6.466  17.103  0.1055 -0.1498 -0.7621
 8592TIP3   OH247190   2.187   5.761   3.405 -0.6850  0.4067  0.2890
 8592TIP3    H147191   2.109   5.796   3.363  0.1071  2.1146  0.1598
 8592TIP3    H247192   2.161   5.674   3.436 -1.5147 -0.6752 -3.0762
 8593TIP3   OH247193   3.465   5.351   0.714  0.4387  0.0501  0.1656
 8593TIP3    H147194   3.386   5.370   0.765 -0.6778  1.3836 -1.8898
 8593TIP3    H247195   3.441   5.275   0.661 -0.0179  1.2039 -1.3823
 8594TIP3   OH247196   0.548   1.183  10.427  0.2513  0.1153 -0.2998
 8594TIP3    H147197   0.523   1.254  10.485  0.1402 -0.7545  0.7625
 8594TIP3    H247198   0.633   1.153  10.461 -0.3313 -1.1285  0.1223
 8595TIP3   OH247199   1.328   5.689  14.393 -1.0358 -0.6062 -0.2362
 8595TIP3    H147200   1.330   5.664  14.301 -0.6179  1.4004 -0.8367
 8595TIP3    H247201   1.298   5.781  14.392 -0.2636 -0.2866  1.5621
 8596TIP3   OH247202   6.101   1.163   3.553 -0.1027 -0.6590  0.3501
 8596TIP3    H147203   6.050   1.177   3.473  0.4014 -1.5044 -0.1339
 8596TIP3    H247204   6.048   1.203   3.622 -0.6437 -0.0883 -0.3657
 8597TIP3   OH247205   1.067   6.741  15.474  0.1396 -0.0651 -0.0104
 8597TIP3    H147206   1.086   6.696  15.391 -1.7161 -1.4076  0.2404
 8597TIP3    H247207   1.149   6.785  15.496  0.9691 -0.4434 -2.0747
 8598TIP3   OH247208   0.170   4.205   1.986  0.7857 -0.2527 -0.4413
 8598TIP3    H147209   0.261   4.202   2.015 -0.1136  0.1274  2.8449
 8598TIP3    H247210   0.166   4.281   1.927  2.6678 -0.6577 -1.1487
 8599TIP3   OH247211   4.148   3.029   0.591  0.5344  0.5717  0.2104
 8599TIP3    H147212   4.207   3.001   0.661  2.0790  0.2159 -1.1861
 8599TIP3    H247213   4.134   2.951   0.538  1.2502  1.3253 -1.1514
 8600TIP3   OH247214   2.367   6.628  15.735 -0.4738  0.1079  0.0968
 8600TIP3    H147215   2.271   6.635  15.730 -0.4446 -0.1768 -1.2515
 8600TIP3    H247216   2.398   6.678  15.660  0.3912 -0.8192 -0.1762
 8601TIP3   OH247217   0.748   3.394   3.654  0.1881 -0.0720  0.4504
 8601TIP3    H147218   0.752   3.305   3.618  1.3392 -0.3855  1.2772
 8601TIP3    H247219   0.658   3.403   3.687 -0.2168 -0.5739 -0.4838
 8602TIP3   OH247220   1.859   1.774   6.099  0.4845  0.3737 -0.6235
 8602TIP3    H147221   1.814   1.842   6.151 -2.0655 -1.8441  0.3294
 8602TIP3    H247222   1.949   1.804   6.093  0.1507  2.3923  2.3233
 8603TIP3   OH247223   0.026   2.730  11.944 -0.1094  0.2410 -0.0262
 8603TIP3    H147224   0.011   2.713  11.852 -1.6506 -1.2398  0.4676
 8603TIP3    H247225  -0.037   2.798  11.967  1.8200  2.3512 -0.5203
 8604TIP3   OH247226   0.754   4.436  14.400 -0.4812 -0.3581  0.2697
 8604TIP3    H147227   0.814   4.496  14.356  0.0357 -0.3240  0.9870
 8604TIP3    H247228   0.796   4.350  14.391  0.1709 -0.2086  1.5489
 8605TIP3   OH247229   3.490   1.604   2.068  0.5489 -0.1312 -0.7236
 8605TIP3    H147230   3.569   1.656   2.054  1.3999 -1.4111 -0.7842
 8605TIP3    H247231   3.521   1.521   2.102 -0.7292 -0.8705 -1.2824
 8606TIP3   OH247232   5.385   1.074  11.355 -0.0446  0.1315  0.1446
 8606TIP3    H147233   5.425   1.149  11.398  1.3558 -1.9588  2.8812
 8606TIP3    H247234   5.447   1.048  11.287 -0.4434  1.2544 -0.6804
 8607TIP3   OH247235   5.293   3.083  15.980  0.2830  0.0552 -0.0880
 8607TIP3    H147236   5.225   3.036  15.931  0.9491 -1.2614  0.2074
 8607TIP3    H247237   5.244   3.146  16.034 -0.5078  1.0649 -1.8771
 8608TIP3   OH247238   3.914   2.754  11.491  0.1474  0.6114 -0.0612
 8608TIP3    H147239   3.947   2.665  11.477 -0.8749  0.1067  0.5643
 8608TIP3    H247240   3.866   2.775  11.412  0.6217  0.7217 -0.3233
 8609TIP3   OH247241   1.827   3.971  15.205  0.3422 -0.7580  0.2822
 8609TIP3    H147242   1.794   3.884  15.184 -1.7242 -0.4904  2.0882
 8609TIP3    H247243   1.775   4.030  15.151 -0.6369 -0.4673  1.5098
 8610TIP3   OH247244   4.539   0.557   2.274 -0.4128  0.4522  0.0752
 8610TIP3    H147245   4.557   0.621   2.342 -1.1891 -0.8462  1.5636
 8610TIP3    H247246   4.520   0.476   2.321  2.0513 -1.3569 -1.7333
 8611TIP3   OH247247   3.893   5.820   4.215 -0.6694 -0.0003  0.1739
 8611TIP3    H147248   3.844   5.754   4.264  0.5747 -1.1848 -0.1314
 8611TIP3    H247249   3.831   5.851   4.149 -0.4782 -2.9657 -1.5655
 8612TIP3   OH247250   5.461   4.431  12.578 -0.0093 -0.2154 -0.0200
 8612TIP3    H147251   5.456   4.405  12.486  1.3932 -1.8356  0.3072
 8612TIP3    H247252   5.418   4.360  12.625 -1.0305  0.7664  0.5906
 8613TIP3   OH247253   2.755   4.436   3.098  0.7287 -0.2835 -0.0392
 8613TIP3    H147254   2.700   4.493   3.153 -0.5198 -1.0525 -0.4616
 8613TIP3    H247255   2.806   4.497   3.044 -2.1454  0.5250 -2.0516
 8614TIP3   OH247256   1.778   4.843   0.553  0.0855  0.0779 -0.5789
 8614TIP3    H147257   1.697   4.799   0.529 -0.8307  2.1767 -1.6251
 8614TIP3    H247258   1.754   4.900   0.626  1.0287 -0.4345  0.1665
 8615TIP3   OH247259   2.165   3.609   1.438 -0.0495  0.3438 -0.1778
 8615TIP3    H147260   2.174   3.704   1.445 -0.0577  0.3204  0.1590
 8615TIP3    H247261   2.142   3.580   1.526  0.4667 -0.0264 -0.1606
 8616TIP3   OH247262   0.617   6.041  10.829 -0.5207  0.2904 -0.0613
 8616TIP3    H147263   0.697   6.089  10.806 -0.1371  0.1571  0.9532
 8616TIP3    H247264   0.584   6.009  10.745 -1.5890  3.4502 -0.9887
 8617TIP3   OH247265   2.809   6.438   4.541 -0.1765 -0.5292 -0.8253
 8617TIP3    H147266   2.893   6.449   4.587 -0.0730  1.0841 -1.3369
 8617TIP3    H247267   2.825   6.368   4.478  0.8585 -0.1091 -1.0491
 8618TIP3   OH247268   4.079   2.895  15.490  0.4680 -0.0294  0.4186
 8618TIP3    H147269   4.029   2.818  15.516 -0.6057  0.7741  0.8179
 8618TIP3    H247270   4.168   2.879  15.523  0.2400 -1.0478  0.5579
 8619TIP3   OH247271   3.332   0.576   5.807  0.0865 -0.0132 -0.1325
 8619TIP3    H147272   3.409   0.586   5.864 -0.5079  0.5675  0.5930
 8619TIP3    H247273   3.363   0.523   5.734  1.5043  1.2213 -0.4647
 8620TIP3   OH247274   0.724   6.445  13.265  0.2378 -0.1550 -0.0631
 8620TIP3    H147275   0.671   6.518  13.297  2.2747  2.0476 -1.4517
 8620TIP3    H247276   0.764   6.478  13.185  1.8034 -2.5857 -0.3639
 8621TIP3   OH247277   5.809   0.897  17.077  0.3818  0.3461  0.0000
 8621TIP3    H147278   5.850   0.815  17.105 -1.1758 -0.1364  1.0034
 8621TIP3    H247279   5.789   0.943  17.159 -2.0604  0.0293 -0.3541
 8622TIP3   OH247280   0.479   4.667  16.475  0.6141  0.0261  0.4969
 8622TIP3    H147281   0.388   4.681  16.500  0.9288  0.7175  1.2939
 8622TIP3    H247282   0.529   4.726  16.532  1.3941  1.3586 -1.4686
 8623TIP3   OH247283   4.848   0.501   2.127 -0.0544 -0.9808 -0.2282
 8623TIP3    H147284   4.850   0.420   2.075 -1.2976 -2.0244  1.2664
 8623TIP3    H247285   4.759   0.504   2.163 -0.0936  1.1688 -0.3842
 8624TIP3   OH247286   4.663   4.029   3.625  0.5851  0.3486 -0.2200
 8624TIP3    H147287   4.640   3.942   3.658  0.4606  0.2337 -0.6077
 8624TIP3    H247288   4.669   4.083   3.704 -1.5274  0.4994 -0.1169
 8625TIP3   OH247289   1.486   6.295   4.205 -0.3339 -0.0865 -0.3313
 8625TIP3    H147290   1.541   6.239   4.149 -0.0450 -0.4740  0.3277
 8625TIP3    H247291   1.403   6.301   4.159 -0.1018 -0.4017 -0.8029
 8626TIP3   OH247292   5.114   6.281   1.789 -0.2748 -0.1757 -0.3720
 8626TIP3    H147293   5.029   6.269   1.748 -0.7057 -0.8339  0.6974
 8626TIP3    H247294   5.139   6.371   1.765 -1.8083  0.4662  0.2830
 8627TIP3   OH247295   2.323   2.581   6.247  0.2614 -0.6188 -0.2797
 8627TIP3    H147296   2.305   2.661   6.297  0.5061 -0.6540 -0.1385
 8627TIP3    H247297   2.250   2.523   6.268 -0.3498 -0.1386 -1.0008
 8628TIP3   OH247298   4.221   0.574  16.423  0.2500  0.6880  0.1840
 8628TIP3    H147299   4.182   0.537  16.344  1.5636 -1.2478  0.3736
 8628TIP3    H247300   4.302   0.617  16.393 -1.0460  3.2180  0.0266
 8629TIP3   OH247301   0.813   2.133  15.783  0.4563 -0.0620 -0.2900
 8629TIP3    H147302   0.890   2.130  15.839  0.4413 -0.0321 -0.2678
 8629TIP3    H247303   0.820   2.216  15.737  0.5845 -0.1842 -0.4947
 8630TIP3   OH247304   4.996   1.993   4.677  0.5942 -0.8788  0.0585
 8630TIP3    H147305   5.090   1.990   4.657  0.5149 -0.6429 -0.3785
 8630TIP3    H247306   4.954   1.967   4.595  0.2226  1.3659 -0.5366
 8631TIP3   OH247307   4.300   3.770  12.517 -0.2595  0.1048 -0.7804
 8631TIP3    H147308   4.370   3.743  12.457 -0.4631  1.4067 -1.6451
 8631TIP3    H247309   4.338   3.757  12.604 -0.0106 -1.9412 -1.1447
 8632TIP3   OH247310   2.368   1.401   6.646 -0.6834  0.0939  0.2716
 8632TIP3    H147311   2.433   1.343   6.607 -3.1245 -0.7733 -2.9469
 8632TIP3    H247312   2.414   1.484   6.658  1.6608 -1.1755  0.6436
 8633TIP3   OH247313   3.280   0.419   3.467 -0.1134  0.1040  0.0200
 8633TIP3    H147314   3.227   0.380   3.398 -0.4908 -0.2173  0.4833
 8633TIP3    H247315   3.218   0.468   3.520  0.0341 -0.3067  0.5872
 8634TIP3   OH247316   3.244   2.733   5.226  0.2187  0.2093  0.8989
 8634TIP3    H147317   3.320   2.790   5.214 -0.4402  1.5253  2.6475
 8634TIP3    H247318   3.168   2.791   5.215 -0.6055 -1.1001 -0.9656
 8635TIP3   OH247319   2.096   5.566  13.617 -0.4112  0.5251 -0.5529
 8635TIP3    H147320   2.190   5.551  13.606 -0.0671  1.9372  0.2938
 8635TIP3    H247321   2.081   5.558  13.711 -0.7877  2.1606 -0.4540
 8636TIP3   OH247322   3.313   5.191  15.456 -0.2566 -0.3758  0.2049
 8636TIP3    H147323   3.327   5.099  15.434  3.6170  0.2529 -0.8144
 8636TIP3    H247324   3.338   5.197  15.548 -1.7992 -0.4809  0.6636
 8637TIP3   OH247325   5.821   4.252   4.463  0.0324  0.0114 -0.0130
 8637TIP3    H147326   5.810   4.347   4.471 -1.2213 -0.1743  0.9125
 8637TIP3    H247327   5.769   4.229   4.385 -3.2038 -0.3500  2.0528
 8638TIP3   OH247328   5.393   1.826  13.604 -0.2365  0.0068  0.3882
 8638TIP3    H147329   5.449   1.854  13.531  0.8987 -0.3965  1.0821
 8638TIP3    H247330   5.450   1.771  13.658 -1.5181 -1.0321  0.7361
 8639TIP3   OH247331   1.195   6.127   4.996 -0.6264  0.2447  0.6897
 8639TIP3    H147332   1.156   6.103   4.912  1.2131 -2.1155  0.3975
 8639TIP3    H247333   1.214   6.220   4.988 -1.6862  0.3656 -0.9754
 8640TIP3   OH247334   6.203   0.353  14.782  0.4151 -0.2658  0.1709
 8640TIP3    H147335   6.262   0.388  14.848 -0.6646  0.3656  0.8202
 8640TIP3    H247336   6.251   0.363  14.700  0.9216  0.9057  0.5879
 8641TIP3   OH247337   5.549   4.089   4.606 -0.5969  0.2506 -0.2051
 8641TIP3    H147338   5.573   4.005   4.646  1.1883  0.5816 -0.5089
 8641TIP3    H247339   5.612   4.101   4.536 -0.8132  1.8693 -0.1558
 8642TIP3   OH247340   1.085   6.770   0.715  0.2537 -0.3060  1.2604
 8642TIP3    H147341   0.992   6.787   0.730 -0.0397  0.2734 -0.9529
 8642TIP3    H247342   1.089   6.728   0.629  2.0400 -0.3447  1.3152
 8643TIP3   OH247343   4.915   5.019  13.693  0.7801 -0.4723  0.4947
 8643TIP3    H147344   4.856   5.092  13.710 -1.1650 -2.1555  1.4335
 8643TIP3    H247345   4.873   4.970  13.623  0.7733 -1.9753  1.5133
 8644TIP3   OH247346   0.226   2.192  14.680  0.0442 -0.7772 -0.2134
 8644TIP3    H147347   0.319   2.207  14.661  0.0002  0.2425  0.3108
 8644TIP3    H247348   0.184   2.190  14.595  0.3533  0.1979 -0.4037
 8645TIP3   OH247349   1.267   6.012   3.768 -0.2594  0.7202 -0.1384
 8645TIP3    H147350   1.272   6.031   3.674 -1.2134  1.8297  0.0091
 8645TIP3    H247351   1.318   5.932   3.779 -1.5049 -0.3925 -1.8670
 8646TIP3   OH247352   5.128   0.076  14.071 -0.1457  0.4829 -0.0725
 8646TIP3    H147353   5.202   0.103  14.017  1.0544 -0.7734  0.8583
 8646TIP3    H247354   5.163   0.071  14.160 -1.3858  0.0042  0.4221
 8647TIP3   OH247355   5.295   3.600  10.744  0.3712 -1.0063  0.4759
 8647TIP3    H147356   5.200   3.588  10.736 -0.0909  1.9551  0.3282
 8647TIP3    H247357   5.332   3.541  10.678 -1.5418 -0.4839 -1.1919
 8648TIP3   OH247358   5.875   2.551  14.858 -0.1510 -0.1999  0.2191
 8648TIP3    H147359   5.825   2.574  14.936 -1.3634  0.8766 -0.8310
 8648TIP3    H247360   5.899   2.635  14.820  0.9018 -0.7172 -0.2820
 8649TIP3   OH247361   3.808   6.528   6.008 -0.0810  0.2770  0.0122
 8649TIP3    H147362   3.810   6.592   6.079 -1.2680 -0.6442  0.9160
 8649TIP3    H247363   3.843   6.448   6.047 -0.6594 -0.2153 -0.4656
 8650TIP3   OH247364   3.750   6.508   2.692  0.0908 -0.5405 -0.0169
 8650TIP3    H147365   3.748   6.530   2.599 -0.4562  1.0582  0.3257
 8650TIP3    H247366   3.801   6.428   2.698  1.0353 -0.0860 -1.5885
 8651TIP3   OH247367   4.670   4.208   5.401  0.0908 -0.2075  0.0555
 8651TIP3    H147368   4.618   4.150   5.457 -0.7629 -0.0581 -0.5696
 8651TIP3    H247369   4.633   4.295   5.416  1.4492  0.2160  1.0875
 8652TIP3   OH247370   5.205   2.686  12.464 -0.5048 -0.5184 -0.2541
 8652TIP3    H147371   5.229   2.595  12.481 -1.8107 -0.5346  1.8656
 8652TIP3    H247372   5.287   2.728  12.436  1.1745 -1.3953  2.9227
 8653TIP3   OH247373   4.276   3.103   4.339 -0.6978  0.1214  0.5848
 8653TIP3    H147374   4.364   3.076   4.364  0.5259  1.5170 -1.8282
 8653TIP3    H247375   4.268   3.193   4.372 -1.2257  0.0142  0.7600
 8654TIP3   OH247376   1.798   6.464  14.021 -0.1442 -0.4035 -0.0395
 8654TIP3    H147377   1.817   6.546  13.976  0.4898 -0.1556  0.6665
 8654TIP3    H247378   1.703   6.467  14.037  0.1160  1.0108  1.5265
 8655TIP3   OH247379   5.679   5.193   2.289  0.0622  0.2977  0.3624
 8655TIP3    H147380   5.731   5.135   2.233 -1.8044 -0.1440 -1.0026
 8655TIP3    H247381   5.668   5.273   2.237  1.8353  1.6099  1.8581
 8656TIP3   OH247382   1.490   2.322   4.522  0.1516 -0.1984 -0.5450
 8656TIP3    H147383   1.439   2.402   4.533  0.8748 -0.0789  3.4955
 8656TIP3    H247384   1.572   2.351   4.484  0.7002  1.2147  1.5601
 8657TIP3   OH247385   5.031   0.175  13.323  0.5825  0.3864 -0.3341
 8657TIP3    H147386   5.029   0.229  13.402  1.4319  0.4161 -0.3228
 8657TIP3    H247387   5.118   0.190  13.285  0.2084  0.3417 -1.2538
 8658TIP3   OH247388   2.067   4.493  12.141  0.1603 -0.1418 -0.0835
 8658TIP3    H147389   2.047   4.399  12.142  1.1723 -0.3874 -1.2670
 8658TIP3    H247390   2.105   4.510  12.227 -0.9022 -0.5939  0.5002
 8659TIP3   OH247391   1.071   1.634  12.993  0.0844 -0.0350  0.0301
 8659TIP3    H147392   1.054   1.576  13.067 -2.8013  1.1232  0.3988
 8659TIP3    H247393   1.092   1.719  13.033 -0.5761  0.3727 -0.4748
 8660TIP3   OH247394   1.061   1.277   5.279  0.3340 -0.1041 -0.0482
 8660TIP3    H147395   1.102   1.326   5.208  1.0144  0.0232  0.4259
 8660TIP3    H247396   1.098   1.314   5.359 -0.9642  0.2624  0.4200
 8661TIP3   OH247397   5.892   4.756  11.019  0.3568  0.2893 -0.0813
 8661TIP3    H147398   5.942   4.675  11.032  0.9156  0.7633  0.7832
 8661TIP3    H247399   5.957   4.825  11.021 -0.1378  0.7830 -0.6798
 8662TIP3   OH247400   5.513   6.215  13.155  0.5671  0.0029 -0.7346
 8662TIP3    H147401   5.430   6.180  13.187  0.6168 -0.4299 -1.0708
 8662TIP3    H247402   5.556   6.251  13.232  0.9057 -1.4584 -0.2226
 8663TIP3   OH247403   4.749   3.998  15.899 -0.3091  0.3346 -0.4116
 8663TIP3    H147404   4.768   4.076  15.847  3.1044 -0.2906 -0.3421
 8663TIP3    H247405   4.747   4.028  15.990 -3.4475  0.9464 -0.5633
 8664TIP3   OH247406   5.214   2.084  16.771  0.6073  0.1225 -0.2040
 8664TIP3    H147407   5.298   2.042  16.752  1.2489  1.4782 -0.4756
 8664TIP3    H247408   5.227   2.129  16.854  0.3200  0.7785 -0.5049
 8665TIP3   OH247409   1.193   0.295   5.721 -0.0760 -0.6119 -0.0241
 8665TIP3    H147410   1.135   0.256   5.787 -1.3533 -1.1289 -1.3835
 8665TIP3    H247411   1.161   0.260   5.638 -0.4922  2.3109 -1.2281
 8666TIP3   OH247412   4.670   1.732  11.541 -0.6866  0.1756 -0.0561
 8666TIP3    H147413   4.684   1.696  11.454 -1.3383 -0.6576  0.1570
 8666TIP3    H247414   4.666   1.655  11.598 -2.4657  0.5176  0.3716
 8667TIP3   OH247415   1.102   5.190  11.359 -0.4069 -0.6901  0.5060
 8667TIP3    H147416   1.101   5.270  11.412 -0.5026 -0.1306 -0.3229
 8667TIP3    H247417   1.089   5.119  11.422 -0.5834 -0.0340  1.2204
 8668TIP3   OH247418   1.327   3.251  13.802 -0.1587 -0.2995 -0.0157
 8668TIP3    H147419   1.283   3.200  13.870  1.1937 -0.2850  0.9059
 8668TIP3    H247420   1.344   3.188  13.732 -1.4681 -0.3379 -0.3301
 8669TIP3   OH247421   1.346   0.600   6.519  0.0855 -0.7172  0.0675
 8669TIP3    H147422   1.343   0.668   6.586  0.2998 -0.8484  0.2118
 8669TIP3    H247423   1.382   0.644   6.442 -0.2674 -0.5382  0.0001
 8670TIP3   OH247424   5.045   3.865  13.025 -0.4062 -0.1893  0.0012
 8670TIP3    H147425   4.974   3.811  13.061 -1.8646  1.3924 -0.4002
 8670TIP3    H247426   5.112   3.864  13.093 -0.9801 -1.3617  0.5856
 8671TIP3   OH247427   1.138   3.216   2.823 -0.0442 -0.0114 -0.2080
 8671TIP3    H147428   1.206   3.242   2.761  0.0531  0.7666  0.2136
 8671TIP3    H247429   1.060   3.263   2.793  0.3318  1.4685  1.0432
 8672TIP3   OH247430   4.420   5.657   5.975 -0.7168 -0.2027  0.3014
 8672TIP3    H147431   4.408   5.747   6.007 -1.0657 -1.2807  3.5207
 8672TIP3    H247432   4.334   5.617   5.983 -0.2331 -1.2614  0.3273
 8673TIP3   OH247433   2.859   1.935   5.327 -0.5115  0.4570  0.4519
 8673TIP3    H147434   2.830   1.886   5.404  0.5529  0.0893  0.6404
 8673TIP3    H247435   2.786   1.993   5.305 -1.1026  0.0352  1.2943
 8674TIP3   OH247436   0.933   5.163  16.733 -0.1991  0.0183  0.3320
 8674TIP3    H147437   0.850   5.157  16.685 -0.5443  0.4500  0.8679
 8674TIP3    H247438   0.923   5.240  16.789  0.7680  0.3789  0.0195
 8675TIP3   OH247439   5.987   0.182   2.144 -0.3887 -0.1283 -0.5640
 8675TIP3    H147440   6.025   0.247   2.203 -1.6231  0.6694 -0.5990
 8675TIP3    H247441   6.029   0.100   2.168  2.9660  0.9755 -2.0514
 8676TIP3   OH247442   5.508   3.083   1.080  0.2169  0.0820  0.3143
 8676TIP3    H147443   5.534   3.075   0.989 -2.2447 -0.7587 -0.3776
 8676TIP3    H247444   5.534   3.000   1.120 -0.8078 -0.5076 -0.2176
 8677TIP3   OH247445   5.865   5.490   0.332  0.1076  0.2759 -0.2288
 8677TIP3    H147446   5.935   5.521   0.390  0.7541 -0.1315 -0.7795
 8677TIP3    H247447   5.891   5.521   0.245  0.2348 -0.9042 -0.6290
 8678TIP3   OH247448   2.880   0.740   1.825 -0.1953 -0.4194 -0.1379
 8678TIP3    H147449   2.897   0.772   1.913 -1.7011 -0.2471  0.1225
 8678TIP3    H247450   2.911   0.649   1.826  0.1947 -0.2827  0.4279
 8679TIP3   OH247451   4.019   3.515  16.153  0.5802  0.1481  0.0181
 8679TIP3    H147452   4.114   3.505  16.145  0.7405  2.3075 -2.0614
 8679TIP3    H247453   3.984   3.431  16.124  1.8703  0.2940 -2.3010
 8680TIP3   OH247454   6.481   0.175   4.962  0.2105 -0.0782 -0.0538
 8680TIP3    H147455   6.505   0.108   4.898  0.3972  0.9347 -1.0539
 8680TIP3    H247456   6.561   0.226   4.976  0.4999 -0.9317  1.8451
 8681TIP3   OH247457   2.888   5.903  13.091 -0.0660  0.2171 -0.1104
 8681TIP3    H147458   2.977   5.923  13.120 -0.1864  1.3853 -0.5245
 8681TIP3    H247459   2.864   5.826  13.143  1.9111 -1.4011 -1.3984
 8682TIP3   OH247460   1.904   4.896   6.314  0.2338 -0.0462 -0.1048
 8682TIP3    H147461   1.837   4.956   6.282 -0.5230  1.4389  3.6493
 8682TIP3    H247462   1.970   4.952   6.354  1.6664 -1.6315 -0.1292
 8683TIP3   OH247463   2.859   2.593   3.495  0.0430 -0.0764 -0.0308
 8683TIP3    H147464   2.920   2.666   3.501  0.5932 -0.5696  0.5318
 8683TIP3    H247465   2.910   2.523   3.454 -0.9906  0.3763 -2.2358
 8684TIP3   OH247466   4.666   1.290  12.090  0.3447  0.1670 -0.4897
 8684TIP3    H147467   4.714   1.366  12.058  0.4318  0.2357 -0.2034
 8684TIP3    H247468   4.580   1.297  12.050  0.5915  0.0040 -1.0627
 8685TIP3   OH247469   0.583   5.892  14.955 -0.3977 -0.5370  0.6384
 8685TIP3    H147470   0.495   5.856  14.969 -0.1798 -1.0560  0.6880
 8685TIP3    H247471   0.637   5.816  14.935  0.1609 -0.2857  1.1710
 8686TIP3   OH247472   3.826   5.503  12.728  0.3858  0.6115  0.4938
 8686TIP3    H147473   3.747   5.518  12.779  1.1612  1.2785  1.5383
 8686TIP3    H247474   3.794   5.474  12.642 -0.9410 -0.9449  1.4528
 8687TIP3   OH247475   6.037   5.179  16.568  0.3148 -0.1821 -0.2770
 8687TIP3    H147476   5.975   5.226  16.623 -0.9479 -1.4671 -0.5616
 8687TIP3    H247477   6.062   5.242  16.501  1.0179  1.0413  1.0826
 8688TIP3   OH247478   3.684   0.803  12.261 -0.3454 -0.7712  0.3077
 8688TIP3    H147479   3.742   0.754  12.203 -1.2870  0.5796 -1.8711
 8688TIP3    H247480   3.707   0.772  12.349  1.3112 -2.7060 -0.7219
 8689TIP3   OH247481   0.904   3.591   4.206  0.0881 -0.2347 -0.1890
 8689TIP3    H147482   0.886   3.499   4.188  0.1843 -0.2314 -0.3021
 8689TIP3    H247483   0.916   3.596   4.301 -1.4815 -0.0797  0.0271
 8690TIP3   OH247484   4.965   3.957  11.257  0.1263  0.6965  0.6384
 8690TIP3    H147485   5.021   3.974  11.333  0.2253 -0.4642  0.8494
 8690TIP3    H247486   4.968   3.861  11.247 -0.4936  0.7740 -0.3637
 8691TIP3   OH247487   4.580   2.853   2.766 -0.3246 -0.1920  0.1523
 8691TIP3    H147488   4.635   2.821   2.695  2.9676  0.5789  2.1035
 8691TIP3    H247489   4.574   2.947   2.750 -0.6839 -0.2120  0.1783
 8692TIP3   OH247490   3.868   2.146   1.670  0.2128 -0.1560 -0.5192
 8692TIP3    H147491   3.776   2.156   1.645  0.3156  2.6598 -0.0475
 8692TIP3    H247492   3.881   2.051   1.675 -2.5323 -0.6394 -1.0156
 8693TIP3   OH247493   1.304   3.410   1.429  0.8091  0.3785  0.5348
 8693TIP3    H147494   1.285   3.495   1.468 -2.1431  0.0498  0.0319
 8693TIP3    H247495   1.319   3.428   1.337 -0.1018  0.3484  0.3742
 8694TIP3   OH247496   0.302   3.058   5.321  0.1904  0.2399  0.4964
 8694TIP3    H147497   0.333   2.993   5.384 -0.8378  0.0245  0.7910
 8694TIP3    H247498   0.294   3.010   5.239 -1.0989 -0.1539  0.8400
 8695TIP3   OH247499   0.590   3.848   2.642  0.0554 -0.3759 -0.1519
 8695TIP3    H147500   0.502   3.846   2.603 -1.3400 -1.8994  2.7291
 8695TIP3    H247501   0.627   3.762   2.623  0.9283  0.2117 -1.2324
 8696TIP3   OH247502   1.577   5.855   1.412  0.3129 -0.3695  0.3386
 8696TIP3    H147503   1.594   5.763   1.392 -0.7826 -0.4414 -0.3686
 8696TIP3    H247504   1.491   5.872   1.373  1.3843  1.5122 -1.4105
 8697TIP3   OH247505   5.287   6.129   2.989 -0.2536  0.3853  0.2568
 8697TIP3    H147506   5.290   6.223   2.974 -0.5000  0.1898 -1.1926
 8697TIP3    H247507   5.303   6.119   3.083  2.1080  1.7153  0.0706
 8698TIP3   OH247508   3.344   0.210   1.873  0.0874  0.5640 -0.4042
 8698TIP3    H147509   3.411   0.152   1.836  1.0552  1.0064  0.6036
 8698TIP3    H247510   3.274   0.210   1.807  1.2355  0.4224 -1.6804
 8699TIP3   OH247511   6.233   5.716   1.957 -0.8508 -0.0727 -0.3521
 8699TIP3    H147512   6.263   5.652   1.892 -0.8915 -0.9181  0.4381
 8699TIP3    H247513   6.138   5.705   1.959 -0.7509 -0.9387  0.7185
 8700TIP3   OH247514   1.976   3.807  15.713  0.0668  0.0941 -0.4066
 8700TIP3    H147515   1.963   3.859  15.633 -0.7490  0.9643  0.2616
 8700TIP3    H247516   1.906   3.742  15.711 -1.8722  1.9866  1.0069
 8701TIP3   OH247517   0.562   5.416  15.789 -0.3777  0.5578 -0.4585
 8701TIP3    H147518   0.527   5.327  15.789 -1.7203  1.0528 -0.4793
 8701TIP3    H247519   0.633   5.414  15.725  0.5997 -0.8353  0.6082
 8702TIP3   OH247520   6.750   4.198  15.709 -0.0488 -0.1056  0.0597
 8702TIP3    H147521   6.704   4.115  15.722  1.3081 -0.8979 -0.0227
 8702TIP3    H247522   6.798   4.212  15.790  0.1164  0.3437 -0.1111
 8703TIP3   OH247523   1.183   3.559   5.620 -0.1443 -0.0258  0.3910
 8703TIP3    H147524   1.276   3.584   5.622 -0.1354  0.2631 -1.5572
 8703TIP3    H247525   1.145   3.600   5.698  1.0372  1.2411  0.3305
 8704TIP3   OH247526   5.601   6.347   1.685 -0.0657 -0.5318  0.0065
 8704TIP3    H147527   5.620   6.253   1.677  0.2043 -0.4152 -0.7250
 8704TIP3    H247528   5.553   6.369   1.605  0.2402  0.0450 -0.0178
 8705TIP3   OH247529   3.407   5.963   3.920 -0.0714  0.0789 -0.1620
 8705TIP3    H147530   3.344   5.913   3.868 -1.2571  1.5803 -0.2253
 8705TIP3    H247531   3.440   6.030   3.860 -0.4422  0.9677  0.5917
 8706TIP3   OH247532   4.033   3.817  11.302 -0.0830  0.2159 -0.3024
 8706TIP3    H147533   4.100   3.861  11.249 -0.2276 -0.2701 -0.8912
 8706TIP3    H247534   4.010   3.739  11.253 -1.5571  0.7057 -0.4342
 8707TIP3   OH247535   0.111   5.912  14.732 -0.0797  0.0367  0.6352
 8707TIP3    H147536   0.165   5.938  14.657 -0.3822 -0.3929  0.2654
 8707TIP3    H247537   0.132   5.977  14.800 -0.0169  0.6048  0.0858
 8708TIP3   OH247538   2.889   4.369  17.023  0.1416 -0.2475  0.0426
 8708TIP3    H147539   2.817   4.381  17.085  0.2991 -0.0417  0.1868
 8708TIP3    H247540   2.968   4.385  17.075  0.3473 -1.5500  0.1534
 8709TIP3   OH247541   0.142   4.971  13.717  0.1665 -0.1296  0.0164
 8709TIP3    H147542   0.144   4.956  13.812  2.0615  2.4445  0.4786
 8709TIP3    H247543   0.233   4.968  13.690  0.0655  2.8097 -1.0051
 8710TIP3   OH247544   3.726   1.305  16.838 -0.1801 -0.1956 -0.3305
 8710TIP3    H147545   3.803   1.334  16.789 -0.7370  0.7018 -0.6877
 8710TIP3    H247546   3.704   1.220  16.800  0.7694 -0.5840 -0.0556
 8711TIP3   OH247547   1.479   5.373  12.805  0.1085  0.2360 -0.1789
 8711TIP3    H147548   1.503   5.461  12.836  1.7049  0.3891 -1.6581
 8711TIP3    H247549   1.394   5.386  12.762 -0.0044  0.9169  0.2289
 8712TIP3   OH247550   6.378   6.527   4.934 -0.5378  0.3334  0.2951
 8712TIP3    H147551   6.370   6.577   5.015  1.0820 -0.2794  0.8589
 8712TIP3    H247552   6.433   6.582   4.877 -0.1808 -0.0418  0.2784
 8713TIP3   OH247553   5.462   3.395  16.035 -0.1147 -0.3153  0.3045
 8713TIP3    H147554   5.442   3.305  16.011  0.6089 -0.3181 -0.3378
 8713TIP3    H247555   5.558   3.397  16.044 -0.2277  0.0880  1.5948
 8714TIP3   OH247556   3.978   5.492  14.802 -0.1605  0.6716  0.0201
 8714TIP3    H147557   4.018   5.410  14.773 -0.2732  0.6692 -0.1303
 8714TIP3    H247558   3.938   5.470  14.886  0.0465  0.6425  0.1120
 8715TIP3   OH247559   2.967   2.808  12.067  0.6842 -0.1584  0.5645
 8715TIP3    H147560   3.051   2.778  12.102  0.0088 -1.2210  1.2996
 8715TIP3    H247561   2.911   2.821  12.143 -0.3059 -0.9654 -0.0005
 8716TIP3   OH247562   0.841   0.309  13.418 -0.8887 -0.2077  0.0037
 8716TIP3    H147563   0.920   0.350  13.454  2.4585 -3.8674 -2.4206
 8716TIP3    H247564   0.812   0.369  13.350  0.5253  0.7361  0.1864
 8717TIP3   OH247565   4.295   2.044   0.739 -0.7646 -0.1214 -0.6946
 8717TIP3    H147566   4.388   2.062   0.721 -0.4892 -1.5265 -0.7682
 8717TIP3    H247567   4.293   2.016   0.830 -0.9633 -1.0694 -0.9833
 8718TIP3   OH247568   1.965   5.648   5.895 -0.6124 -0.4269 -0.0331
 8718TIP3    H147569   2.008   5.574   5.940  1.3881  0.2345 -0.7219
 8718TIP3    H247570   2.038   5.702   5.865 -1.9394  0.3039 -2.1312
 8719TIP3   OH247571   0.669   6.763  16.957  0.1611  0.2223  0.2248
 8719TIP3    H147572   0.679   6.701  16.885 -0.1060  0.3782  0.0466
 8719TIP3    H247573   0.642   6.845  16.914  0.7781  0.5404  0.4259
 8720TIP3   OH247574   6.369   0.640   2.909 -0.3718 -0.5498  0.0682
 8720TIP3    H147575   6.439   0.584   2.942 -0.5020 -1.1825 -0.6945
 8720TIP3    H247576   6.355   0.610   2.819 -0.8286  0.3449 -0.1641
 8721TIP3   OH247577   2.178   3.055   5.997  0.4020 -0.0833 -0.3162
 8721TIP3    H147578   2.127   2.992   6.048  0.8029 -1.4687 -1.5561
 8721TIP3    H247579   2.240   3.092   6.059 -0.4311 -0.2426  0.6354
 8722TIP3   OH247580   2.960   1.932   1.135 -0.2157  0.1219 -0.1335
 8722TIP3    H147581   2.895   1.986   1.090 -0.6641  0.5943  1.0610
 8722TIP3    H247582   3.042   1.953   1.091 -0.7927 -0.2951 -1.4949
 8723TIP3   OH247583   2.767   1.599   2.361  0.0299  0.4028 -0.0607
 8723TIP3    H147584   2.814   1.638   2.435  0.5051 -0.8161  0.3129
 8723TIP3    H247585   2.821   1.621   2.285  1.3669 -1.1339  0.3851
 8724TIP3   OH247586   0.258   3.869  12.329 -0.5085  0.1931 -0.4031
 8724TIP3    H147587   0.340   3.825  12.308  0.1702  1.6052 -0.7914
 8724TIP3    H247588   0.284   3.954  12.364 -1.7791  0.0734  0.9215
 8725TIP3   OH247589   4.415   2.939   0.931  0.1530  0.3132  0.1942
 8725TIP3    H147590   4.421   2.904   0.842  1.0390  1.0918 -0.0679
 8725TIP3    H247591   4.429   3.033   0.921 -2.1453  0.7894  0.8864
 8726TIP3   OH247592   6.662   2.352  12.286  0.0296 -0.0171 -0.0490
 8726TIP3    H147593   6.677   2.358  12.191  2.0667 -0.0647  0.2296
 8726TIP3    H247594   6.607   2.274  12.296 -0.0767 -0.1094 -1.1760
 8727TIP3   OH247595   2.114   6.539   4.171 -0.1042 -0.0877  0.0009
 8727TIP3    H147596   2.132   6.627   4.138 -0.4559  0.3142  0.8419
 8727TIP3    H247597   2.047   6.505   4.111 -1.4703  1.0105  0.8101
 8728TIP3   OH247598   0.334   5.602   3.621 -0.0431  0.7489 -0.4973
 8728TIP3    H147599   0.268   5.577   3.687 -0.1433  2.2252 -0.0053
 8728TIP3    H247600   0.349   5.522   3.571 -0.6366 -0.1798  0.7494
 8729TIP3   OH247601   5.109   1.117   2.216 -0.4125  0.5110 -0.1508
 8729TIP3    H147602   5.098   1.178   2.290  1.0391  0.8107 -0.1657
 8729TIP3    H247603   5.109   1.172   2.139  0.8556  0.4928 -0.1695
 8730TIP3   OH247604   0.672   1.599   0.930  0.9622 -0.1998  0.5026
 8730TIP3    H147605   0.695   1.518   0.976 -0.6931 -0.5177  0.8368
 8730TIP3    H247606   0.654   1.571   0.840  1.9822  0.0775  0.1931
 8731TIP3   OH247607   4.090   5.351   1.951 -0.1089 -0.0862  0.2243
 8731TIP3    H147608   4.143   5.431   1.946  2.0064 -1.4559 -0.5964
 8731TIP3    H247609   4.125   5.303   2.026 -3.6252  1.1603  2.8940
 8732TIP3   OH247610   5.441   3.549   4.489  0.0668 -0.2607 -0.2188
 8732TIP3    H147611   5.431   3.457   4.465 -0.1236 -0.7439  1.5441
 8732TIP3    H247612   5.355   3.574   4.524  0.2942  0.4162 -0.1309
 8733TIP3   OH247613   5.148   5.564   4.849  0.3212 -0.3557 -0.2160
 8733TIP3    H147614   5.145   5.496   4.916  1.1151 -1.7277 -1.5066
 8733TIP3    H247615   5.167   5.517   4.768  4.3159  1.6619 -0.7033
 8734TIP3   OH247616   2.545   1.102   3.520  0.2489  0.0069  0.0758
 8734TIP3    H147617   2.493   1.132   3.594 -0.6773  0.0285 -0.5596
 8734TIP3    H247618   2.556   1.008   3.535 -1.6711 -0.4016 -0.7387
 8735TIP3   OH247619   4.317   6.098   1.304 -0.1908 -0.0791 -0.4546
 8735TIP3    H147620   4.364   6.142   1.233 -0.7323  1.0679 -0.1349
 8735TIP3    H247621   4.228   6.133   1.299 -0.8939 -1.8145 -0.7188
 8736TIP3   OH247622   6.355   3.845  14.792 -0.4364 -0.2434 -0.2339
 8736TIP3    H147623   6.312   3.772  14.747 -3.2712  0.2234  1.4461
 8736TIP3    H247624   6.399   3.804  14.867 -0.6814 -0.3984 -0.1734
 8737TIP3   OH247625   1.124   1.230   3.471  0.3423  0.1243  0.9406
 8737TIP3    H147626   1.052   1.243   3.533  0.3841 -2.2220  1.6070
 8737TIP3    H247627   1.201   1.267   3.515  0.1494 -0.4550  1.7899
 8738TIP3   OH247628   0.876   1.809  15.813  0.0015  0.1343 -0.0573
 8738TIP3    H147629   0.831   1.892  15.803  0.1663  0.6792  2.8766
 8738TIP3    H247630   0.917   1.793  15.728 -1.9679  1.8324 -1.4114
 8739TIP3   OH247631   5.080   0.648   3.183  0.1824  0.3597  0.5013
 8739TIP3    H147632   5.107   0.735   3.154  0.1452  0.4022  0.5940
 8739TIP3    H247633   4.987   0.656   3.201  0.4862  0.7432  2.0947
 8740TIP3   OH247634   0.745   3.169   4.790  0.8334 -0.3910  0.4183
 8740TIP3    H147635   0.761   3.239   4.853  1.5758 -1.7743  1.8299
 8740TIP3    H247636   0.701   3.101   4.840 -0.5426 -0.6700 -1.0971
 8741TIP3   OH247637   1.167   3.766  16.939  0.3000 -0.0031 -0.2285
 8741TIP3    H147638   1.242   3.809  16.898  0.1336  1.6381  1.0696
 8741TIP3    H247639   1.123   3.721  16.867  0.8553  1.4976 -1.5758
 8742TIP3   OH247640   5.882   4.439  14.615 -0.5386  0.2031 -0.3943
 8742TIP3    H147641   5.816   4.443  14.547  0.7209 -4.0586 -2.1506
 8742TIP3    H247642   5.959   4.480  14.576 -1.0298  1.9749  0.3606
 8743TIP3   OH247643   1.558   5.047  16.100  0.1565 -1.0125 -0.1948
 8743TIP3    H147644   1.538   5.094  16.182 -1.5061  0.1094 -1.1728
 8743TIP3    H247645   1.527   5.106  16.031  0.9387 -2.2118 -1.6218
 8744TIP3   OH247646   3.745   4.843   3.270 -0.3543  0.3488 -0.3565
 8744TIP3    H147647   3.806   4.769   3.266 -1.0641 -0.2804  0.0379
 8744TIP3    H247648   3.702   4.833   3.355 -1.2351  0.5775 -0.7684
 8745TIP3   OH247649   6.337   5.739   5.454 -0.0109  0.6321  0.0886
 8745TIP3    H147650   6.284   5.739   5.374 -1.0847 -0.9131  0.7451
 8745TIP3    H247651   6.399   5.811   5.442 -1.1195  1.3838 -1.4795
 8746TIP3   OH247652   5.375   0.361  12.351 -0.5158 -0.3856  0.6293
 8746TIP3    H147653   5.328   0.444  12.344  1.7297  0.9909  0.8804
 8746TIP3    H247654   5.412   0.346  12.263 -1.6930 -1.6533  0.3197
 8747TIP3   OH247655   4.524   2.584  16.538 -0.4278  0.2669 -0.0277
 8747TIP3    H147656   4.468   2.648  16.493 -2.5467 -0.5532  1.2948
 8747TIP3    H247657   4.466   2.542  16.601  1.0797 -2.4733 -0.3300
 8748TIP3   OH247658   5.509   3.470  11.449 -0.5101  0.2376 -0.3019
 8748TIP3    H147659   5.513   3.489  11.355 -0.3937  0.1372 -0.3173
 8748TIP3    H247660   5.544   3.549  11.491 -1.7834  0.8178 -0.2809
 8749TIP3   OH247661   1.127   2.339   1.296 -0.4468  0.6514  0.1110
 8749TIP3    H147662   1.061   2.402   1.325  0.4275  1.3028  0.7429
 8749TIP3    H247663   1.165   2.377   1.218 -3.0831 -1.2932 -2.3530
 8750TIP3   OH247664   6.169   2.849  15.714 -0.6475  0.3209 -0.9425
 8750TIP3    H147665   6.126   2.824  15.796  0.8582 -1.4435 -0.6384
 8750TIP3    H247666   6.243   2.904  15.740 -0.9259  0.8530 -1.2412
 8751TIP3   OH247667   3.105   2.146  11.936  0.4170 -0.1044  0.6209
 8751TIP3    H147668   3.135   2.096  11.861 -0.7961 -2.0160  1.3429
 8751TIP3    H247669   3.172   2.134  12.002  1.5671  1.7125 -0.1275
 8752TIP3   OH247670   0.425   2.952   5.997 -0.2490  0.2250 -0.1380
 8752TIP3    H147671   0.441   2.914   6.083 -2.9517 -1.7815 -0.3989
 8752TIP3    H247672   0.510   2.945   5.952  0.4204 -1.7179  1.2731
 8753TIP3   OH247673   3.052   4.567  16.884  0.0821 -0.2328  0.4392
 8753TIP3    H147674   2.976   4.518  16.914 -1.0325  1.2160  0.0710
 8753TIP3    H247675   3.085   4.517  16.809 -3.1703  1.2771 -2.2426
 8754TIP3   OH247676   2.717   3.985  16.933  0.2861  0.0639  0.1322
 8754TIP3    H147677   2.807   3.959  16.910 -0.2043 -2.0984  0.4284
 8754TIP3    H247678   2.664   3.909  16.909 -1.3488  0.9175  0.9079
 8755TIP3   OH247679   5.883   3.079  16.919 -0.6103 -0.4595  0.2236
 8755TIP3    H147680   5.884   3.072  17.014  1.3803  2.8372  0.5983
 8755TIP3    H247681   5.974   3.097  16.895 -1.1200 -0.8675 -2.3044
 8756TIP3   OH247682   1.493   0.966  15.142  0.5406  0.4939 -0.3275
 8756TIP3    H147683   1.418   0.919  15.107  2.1357 -2.1138 -0.4889
 8756TIP3    H247684   1.487   0.955  15.237  0.3082  0.9948 -0.2787
 8757TIP3   OH247685   0.793   3.583  16.102 -0.5988  0.4654  0.2260
 8757TIP3    H147686   0.706   3.558  16.134  0.4783 -0.8179  2.3260
 8757TIP3    H247687   0.790   3.679  16.099 -1.8709  0.4682  0.8615
 8758TIP3   OH247688   4.886   4.653  14.009  0.0723  0.1595  0.2461
 8758TIP3    H147689   4.894   4.624  14.100 -1.5102 -0.9838  0.0605
 8758TIP3    H247690   4.952   4.602  13.962  1.0621  0.9281  0.7614
 8759TIP3   OH247691   4.721   0.266  13.279  0.0821  0.1765  0.0030
 8759TIP3    H147692   4.805   0.307  13.257 -0.0338 -0.1458 -1.0627
 8759TIP3    H247693   4.743   0.177  13.305  0.3666  0.9143  2.6040
 8760TIP3   OH247694   2.615   3.104  13.897 -0.5456 -0.0227 -0.1148
 8760TIP3    H147695   2.535   3.058  13.924  1.2235 -3.1083  0.3602
 8760TIP3    H247696   2.635   3.069  13.810  1.6987 -1.4998  0.9074
 8761TIP3   OH247697   1.620   5.891  11.849 -0.0749  0.3686 -0.1867
 8761TIP3    H147698   1.643   5.887  11.942  1.1365 -1.0774 -0.5072
 8761TIP3    H247699   1.699   5.861  11.803 -1.2484 -0.7521 -1.5783
 8762TIP3   OH247700   4.346   3.329  16.393  0.0747  0.2591 -0.2896
 8762TIP3    H147701   4.416   3.392  16.410 -0.8575  1.2666 -0.0168
 8762TIP3    H247702   4.360   3.260  16.458 -0.5777  1.6555  1.4257
 8763TIP3   OH247703   6.062   6.584   1.290  0.4046 -0.3483 -0.3793
 8763TIP3    H147704   6.088   6.613   1.203 -0.2912  0.7995 -0.2272
 8763TIP3    H247705   6.030   6.663   1.334 -0.4862 -1.1363  0.4633
 8764TIP3   OH247706   3.915   2.525  16.715 -0.2439  0.1299  0.1474
 8764TIP3    H147707   3.831   2.537  16.759 -1.5333  1.5666 -2.4332
 8764TIP3    H247708   3.902   2.448  16.660 -0.3882  1.1040 -1.2363
 8765TIP3   OH247709   2.516   0.869  13.447 -0.4717  0.4082  0.2171
 8765TIP3    H147710   2.569   0.842  13.372 -1.7849  0.0435 -0.6180
 8765TIP3    H247711   2.574   0.924  13.499  1.0434 -0.7883 -0.1155
 8766TIP3   OH247712   2.651   3.491  13.118 -0.2065 -0.4580 -0.4370
 8766TIP3    H147713   2.680   3.573  13.158  1.0219 -0.5452 -1.1081
 8766TIP3    H247714   2.594   3.519  13.046 -1.1457 -0.2577  0.3657
 8767TIP3   OH247715   6.748   4.442   0.946  0.3217  0.3929 -0.0847
 8767TIP3    H147716   6.761   4.537   0.951 -0.7250  0.4988  1.0485
 8767TIP3    H247717   6.822   4.406   0.996  1.2190  0.5354 -1.2489
 8768TIP3   OH247718   2.901   5.096  16.286  0.0704 -0.2819  0.2932
 8768TIP3    H147719   2.872   5.158  16.218 -0.2487  1.8485  2.2615
 8768TIP3    H247720   2.973   5.048  16.245 -0.0995  0.9319 -1.5529
 8769TIP3   OH247721   2.389   6.331  13.031 -0.2505  0.4442 -0.0148
 8769TIP3    H147722   2.349   6.244  13.024 -1.6549  1.1240 -0.7376
 8769TIP3    H247723   2.339   6.375  13.100  0.7696  0.5380  0.6917
 8770TIP3   OH247724   3.418   2.370  12.713 -0.0868 -0.3636  0.8792
 8770TIP3    H147725   3.353   2.430  12.676 -0.9440 -1.4445  0.5631
 8770TIP3    H247726   3.418   2.295  12.653  4.1026  1.0041 -1.2461
 8771TIP3   OH247727   0.316   1.082   0.144 -0.2016 -0.4237 -0.0810
 8771TIP3    H147728   0.333   1.162   0.193 -0.0842 -0.7872  0.4848
 8771TIP3    H247729   0.232   1.051   0.177 -0.6154 -0.1345 -0.8454
 8772TIP3   OH247730   4.386   2.211   6.101  0.1564  0.2338 -0.5707
 8772TIP3    H147731   4.465   2.183   6.055 -0.7222 -3.0766 -0.3049
 8772TIP3    H247732   4.413   2.217   6.193  0.2949 -0.0010 -0.5956
 8773TIP3   OH247733   4.638   1.251  14.888  0.1032 -0.5152 -0.0043
 8773TIP3    H147734   4.678   1.293  14.964 -0.9686 -1.2036  0.9792
 8773TIP3    H247735   4.552   1.293  14.881  0.2813 -0.2835 -1.0123
 8774TIP3   OH247736   4.401   3.167  15.187 -0.3144  0.3733 -0.7365
 8774TIP3    H147737   4.395   3.133  15.098 -1.2673 -3.3953  0.5560
 8774TIP3    H247738   4.495   3.177  15.203 -0.1154  0.7086 -2.0216
 8775TIP3   OH247739   3.229   0.565   4.477 -0.5645 -0.0476  0.5065
 8775TIP3    H147740   3.149   0.562   4.426 -0.4545 -0.5830  0.3611
 8775TIP3    H247741   3.236   0.479   4.518 -1.8429  1.0632  3.2967
 8776TIP3   OH247742   4.247   2.075   1.657  0.1708  0.6603  0.6839
 8776TIP3    H147743   4.329   2.069   1.707  1.0793  1.1989 -0.6944
 8776TIP3    H247744   4.202   1.993   1.676 -0.2304  1.4222  3.5344
 8777TIP3   OH247745   5.702   3.031  13.851 -0.8338  0.7097 -0.2572
 8777TIP3    H147746   5.681   3.035  13.757 -0.0674 -1.1588 -0.5607
 8777TIP3    H247747   5.767   2.961  13.857 -1.6030  0.1275  1.8119
 8778TIP3   OH247748   3.215   3.025  16.951  0.4200  0.0731  0.6865
 8778TIP3    H147749   3.185   2.952  17.004  3.9400 -1.4006  0.8594
 8778TIP3    H247750   3.262   3.082  17.012 -0.5349  1.5021  0.1559
 8779TIP3   OH247751   3.611   5.876  14.864 -0.2088 -0.6246 -1.3055
 8779TIP3    H147752   3.635   5.903  14.776  0.5088 -1.7635 -1.4808
 8779TIP3    H247753   3.650   5.789  14.874  0.7667 -0.0303  0.5650
 8780TIP3   OH247754   5.521   0.878  14.200  0.3169 -0.7307  0.1962
 8780TIP3    H147755   5.568   0.932  14.137  0.3881  1.5521  2.0453
 8780TIP3    H247756   5.552   0.789  14.185  2.8166  0.2283 -0.7569
 8781TIP3   OH247757   4.641   0.268   0.755 -0.1785 -0.3842 -0.4824
 8781TIP3    H147758   4.632   0.330   0.684  0.4790 -0.8727 -1.0033
 8781TIP3    H247759   4.736   0.258   0.768 -0.2650  0.7345  1.3905
 8782TIP3   OH247760   4.842   6.698   0.190  1.0091  0.2121  0.1904
 8782TIP3    H147761   4.821   6.792   0.194  0.8760  0.3204 -1.9064
 8782TIP3    H247762   4.934   6.693   0.215  1.3981  1.0846 -0.9948
 8783TIP3   OH247763   4.175   6.503  15.577  0.1653 -0.4308  0.7726
 8783TIP3    H147764   4.216   6.534  15.496 -0.9290  1.2605  0.8133
 8783TIP3    H247765   4.248   6.488  15.637  0.8294  1.1262  0.3952
 8784TIP3   OH247766   0.107   0.664  14.942 -0.3605  0.2853 -0.1217
 8784TIP3    H147767   0.091   0.583  14.991  1.6656 -0.0308  0.1150
 8784TIP3    H247768   0.049   0.728  14.983  0.5520 -0.2065  2.1080
 8785TIP3   OH247769   0.678   0.917   3.369  1.0040  0.0893  0.1698
 8785TIP3    H147770   0.670   0.834   3.323  2.0013  0.5479 -0.8627
 8785TIP3    H247771   0.766   0.915   3.408  0.5219  0.0971  1.3065
 8786TIP3   OH247772   1.458   1.538   1.333 -0.3434  0.2485 -0.0828
 8786TIP3    H147773   1.433   1.446   1.321  0.0617 -0.2260  2.2360
 8786TIP3    H247774   1.506   1.560   1.253 -1.5097 -1.1544 -1.2352
 8787TIP3   OH247775   4.325   0.734   3.094  0.0372  0.5586 -0.5702
 8787TIP3    H147776   4.374   0.653   3.081 -0.7942 -0.1548  0.5412
 8787TIP3    H247777   4.250   0.709   3.148  1.4477  2.5719  2.6796
 8788TIP3   OH247778   2.001   6.381   3.574  0.1155  0.4256 -0.3659
 8788TIP3    H147779   2.054   6.302   3.586 -0.6105  0.1139  1.0206
 8788TIP3    H247780   2.037   6.423   3.496  1.8551 -0.2021  0.0623
 8789TIP3   OH247781   1.987   0.858   2.778 -0.3748  0.0321 -0.0960
 8789TIP3    H147782   2.008   0.774   2.737 -0.3873  1.2637 -2.8480
 8789TIP3    H247783   2.029   0.854   2.864  0.6735 -2.2858 -0.6349
 8790TIP3   OH247784   1.152   1.851  17.094 -0.7062 -0.4081  0.8177
 8790TIP3    H147785   1.231   1.828  17.143  0.5148 -1.3855 -1.4764
 8790TIP3    H247786   1.136   1.776  17.037 -1.1199  1.2320 -1.3820
 8791TIP3   OH247787   4.523   3.965  16.524 -0.4915 -0.6564 -0.4359
 8791TIP3    H147788   4.487   4.027  16.587  3.1702  0.6683  0.5605
 8791TIP3    H247789   4.487   3.993  16.439  1.1412  3.1156 -0.0740
 8792TIP3   OH247790   1.647   3.837   5.234 -0.6425  0.5278  0.0841
 8792TIP3    H147791   1.720   3.794   5.190  0.1756  2.6879 -0.7912
 8792TIP3    H247792   1.672   3.840   5.326  0.8437  2.0390 -0.3295
 8793TIP3   OH247793   6.481   0.383   2.023  0.1726  0.4201  0.4403
 8793TIP3    H147794   6.430   0.302   2.016 -0.4301  0.8372 -0.0577
 8793TIP3    H247795   6.572   0.356   2.006  0.0265 -0.2074  0.6357
 8794TIP3   OH247796   0.613   4.012   4.402 -0.4015 -0.2685  0.2614
 8794TIP3    H147797   0.672   3.959   4.454  1.3388  0.0594 -1.2951
 8794TIP3    H247798   0.527   3.971   4.414  0.0211 -0.5366  2.8550
 8795TIP3   OH247799   5.834   2.642  12.943  0.1810  0.4532 -0.1900
 8795TIP3    H147800   5.760   2.633  12.884  0.3248  0.6595 -0.3988
 8795TIP3    H247801   5.890   2.566  12.923  0.4166  0.7263 -0.5838
 8796TIP3   OH247802   5.555   6.322   5.776  0.3040 -0.0559 -0.5744
 8796TIP3    H147803   5.587   6.335   5.866 -1.8403  1.0661  0.1026
 8796TIP3    H247804   5.624   6.271   5.733  2.1489  0.7637  1.2267
 8797TIP3   OH247805   5.192   3.127  16.872  0.2574 -0.1615  0.1315
 8797TIP3    H147806   5.244   3.054  16.905  2.0371 -0.0973 -2.2133
 8797TIP3    H247807   5.249   3.203  16.881 -0.2780  0.3201 -0.4535
 8798TIP3   OH247808   3.806   6.194   1.062  0.4753  0.4309 -0.0637
 8798TIP3    H147809   3.893   6.154   1.052  0.1476 -0.5302  0.7900
 8798TIP3    H247810   3.770   6.153   1.140 -0.8958  0.5833 -0.6029
 8799TIP3   OH247811   6.010   5.129  14.295  0.1574  0.0979  0.1486
 8799TIP3    H147812   5.974   5.212  14.264 -1.2654 -0.5393 -0.0014
 8799TIP3    H247813   5.933   5.077  14.317  1.0330 -1.0938  0.4853
 8800TIP3   OH247814   5.012   1.909  11.135 -0.6652 -0.5228 -0.3765
 8800TIP3    H147815   4.944   1.919  11.202 -0.2365 -0.9544  0.1320
 8800TIP3    H247816   4.969   1.934  11.053 -1.4827 -0.9187 -0.0846
 8801TIP3   OH247817   3.598   1.930  16.644  0.4413 -0.2026  0.3732
 8801TIP3    H147818   3.547   1.852  16.668  1.2214  0.0508  3.1253
 8801TIP3    H247819   3.689   1.901  16.644  0.6160  0.2928 -0.5262
 8802TIP3   OH247820   0.361   2.891   0.229 -0.3960 -0.9798 -0.1749
 8802TIP3    H147821   0.353   2.812   0.175 -0.0467 -0.6169 -0.7685
 8802TIP3    H247822   0.445   2.929   0.203 -0.5711 -0.4017  0.1001
 8803TIP3   OH247823   4.315   5.952   0.785  0.8017  0.2871  0.0947
 8803TIP3    H147824   4.360   5.942   0.701  0.9799  1.9966 -0.0621
 8803TIP3    H247825   4.330   5.869   0.831  2.2825  0.0022 -0.8187
 8804TIP3   OH247826   1.032   4.771   0.392  0.3593  0.7075 -0.6143
 8804TIP3    H147827   1.049   4.852   0.441  0.3438  0.6426 -0.5016
 8804TIP3    H247828   0.937   4.762   0.394  0.2498  1.4019 -1.7746
 8805TIP3   OH247829   4.134   6.622   4.110 -0.1175 -0.5698 -0.2544
 8805TIP3    H147830   4.203   6.567   4.072  0.5050  0.8448 -1.2864
 8805TIP3    H247831   4.055   6.598   4.061  0.0936 -0.7476 -0.5129
 8806TIP3   OH247832   4.552   0.249   3.802 -1.1642  0.1706 -0.0121
 8806TIP3    H147833   4.489   0.310   3.765 -1.3889  0.3466  0.6501
 8806TIP3    H247834   4.630   0.258   3.747 -1.6117  0.1639 -0.6533
 8807TIP3   OH247835   5.772   0.541  13.874 -0.2379  0.2543  0.2169
 8807TIP3    H147836   5.851   0.501  13.911  0.6822  2.0105  0.2984
 8807TIP3    H247837   5.803   0.584  13.794 -1.6866 -1.3077 -1.2390
 8808TIP3   OH247838   1.108   1.335   5.533  0.4707 -0.3216 -0.3806
 8808TIP3    H147839   1.117   1.279   5.610  2.4285 -0.4373 -0.6347
 8808TIP3    H247840   1.080   1.420   5.568  1.3719 -0.3644  0.4784
 8809TIP3   OH247841   0.559   2.367   5.629  0.7790 -0.6411 -1.1838
 8809TIP3    H147842   0.491   2.423   5.590  0.6764 -1.5557 -2.3750
 8809TIP3    H247843   0.640   2.396   5.588  1.8588  2.8718  2.7446
 8810TIP3   OH247844   1.354   2.212   3.014  0.5881 -0.1862  0.2159
 8810TIP3    H147845   1.408   2.138   3.042 -1.9634 -1.3574  2.5963
 8810TIP3    H247846   1.389   2.287   3.062  1.9972 -0.2259 -0.7152
 8811TIP3   OH247847   0.569   1.251   2.382  0.1004  0.1647 -0.3974
 8811TIP3    H147848   0.550   1.244   2.476  0.5791 -0.2817 -0.3295
 8811TIP3    H247849   0.652   1.298   2.378 -0.0507  0.4165 -0.6137
 8812TIP3   OH247850   4.018   0.214  13.476  0.2789  0.3704  0.6509
 8812TIP3    H147851   4.080   0.159  13.524  0.2633 -0.9158 -0.7396
 8812TIP3    H247852   4.060   0.231  13.392 -0.2038  1.5804  0.6287
 8813TIP3   OH247853   5.041   2.778   1.906  0.0693  0.3354 -0.0027
 8813TIP3    H147854   5.004   2.704   1.860  1.8548 -0.2625 -0.5518
 8813TIP3    H247855   5.004   2.855   1.862  0.6810 -0.2273 -1.5622
 8814TIP3   OH247856   2.053   2.453   2.066 -0.9613 -0.3715 -0.5283
 8814TIP3    H147857   2.140   2.420   2.091 -0.6015  1.1121  0.2885
 8814TIP3    H247858   2.022   2.389   2.001  0.5888 -1.1223 -0.6028
 8815TIP3   OH247859   5.088   1.214  17.047  0.3295  0.0361  0.1457
 8815TIP3    H147860   5.061   1.285  16.990 -0.2637 -1.6897 -1.8772
 8815TIP3    H247861   5.177   1.192  17.019 -0.4186 -1.6554 -1.1392
 8816TIP3   OH247862   0.037   1.913  17.095 -0.1556 -0.2674  0.0349
 8816TIP3    H147863  -0.016   1.991  17.080 -0.6357 -0.8567 -1.4702
 8816TIP3    H247864   0.126   1.946  17.108  0.1223  0.4622 -2.9766
 8817TIP3   OH247865   4.398   6.288  11.896 -0.1871  0.3584  0.1443
 8817TIP3    H147866   4.400   6.383  11.890 -1.3125  0.3427 -0.9474
 8817TIP3    H247867   4.307   6.265  11.877 -0.3648 -0.8420  2.1949
 8818TIP3   OH247868   2.875   1.600  13.938 -0.8441  0.4320  0.4497
 8818TIP3    H147869   2.876   1.605  13.843 -3.7204  0.8039  0.3330
 8818TIP3    H247870   2.850   1.688  13.966 -0.8651  0.1076  1.4999
 8819TIP3   OH247871   1.678   3.526   0.464  0.3720  0.2900  0.4770
 8819TIP3    H147872   1.609   3.463   0.441  0.5693  0.5130 -0.8154
 8819TIP3    H247873   1.738   3.476   0.520 -1.9608  0.7043  3.6154
 8820TIP3   OH247874   4.416   2.814   2.461 -0.7491  0.4025 -0.5020
 8820TIP3    H147875   4.391   2.750   2.527  0.9249  0.9759  0.7688
 8820TIP3    H247876   4.412   2.898   2.505  1.6884  0.6776 -0.6409
 8821TIP3   OH247877   4.901   4.998  15.340 -0.4297 -0.2184  0.4541
 8821TIP3    H147878   4.846   5.067  15.379 -1.0392 -1.3834  1.7343
 8821TIP3    H247879   4.990   5.033  15.345 -0.5757 -0.0093  2.2540
 8822TIP3   OH247880   2.663   3.793   4.402  0.0403  0.2328 -0.3447
 8822TIP3    H147881   2.616   3.876   4.399 -1.8797 -0.8157 -1.4689
 8822TIP3    H247882   2.746   3.810   4.356  1.0852  2.2302  2.0247
 8823TIP3   OH247883   2.079   3.708  11.538 -0.4090 -0.0865  0.0575
 8823TIP3    H147884   2.067   3.764  11.461 -2.6563 -1.0191 -0.3547
 8823TIP3    H247885   2.110   3.767  11.606 -0.4771  1.1916 -0.9807
 8824TIP3   OH247886   4.431   1.770   3.696  0.2469  0.4807  0.2440
 8824TIP3    H147887   4.415   1.726   3.612 -1.2822  0.9140  0.2611
 8824TIP3    H247888   4.526   1.771   3.706  0.4247 -0.1595 -1.1729
 8825TIP3   OH247889   1.776   1.045   2.241 -0.0216 -0.4952  0.3520
 8825TIP3    H147890   1.748   0.985   2.311  2.4830 -1.5652  0.5450
 8825TIP3    H247891   1.862   1.076   2.269  1.0167 -0.8377 -2.1454
 8826TIP3   OH247892   1.995   3.092   4.969  0.2504 -0.2467 -0.2294
 8826TIP3    H147893   2.023   3.080   4.878  1.0131 -1.6957  0.1748
 8826TIP3    H247894   2.027   3.014   5.015  0.2736  0.6776  1.3853
 8827TIP3   OH247895   2.291   2.176  14.125 -0.3601  0.5478 -0.6939
 8827TIP3    H147896   2.364   2.117  14.105  0.4506 -0.1432  3.4142
 8827TIP3    H247897   2.214   2.120  14.127 -0.2855  0.4405 -0.8301
 8828TIP3   OH247898   4.808   5.476  16.964  0.1147  0.5537  0.3306
 8828TIP3    H147899   4.820   5.429  17.046  2.1410 -0.8440 -0.6852
 8828TIP3    H247900   4.848   5.562  16.978 -1.5977  1.1993  1.4858
 8829TIP3   OH247901   4.676   5.524   3.611 -0.4113  0.3613 -0.0447
 8829TIP3    H147902   4.601   5.489   3.659 -0.0045 -0.8088 -0.2280
 8829TIP3    H247903   4.750   5.514   3.671  0.0827 -1.0082 -0.8389
 8830TIP3   OH247904   5.344   1.723  12.488 -0.2971 -0.2017  0.0605
 8830TIP3    H147905   5.404   1.790  12.455  0.4288 -0.6827  0.3768
 8830TIP3    H247906   5.389   1.685  12.564 -2.0853  1.1590  1.9335
 8831TIP3   OH247907   0.911   4.683   3.699 -0.4569 -0.2489 -0.0888
 8831TIP3    H147908   0.944   4.603   3.741  0.9970  0.0091 -0.6662
 8831TIP3    H247909   0.862   4.728   3.768 -0.6960 -1.2777  0.4483
 8832TIP3   OH247910   2.193   3.848   1.959 -0.1309  0.4841  0.7680
 8832TIP3    H147911   2.116   3.810   2.001 -0.6249 -0.2768 -0.7552
 8832TIP3    H247912   2.166   3.937   1.936  0.1135  0.8757  1.9338
 8833TIP3   OH247913   5.707   0.108   3.102  0.1394  0.6137  0.2997
 8833TIP3    H147914   5.788   0.158   3.115 -0.1701  0.8457  1.3948
 8833TIP3    H247915   5.733   0.017   3.112 -0.1655  0.7663  3.4214
 8834TIP3   OH247916   5.733   5.407   0.028 -0.0778 -0.3127 -0.1287
 8834TIP3    H147917   5.815   5.451   0.008 -0.6475  0.3570 -1.0457
 8834TIP3    H247918   5.692   5.391  -0.057  0.0907 -2.6524  0.1435
 8835TIP3   OH247919   1.242   6.126   5.294 -0.0342 -0.1733 -0.9061
 8835TIP3    H147920   1.329   6.088   5.288  0.1691  0.1632 -0.2167
 8835TIP3    H247921   1.208   6.124   5.204  1.1360  0.7461 -1.3969
 8836TIP3   OH247922   4.397   2.454   5.645  0.2602 -0.2239 -0.5084
 8836TIP3    H147923   4.313   2.407   5.644 -0.7567  1.4682  0.1721
 8836TIP3    H247924   4.461   2.390   5.616 -1.3173 -1.5011 -1.3390
 8837TIP3   OH247925   1.235   2.207   3.478  0.1188 -0.4274  0.2785
 8837TIP3    H147926   1.330   2.199   3.487  0.4672 -0.0483 -2.4656
 8837TIP3    H247927   1.209   2.135   3.421 -0.4609  2.0313 -2.8805
 8838TIP3   OH247928   4.593   1.249  11.453  0.2223 -0.1123  0.6857
 8838TIP3    H147929   4.550   1.312  11.509  1.6161  0.3967  1.2286
 8838TIP3    H247930   4.563   1.270  11.365  0.7925  1.4382  0.8421
 8839TIP3   OH247931   1.246   0.664  16.708  0.0203 -0.1315  0.3008
 8839TIP3    H147932   1.165   0.683  16.661  0.2727  0.9148  0.2673
 8839TIP3    H247933   1.307   0.635  16.640  0.3808  1.3639 -0.0628
 8840TIP3   OH247934   6.726   1.547   1.267 -0.2252  0.3034 -0.6908
 8840TIP3    H147935   6.810   1.522   1.305 -0.9010 -0.8992  0.0829
 8840TIP3    H247936   6.748   1.583   1.181  0.9577 -1.7108 -1.2983
 8841TIP3   OH247937   3.828   5.381   1.888 -0.4768  0.1427 -0.1943
 8841TIP3    H147938   3.921   5.358   1.892 -0.6880 -0.6233  0.4838
 8841TIP3    H247939   3.789   5.337   1.963 -1.4161  0.3690 -0.5391
 8842TIP3   OH247940   6.383   2.847   2.029  0.0978  0.8479  0.2105
 8842TIP3    H147941   6.462   2.809   2.067 -0.8493 -0.0908  1.2982
 8842TIP3    H247942   6.346   2.777   1.976  0.1382  1.3796 -0.5344
 8843TIP3   OH247943   0.958   5.408  14.304  0.5096 -0.1871 -0.1771
 8843TIP3    H147944   1.023   5.365  14.248  0.5075 -0.8278  0.3025
 8843TIP3    H247945   1.003   5.420  14.388 -0.3702 -1.7359  0.5415
 8844TIP3   OH247946   4.953   3.870  15.591  0.2724  0.0456 -0.3828
 8844TIP3    H147947   4.975   3.883  15.499 -1.6687 -0.4691 -0.9513
 8844TIP3    H247948   4.890   3.798  15.591 -1.8206  1.7445  1.0370
 8845TIP3   OH247949   3.090   0.704  14.646  0.1284 -0.0778  0.1146
 8845TIP3    H147950   3.044   0.763  14.586 -0.9636 -0.3728  0.6453
 8845TIP3    H247951   3.086   0.749  14.731  1.1218  0.0438  0.1116
 8846TIP3   OH247952   1.304   1.945   4.502  0.3233  0.5032 -0.5090
 8846TIP3    H147953   1.345   1.901   4.427 -0.9923 -2.3848  0.3394
 8846TIP3    H247954   1.221   1.899   4.515 -0.9272  2.9063  0.9055
 8847TIP3   OH247955   3.463   0.864   3.186 -0.0940  0.7657 -0.2565
 8847TIP3    H147956   3.517   0.845   3.262 -0.2370  0.2928 -0.2741
 8847TIP3    H247957   3.486   0.798   3.122  0.0751  1.2056 -0.6540
 8848TIP3   OH247958   4.762   5.372   1.380 -0.0518 -0.0570  0.0519
 8848TIP3    H147959   4.700   5.301   1.394  1.4722 -1.0988  1.9983
 8848TIP3    H247960   4.732   5.442   1.439  0.5522 -0.5347  0.9417
 8849TIP3   OH247961   6.446   2.820   1.329  0.0594  0.1430 -0.1053
 8849TIP3    H147962   6.507   2.840   1.401 -0.8103 -2.7152  1.5741
 8849TIP3    H247963   6.360   2.840   1.365 -0.5612 -3.0870  0.5153
 8850TIP3   OH247964   1.108   3.620  13.519  0.2372 -0.0650 -0.1474
 8850TIP3    H147965   1.119   3.528  13.543 -0.1474 -0.6835 -2.1187
 8850TIP3    H247966   1.192   3.661  13.540  0.9054 -1.2041 -0.5115
 8851TIP3   OH247967   4.343   2.083   1.958 -0.0602  0.0955  0.6880
 8851TIP3    H147968   4.391   2.106   2.037  1.9795 -3.3775  0.6566
 8851TIP3    H247969   4.408   2.083   1.888 -1.4432  1.2425 -0.6904
 8852TIP3   OH247970   3.506   4.986  11.489 -0.3096 -0.1838 -0.1047
 8852TIP3    H147971   3.442   4.921  11.517 -0.4836  0.6706  1.5738
 8852TIP3    H247972   3.455   5.066  11.478 -0.0658 -0.2341 -1.9619
 8853TIP3   OH247973   4.856   2.389  14.171 -0.2491 -0.6429 -0.5962
 8853TIP3    H147974   4.880   2.482  14.169  0.3669 -0.7755  0.1980
 8853TIP3    H247975   4.908   2.352  14.242 -1.8240 -1.2267  0.3218
 8854TIP3   OH247976   1.003   4.276   2.756 -0.6698  0.0106 -0.8088
 8854TIP3    H147977   1.051   4.353   2.727 -0.1481 -0.3157 -0.8300
 8854TIP3    H247978   1.066   4.227   2.809 -1.5973  0.6053  0.9214
 8855TIP3   OH247979   0.685   1.207  15.698 -0.9171 -0.3170 -0.6221
 8855TIP3    H147980   0.764   1.212  15.752 -1.2185  1.0799 -0.2675
 8855TIP3    H247981   0.704   1.138  15.634 -0.4617 -1.8654  1.1048
 8856TIP3   OH247982   5.785   1.922  11.003  0.1622  0.1257  0.1920
 8856TIP3    H147983   5.723   1.904  10.932  0.1990  1.6819 -0.2730
 8856TIP3    H247984   5.859   1.863  10.985 -0.3738 -0.4008 -0.3351
 8857TIP3   OH247985   4.841   3.615  15.561 -0.2970 -0.1664  0.0926
 8857TIP3    H147986   4.747   3.627  15.568 -0.1730  0.0357  1.8342
 8857TIP3    H247987   4.852   3.552  15.489 -1.8844 -1.7104  1.1111
 8858TIP3   OH247988   5.156   4.087  11.429  0.2822  0.3562  0.0522
 8858TIP3    H147989   5.232   4.081  11.487  0.2046  1.1561  0.2388
 8858TIP3    H247990   5.085   4.120  11.484 -0.0299  0.2631 -0.2866
 8859TIP3   OH247991   5.074   5.339   1.773 -0.6060  0.0864 -0.2863
 8859TIP3    H147992   5.074   5.354   1.679  0.7341  2.7860  0.0577
 8859TIP3    H247993   5.131   5.263   1.785 -0.9066 -0.3812 -1.6350
 8860TIP3   OH247994   5.655   0.336  15.536 -0.1373  0.7656  0.1640
 8860TIP3    H147995   5.744   0.368  15.552  0.1475 -0.5889  1.5742
 8860TIP3    H247996   5.656   0.308  15.445  1.2155 -0.1682  0.4313
 8861TIP3   OH247997   4.802   2.535   3.196 -0.1143  0.0538 -0.0548
 8861TIP3    H147998   4.809   2.440   3.198  0.5409  0.0637 -0.9183
 8861TIP3    H247999   4.864   2.562   3.127  0.3370  1.1562  0.7430
 8862TIP3   OH248000   1.035   2.664  15.469 -0.3632 -0.4069 -0.6229
 8862TIP3    H148001   0.998   2.633  15.387  0.8647 -1.4206 -0.8317
 8862TIP3    H248002   1.081   2.745  15.446 -1.1075  0.0143 -0.6603
 8863TIP3   OH248003   1.589   4.780  11.495 -0.0056  0.0314  0.0005
 8863TIP3    H148004   1.605   4.769  11.401  0.0348  1.6284 -0.1980
 8863TIP3    H248005   1.553   4.695  11.523 -0.0141 -0.4650 -1.4430
 8864TIP3   OH248006   3.042   1.696   1.648 -0.0165 -1.2993 -0.1480
 8864TIP3    H148007   2.955   1.683   1.687  0.8658 -0.4807  2.2749
 8864TIP3    H248008   3.031   1.771   1.591 -0.8218 -0.9457  0.4511
 8865TIP3   OH248009   6.055   5.656  13.323 -0.2537  0.0333 -0.2667
 8865TIP3    H148010   6.000   5.578  13.323 -0.8023  0.3947 -1.9959
 8865TIP3    H248011   6.010   5.717  13.382  1.2160 -1.5617  2.7817
 8866TIP3   OH248012   6.225   4.101   5.654 -0.4426  0.0797 -0.1186
 8866TIP3    H148013   6.214   4.189   5.689  1.8596  0.2355  0.3682
 8866TIP3    H248014   6.276   4.113   5.574 -2.3114 -0.6300 -1.4942
 8867TIP3   OH248015   3.632   0.966   1.190 -0.3819 -0.1870  0.3856
 8867TIP3    H148016   3.556   0.934   1.141 -1.0718 -0.6405  1.7178
 8867TIP3    H248017   3.596   1.020   1.260  0.5074 -0.5535  1.1561
 8868TIP3   OH248018   2.785   1.768  12.074  0.4288  0.1122  0.1779
 8868TIP3    H148019   2.832   1.742  12.154 -0.0043  1.5057  0.9234
 8868TIP3    H248020   2.838   1.838  12.037 -0.0464  0.3593 -0.0432
 8869TIP3   OH248021   4.766   0.501  16.106  0.1290 -0.0699  0.0977
 8869TIP3    H148022   4.833   0.558  16.069  0.4992 -0.2578  0.4693
 8869TIP3    H248023   4.809   0.459  16.181 -0.1121 -0.8921 -0.2113
 8870TIP3   OH248024   6.198   5.929   0.620  0.2384 -0.2009  0.6345
 8870TIP3    H148025   6.289   5.942   0.645  0.1030 -0.2091  1.1504
 8870TIP3    H248026   6.172   6.011   0.577  0.9952 -0.8395 -1.1124
 8871TIP3   OH248027   2.908   3.160   3.582 -0.5914 -0.3930 -0.3981
 8871TIP3    H148028   2.834   3.218   3.599  0.1234  0.9719 -1.6887
 8871TIP3    H248029   2.869   3.083   3.541 -1.3048  0.3549 -1.1733
 8872TIP3   OH248030   3.780   3.442  13.697  0.1501  0.3284 -0.5601
 8872TIP3    H148031   3.775   3.399  13.612  1.6551 -0.0935 -0.4543
 8872TIP3    H248032   3.723   3.390  13.754 -0.8780  0.6204 -1.2920
 8873TIP3   OH248033   5.524   0.712   0.844  0.3398 -0.3946 -1.2431
 8873TIP3    H148034   5.475   0.667   0.913  0.5268  0.8023 -0.3013
 8873TIP3    H248035   5.496   0.670   0.763 -1.0297 -0.8128 -0.5741
 8874TIP3   OH248036   3.218   1.700  11.124 -0.2521 -0.0059  0.0049
 8874TIP3    H148037   3.287   1.723  11.185 -1.9024  1.2041  1.4931
 8874TIP3    H248038   3.265   1.664  11.048  2.0192  1.3633  0.6578
 8875TIP3   OH248039   1.419   6.398   4.554 -0.3626 -0.5567  0.1858
 8875TIP3    H148040   1.348   6.379   4.615 -0.8774  1.2935  0.2330
 8875TIP3    H248041   1.494   6.420   4.609 -0.6400  0.4701  0.1669
 8876TIP3   OH248042   3.348   5.012  10.979 -0.4004 -0.2206  0.0729
 8876TIP3    H148043   3.353   4.998  10.884 -0.5229 -2.2470  0.3190
 8876TIP3    H248044   3.438   4.999  11.010 -0.2311  1.1078  0.1786
 8877TIP3   OH248045   0.465   5.999  16.134  0.3195 -0.3120  0.2129
 8877TIP3    H148046   0.557   5.999  16.157  0.2461 -0.7496  0.4994
 8877TIP3    H248047   0.432   6.083  16.168  0.7520  0.1479 -0.4742
 8878TIP3   OH248048   2.534   2.901   0.495  0.5422  0.4635  0.3291
 8878TIP3    H148049   2.519   2.959   0.570 -1.9214  1.3034 -0.7053
 8878TIP3    H248050   2.511   2.954   0.419  0.4942 -1.1732 -0.8411
 8879TIP3   OH248051   4.485   3.093  14.678 -0.5087 -0.8500 -0.7842
 8879TIP3    H148052   4.552   3.078  14.611  0.8940 -1.4598  0.7135
 8879TIP3    H248053   4.426   3.018  14.669  1.1045 -2.3253  0.2902
 8880TIP3   OH248054   6.764   4.353   0.240 -0.0076  0.3371  0.3610
 8880TIP3    H148055   6.697   4.296   0.278  1.5514 -0.7609  1.6129
 8880TIP3    H248056   6.747   4.439   0.278  0.9660 -0.5423  3.0256
 8881TIP3   OH248057   1.982   0.893  11.275  0.0515 -0.1197  0.3697
 8881TIP3    H148058   2.013   0.876  11.364  0.0633 -1.2066  0.1776
 8881TIP3    H248059   1.887   0.882  11.280  0.1593 -1.3612  0.0221
 8882TIP3   OH248060   0.823   4.050  16.884  0.1500  0.0838 -0.2262
 8882TIP3    H148061   0.906   4.072  16.927  0.2622 -2.8067  1.2516
 8882TIP3    H248062   0.758   4.057  16.953 -0.4938  0.1532 -0.8314
 8883TIP3   OH248063   3.478   6.710  16.402 -0.5875  0.2710 -0.3182
 8883TIP3    H148064   3.467   6.623  16.441 -1.0972  0.1525 -0.7156
 8883TIP3    H248065   3.494   6.768  16.476  1.1185 -0.3640 -0.1338
 8884TIP3   OH248066   5.800   4.927   3.046  0.0846  0.8221  0.2085
 8884TIP3    H148067   5.732   4.862   3.027  0.4919  0.7485 -1.1246
 8884TIP3    H248068   5.775   5.004   2.995  1.1220  0.6934 -0.5425
 8885TIP3   OH248069   0.746   5.347   0.475 -0.2847 -0.1266 -0.2560
 8885TIP3    H148070   0.657   5.313   0.488 -0.1120 -0.5074 -0.0450
 8885TIP3    H248071   0.800   5.295   0.535 -0.5390  2.9320  2.9325
 8886TIP3   OH248072   6.063   2.616   0.609 -0.3909 -0.2575 -0.2834
 8886TIP3    H148073   6.008   2.690   0.581  0.0571  0.1200 -0.1793
 8886TIP3    H248074   6.153   2.649   0.601 -0.2306 -0.2439  1.3062
 8887TIP3   OH248075   2.261   4.069  11.243  0.0976 -0.1249 -0.1715
 8887TIP3    H148076   2.340   4.054  11.191  1.9856  0.7937  2.2137
 8887TIP3    H248077   2.231   4.156  11.218 -0.1245 -0.4342 -1.0115
 8888TIP3   OH248078   3.616   6.196   6.049  0.3546 -0.4116  0.5665
 8888TIP3    H148079   3.694   6.222   6.001 -0.5059 -0.1178 -0.7237
 8888TIP3    H248080   3.543   6.218   5.991 -0.5797 -3.0728  0.5594
 8889TIP3   OH248081   0.255   2.600   6.732 -0.2241  0.4546 -0.4403
 8889TIP3    H148082   0.311   2.657   6.784  0.5563  0.9802 -1.8044
 8889TIP3    H248083   0.313   2.567   6.662 -1.2554 -0.1462 -1.0356
 8890TIP3   OH248084   3.322   6.497  12.131  0.5082  0.9647  0.2234
 8890TIP3    H148085   3.349   6.543  12.210  0.1793  1.1312  0.2397
 8890TIP3    H248086   3.336   6.405  12.151 -0.0957  0.9696  0.6765
 8891TIP3   OH248087   0.209   3.553   6.610  0.0967 -0.0463  0.3864
 8891TIP3    H148088   0.174   3.482   6.664 -0.7602 -0.4836 -0.6813
 8891TIP3    H248089   0.298   3.526   6.589 -0.3095 -0.9679 -0.2305
 8892TIP3   OH248090   4.949   2.114  14.330  0.4326  0.1781 -0.5258
 8892TIP3    H148091   4.888   2.092  14.401  0.3398 -0.1255 -0.6971
 8892TIP3    H248092   5.013   2.172  14.370  1.0821 -0.9597  0.1110
 8893TIP3   OH248093   4.099   0.702  12.720 -0.0634  0.3048 -0.3306
 8893TIP3    H148094   4.183   0.659  12.702 -1.0761 -1.6848 -0.5738
 8893TIP3    H248095   4.118   0.796  12.713  2.0414 -0.1040 -0.7466
 8894TIP3   OH248096   1.945   5.634  15.244  0.1532 -0.0649 -0.1229
 8894TIP3    H148097   1.950   5.637  15.149  2.1462 -3.3733 -0.2492
 8894TIP3    H248098   2.030   5.667  15.274 -0.2506  0.4332  0.5184
 8895TIP3   OH248099   6.642   0.825   4.041 -0.3379  0.0788  0.3076
 8895TIP3    H148100   6.629   0.798   3.950 -0.3792 -0.2062  0.3951
 8895TIP3    H248101   6.673   0.915   4.036  0.7980 -0.3148 -0.0407
 8896TIP3   OH248102   3.245   1.805   3.637  0.0705 -0.1517 -0.3144
 8896TIP3    H148103   3.335   1.836   3.621 -0.0236 -0.0321 -0.6131
 8896TIP3    H248104   3.246   1.714   3.608 -0.0536  0.0140 -0.8525
 8897TIP3   OH248105   3.260   3.719  13.789 -0.0514 -0.3071 -0.1136
 8897TIP3    H148106   3.337   3.776  13.791  0.7916 -1.3515 -1.4460
 8897TIP3    H248107   3.211   3.743  13.868  0.7141  1.6240 -0.1734
 8898TIP3   OH248108   1.407   2.406   3.200 -0.5990 -0.0070  0.1578
 8898TIP3    H148109   1.430   2.464   3.272 -0.6498  0.4100 -0.1573
 8898TIP3    H248110   1.317   2.429   3.179 -1.2696 -1.4743  1.2355
 8899TIP3   OH248111   2.524   2.066   4.382  0.1565 -0.4195 -0.0261
 8899TIP3    H148112   2.569   2.078   4.298  1.0010  1.1429  0.6004
 8899TIP3    H248113   2.585   2.103   4.447  0.1676 -2.8356  1.4815
 8900TIP3   OH248114   0.401   0.520  12.050  0.0609  0.1565 -0.1878
 8900TIP3    H148115   0.466   0.452  12.068 -0.1385  0.0127 -0.0097
 8900TIP3    H248116   0.435   0.566  11.973  0.6476  0.4351  0.2317
 8901TIP3   OH248117   5.085   3.978   4.706  0.0077 -0.2624 -0.8088
 8901TIP3    H148118   5.095   4.047   4.772  0.6884 -1.3810  0.3125
 8901TIP3    H248119   5.164   3.984   4.653  0.6432 -0.9345  0.0434
 8902TIP3   OH248120   6.532   5.900   6.248 -0.1304 -0.2233  0.1618
 8902TIP3    H148121   6.439   5.913   6.265 -0.3303  0.1269 -1.0934
 8902TIP3    H248122   6.564   5.852   6.324 -1.3219 -0.3118  0.6271
 8903TIP3   OH248123   3.452   2.030  14.336 -0.1543  0.3288  0.5646
 8903TIP3    H148124   3.455   1.935  14.332  0.1634  0.3617 -0.1306
 8903TIP3    H248125   3.494   2.052  14.420 -1.3070 -0.1811  1.2925
 8904TIP3   OH248126   1.319   0.382   5.251  0.3152 -0.2475 -0.0483
 8904TIP3    H148127   1.289   0.470   5.273 -0.5120 -0.1017 -1.6236
 8904TIP3    H248128   1.368   0.354   5.328  0.4518  1.5137  0.5601
 8905TIP3   OH248129   3.272   0.767   4.833  0.1008  0.2405 -0.9862
 8905TIP3    H148130   3.290   0.710   4.907 -0.1556 -0.2368 -1.2881
 8905TIP3    H248131   3.349   0.758   4.776  0.3707  0.7318 -0.7044
 8906TIP3   OH248132   1.740   1.692  15.364 -0.1585  0.1493  0.0936
 8906TIP3    H148133   1.650   1.691  15.396  0.0901 -0.9262  0.8307
 8906TIP3    H248134   1.746   1.616  15.307 -0.1136  1.0812 -1.1892
 8907TIP3   OH248135   0.564   5.958  11.799 -0.0375  0.5463 -0.0965
 8907TIP3    H148136   0.629   5.918  11.857  0.7591 -0.6269 -1.7055
 8907TIP3    H248137   0.605   5.956  11.713 -2.5214 -1.1194 -1.3592
 8908TIP3   OH248138   6.211   0.423  11.783  0.3333  0.0504 -0.3021
 8908TIP3    H148139   6.228   0.516  11.798  0.3668 -0.1849  1.3003
 8908TIP3    H248140   6.125   0.408  11.820  1.0796 -0.9145  1.1203
 8909TIP3   OH248141   5.974   5.789   1.111  0.1039  0.5190 -0.7656
 8909TIP3    H148142   6.050   5.845   1.124  0.2088  0.4340 -1.0077
 8909TIP3    H248143   5.899   5.847   1.126  0.2121  0.5090 -0.1262
 8910TIP3   OH248144   3.282   0.096  10.901  0.2635 -0.1102 -0.4091
 8910TIP3    H148145   3.323   0.139  10.826 -1.7558 -0.3774 -1.7587
 8910TIP3    H248146   3.323   0.009  10.904  2.0641  0.7097  0.3475
 8911TIP3   OH248147   4.036   4.765  13.628 -0.0408  1.0522 -0.0785
 8911TIP3    H148148   4.114   4.731  13.585  0.6729 -0.5279  2.2807
 8911TIP3    H248149   4.069   4.815  13.703 -1.2095 -0.4242  1.5210
 8912TIP3   OH248150   6.322   1.974  14.958 -0.1000 -0.0712 -0.6194
 8912TIP3    H148151   6.232   1.974  14.991 -0.7756 -0.0308 -2.3456
 8912TIP3    H248152   6.317   2.021  14.874  2.1074  2.6929  0.6360
 8913TIP3   OH248153   6.663   1.947  16.251 -0.2899  0.0210  0.4826
 8913TIP3    H148154   6.613   2.002  16.192  0.1111 -0.5278 -0.3956
 8913TIP3    H248155   6.613   1.946  16.333 -1.6339 -0.3879 -0.3114
 8914TIP3   OH248156   3.309   2.807   5.508 -0.1654  0.1696 -0.1507
 8914TIP3    H148157   3.403   2.797   5.488 -0.1025  0.8573 -0.2165
 8914TIP3    H248158   3.268   2.819   5.423 -0.5229 -1.5451 -0.2685
 8915TIP3   OH248159   6.544   3.409  11.651 -0.5366 -0.0468 -0.4810
 8915TIP3    H148160   6.563   3.318  11.632  1.1903 -0.4753  2.6054
 8915TIP3    H248161   6.613   3.458  11.605  0.0828 -0.5494 -0.1108
 8916TIP3   OH248162   5.326   2.470  11.801  0.1603  0.2823  0.2456
 8916TIP3    H148163   5.263   2.398  11.804 -0.0574  0.4743  0.3175
 8916TIP3    H248164   5.402   2.435  11.754 -0.1112  0.1350 -0.0808
 8917TIP3   OH248165   3.567   1.166  15.559  0.5962 -0.2406 -0.2042
 8917TIP3    H148166   3.542   1.142  15.648 -1.5211  0.9416 -0.3990
 8917TIP3    H248167   3.633   1.234  15.569  2.6585 -2.2374  0.3809
 8918TIP3   OH248168   4.837   2.535   0.907  0.2325  0.1259 -0.0981
 8918TIP3    H148169   4.762   2.565   0.856 -0.2182 -0.8624 -0.0415
 8918TIP3    H248170   4.804   2.533   0.997  0.4021 -0.0721 -0.0409
 8919TIP3   OH248171   1.390   5.398  16.464 -0.6196 -0.0516 -0.1223
 8919TIP3    H148172   1.410   5.482  16.506 -0.1975 -0.0226 -0.3784
 8919TIP3    H248173   1.295   5.389  16.473 -0.4311 -0.6035  1.8892
 8920TIP3   OH248174   2.418   1.642   5.997  0.5333 -0.1856 -0.7204
 8920TIP3    H148175   2.400   1.728   6.037 -0.1553 -0.4531 -0.4483
 8920TIP3    H248176   2.332   1.608   5.973  0.5840 -1.7208  1.0959
 8921TIP3   OH248177   6.494   1.093   1.121 -0.3690  0.4500 -0.0210
 8921TIP3    H148178   6.449   1.010   1.104  1.1821 -0.0149 -2.3764
 8921TIP3    H248179   6.558   1.100   1.050 -0.4898  3.7182  0.0499
 8922TIP3   OH248180   4.663   4.877  15.270 -0.0862  0.4827  0.1358
 8922TIP3    H148181   4.675   4.832  15.186  0.4499 -0.9266  0.9422
 8922TIP3    H248182   4.749   4.915  15.288 -0.1225  0.5362  0.1958
 8923TIP3   OH248183   4.062   0.029  12.847 -0.0030  0.5446 -0.2439
 8923TIP3    H148184   4.053   0.052  12.940 -0.2875 -0.5838  0.0250
 8923TIP3    H248185   3.999  -0.043  12.834  0.5009  0.2518 -1.1486
 8924TIP3   OH248186   1.780   0.046  16.794 -0.4572 -0.4667  0.2255
 8924TIP3    H148187   1.707  -0.013  16.814 -1.3747  0.7626  0.7058
 8924TIP3    H248188   1.749   0.096  16.718  0.7286 -1.2821 -0.8303
 8925TIP3   OH248189   2.544   1.914  16.643  0.1985 -0.1695 -0.4159
 8925TIP3    H148190   2.607   1.980  16.615  0.1155  0.1667  0.1590
 8925TIP3    H248191   2.576   1.886  16.729  0.6394 -1.4167 -0.9779
 8926TIP3   OH248192   5.269   4.033  14.975  0.1936  0.3878  0.4254
 8926TIP3    H148193   5.221   4.062  15.052  0.8709 -0.5323  1.2113
 8926TIP3    H248194   5.359   4.022  15.005  0.9980  2.2639 -1.0593
 8927TIP3   OH248195   3.064   0.478  14.298  0.2574 -0.0631 -0.1933
 8927TIP3    H148196   3.155   0.461  14.324 -0.2102 -0.7134  1.0714
 8927TIP3    H248197   3.013   0.467  14.378 -0.9963 -0.1346 -0.9759
 8928TIP3   OH248198   2.845   3.975   3.550 -0.1543  0.2891 -0.0627
 8928TIP3    H148199   2.842   3.914   3.624  1.5923 -1.2517 -1.1788
 8928TIP3    H248200   2.929   4.020   3.560 -1.1702  2.1827  0.4189
 8929TIP3   OH248201   3.283   1.122  14.404 -0.1944  0.2839  0.4003
 8929TIP3    H148202   3.189   1.130  14.423 -0.0162  1.1533  1.0057
 8929TIP3    H248203   3.307   1.036  14.439 -0.6859  0.2308  0.6223
 8930TIP3   OH248204   2.878   1.339   5.979  0.1619  0.1263  0.5003
 8930TIP3    H148205   2.904   1.424   6.015 -0.7027 -0.0761  1.6641
 8930TIP3    H248206   2.951   1.281   5.999  1.8793  1.0492 -2.4288
 8931TIP3   OH248207   4.463   4.461   5.063  0.3061 -0.0119 -0.0167
 8931TIP3    H148208   4.452   4.411   5.144  1.9019  1.9766  1.5233
 8931TIP3    H248209   4.544   4.428   5.025  0.0961 -0.2330 -0.2797
 8932TIP3   OH248210   0.906   0.117   6.040  0.1749 -0.8157 -0.0638
 8932TIP3    H148211   0.991   0.115   5.998 -0.2222 -0.7229 -0.8886
 8932TIP3    H248212   0.925   0.140   6.131  0.9572  0.0767 -0.4330
 8933TIP3   OH248213   6.549   2.207   1.102 -0.0329  0.0608 -0.1210
 8933TIP3    H148214   6.467   2.245   1.071 -2.0671 -1.7838  2.4994
 8933TIP3    H248215   6.563   2.130   1.047 -0.1722  0.2713 -0.4515
 8934TIP3   OH248216   3.839   1.025  14.537  0.1826 -0.4782 -0.0829
 8934TIP3    H148217   3.895   0.980  14.601 -2.5398 -1.3416  1.8882
 8934TIP3    H248218   3.851   1.118  14.557  1.9541 -0.5292 -0.7111
 8935TIP3   OH248219   6.006   0.135   2.854 -0.3662  0.0329  0.1187
 8935TIP3    H148220   6.089   0.095   2.880  1.0966  2.0246 -1.2068
 8935TIP3    H248221   6.022   0.171   2.767 -2.1002  1.9195  0.4897
 8936TIP3   OH248222   3.831   1.949   3.010  0.0919  0.0884 -0.9870
 8936TIP3    H148223   3.908   1.895   3.024  0.2936  0.5370 -0.3650
 8936TIP3    H248224   3.770   1.891   2.964 -0.3244 -1.2115  1.0862
 8937TIP3   OH248225   6.558   1.786   5.873  0.0614  0.2296 -0.1618
 8937TIP3    H148226   6.530   1.846   5.942  2.7563  0.8868  0.4809
 8937TIP3    H248227   6.547   1.835   5.792 -0.6384  0.4259  0.0445
 8938TIP3   OH248228   5.239   3.243  13.263  0.2993 -0.1665  0.5151
 8938TIP3    H148229   5.270   3.200  13.343 -0.2675 -2.9857 -0.6668
 8938TIP3    H248230   5.144   3.236  13.267  0.2524 -0.0628 -0.2754
 8939TIP3   OH248231   3.340   3.416   6.772 -0.1309 -0.0685 -0.1537
 8939TIP3    H148232   3.261   3.414   6.827 -0.4026  1.8820 -0.3648
 8939TIP3    H248233   3.321   3.355   6.700 -0.7946 -0.7852  0.6159
 8940TIP3   OH248234   1.178   1.255   1.493 -0.0401  0.2440 -0.0185
 8940TIP3    H148235   1.250   1.285   1.438  0.0980  1.3728  0.7231
 8940TIP3    H248236   1.137   1.185   1.444  0.4723  0.7842 -1.2593
 8941TIP3   OH248237   1.215   0.678   0.388  0.0049  0.1134  0.1438
 8941TIP3    H148238   1.140   0.693   0.446  0.1840  0.1592  0.3643
 8941TIP3    H248239   1.176   0.668   0.301 -0.0885  2.3979 -0.1237
 8942TIP3   OH248240   4.448   1.875   5.451 -0.0974  0.3683  0.1263
 8942TIP3    H148241   4.443   1.785   5.417  0.1406  0.6104 -0.5650
 8942TIP3    H248242   4.542   1.891   5.462 -0.1101  0.7482 -0.3264
 8943TIP3   OH248243   2.748   4.670   5.651  0.1286 -0.3931  0.3727
 8943TIP3    H148244   2.707   4.733   5.592  0.8351 -1.0285 -0.8620
 8943TIP3    H248245   2.824   4.638   5.602 -0.7028 -2.8702  0.5082
 8944TIP3   OH248246   4.472   4.177   1.388 -0.3804  0.4992  0.0902
 8944TIP3    H148247   4.429   4.183   1.474  0.2126 -1.3600  0.5649
 8944TIP3    H248248   4.400   4.158   1.327 -0.3814 -2.2297  0.8253
 8945TIP3   OH248249   3.400   5.425  15.330  0.0372  0.9897 -0.0748
 8945TIP3    H148250   3.355   5.343  15.352  0.3144  1.1440  1.1174
 8945TIP3    H248251   3.390   5.479  15.408 -0.5813  2.3009 -1.0304
 8946TIP3   OH248252   5.297   1.971  11.830 -0.2261 -0.5601  0.0740
 8946TIP3    H148253   5.348   1.992  11.752  1.0745  0.2921  1.1079
 8946TIP3    H248254   5.235   1.904  11.801 -1.2598  1.2179 -2.1984
 8947TIP3   OH248255   4.458   1.408  11.626  0.4787 -0.6041 -0.3295
 8947TIP3    H148256   4.374   1.367  11.605  0.5234 -2.7681  3.0402
 8947TIP3    H248257   4.439   1.467  11.698  1.4854  0.9815 -1.2901
 8948TIP3   OH248258   4.794   5.459  15.395  0.2752 -0.3811  0.0519
 8948TIP3    H148259   4.752   5.452  15.481 -0.1908  1.4394 -0.0004
 8948TIP3    H248260   4.805   5.553  15.381 -0.6078 -0.5819 -2.3395
 8949TIP3   OH248261   3.492   4.998   2.932  0.2077  0.3093 -0.5764
 8949TIP3    H148262   3.527   5.019   3.018  0.4447 -2.2693  0.0472
 8949TIP3    H248263   3.567   5.006   2.873  0.8705 -1.0288  0.0377
 8950TIP3   OH248264   1.480   1.597   3.943  0.3369 -0.0018  0.3027
 8950TIP3    H148265   1.405   1.569   3.996  0.7278 -0.2589  0.7196
 8950TIP3    H248266   1.445   1.603   3.854 -0.4218  0.7907  0.6352
 8951TIP3   OH248267   0.634   5.712  13.541  0.1060 -0.5950 -0.6155
 8951TIP3    H148268   0.603   5.793  13.581  2.4391  0.1540 -0.1456
 8951TIP3    H248269   0.720   5.735  13.506  0.7718 -2.8339 -0.5914
 8952TIP3   OH248270   4.203   1.251  13.980 -0.5427  0.1839 -0.2402
 8952TIP3    H148271   4.208   1.346  13.971 -0.0897  0.1443 -0.4133
 8952TIP3    H248272   4.244   1.232  14.064  1.2993 -0.0365 -1.1466
 8953TIP3   OH248273   5.414   3.238   0.385  0.0315 -0.3529  0.0217
 8953TIP3    H148274   5.325   3.203   0.378 -0.7666  1.8300 -2.1693
 8953TIP3    H248275   5.409   3.304   0.454  0.1996 -0.8131  0.4836
 8954TIP3   OH248276   5.169   1.350  12.303  0.6681 -0.1191  0.1803
 8954TIP3    H148277   5.080   1.325  12.328  0.7756 -2.2219 -1.2559
 8954TIP3    H248278   5.224   1.276  12.331  1.5708  0.0133 -1.1539
 8955TIP3   OH248279   1.879   4.854  11.651 -0.0610 -0.7589  0.1402
 8955TIP3    H148280   1.835   4.923  11.601  0.1332 -0.1867  0.7321
 8955TIP3    H248281   1.828   4.848  11.732 -0.1438 -1.3970  0.0435
 8956TIP3   OH248282   2.622   3.017  13.610  0.6296 -0.2625 -0.6316
 8956TIP3    H148283   2.667   2.985  13.531 -0.4042 -1.9736 -0.5853
 8956TIP3    H248284   2.572   3.093  13.580  1.5402  0.1039 -1.2494
 8957TIP3   OH248285   2.812   5.765  15.036  0.4613  0.0676  0.3517
 8957TIP3    H148286   2.808   5.680  15.079  0.8844 -0.5849 -0.8524
 8957TIP3    H248287   2.767   5.752  14.952 -1.4774  1.6443  1.0577
 8958TIP3   OH248288   1.191   5.724  11.959  0.1825  0.2149 -0.3246
 8958TIP3    H148289   1.123   5.659  11.941 -1.6623  1.9597 -0.0030
 8958TIP3    H248290   1.261   5.704  11.896 -0.7471 -1.4552 -0.8786
 8959TIP3   OH248291   5.622   2.015  12.193 -0.0841 -0.1210  0.3361
 8959TIP3    H148292   5.667   2.095  12.218 -4.1414  1.8783  2.2157
 8959TIP3    H248293   5.652   1.950  12.256  2.0580  0.3094 -0.1802
 8960TIP3   OH248294   4.813   4.932   4.084  0.2131 -0.0932  0.1306
 8960TIP3    H148295   4.843   4.848   4.119  0.9395 -0.1643 -0.6174
 8960TIP3    H248296   4.773   4.910   4.000  0.4476  0.3104 -0.0873
 8961TIP3   OH248297   0.591   5.348   6.132 -0.1345 -0.4205 -0.0566
 8961TIP3    H148298   0.580   5.424   6.075  1.5247  0.3767  0.6136
 8961TIP3    H248299   0.570   5.273   6.077  0.8771  0.3655 -1.5831
 8962TIP3   OH248300   5.938   0.177  16.000  0.4397  0.4321 -0.3280
 8962TIP3    H148301   5.847   0.161  15.975  0.4526 -0.6077  0.2509
 8962TIP3    H248302   5.950   0.127  16.081  1.4602  0.7516 -0.2687
 8963TIP3   OH248303   5.493   4.470  14.450  0.2619  0.2093  0.1173
 8963TIP3    H148304   5.574   4.440  14.410  1.4721  1.2778  1.6372
 8963TIP3    H248305   5.496   4.435  14.539 -1.8553 -1.2607 -0.3283
 8964TIP3   OH248306   5.173   4.221  12.966 -0.9994  0.1149 -0.7267
 8964TIP3    H148307   5.218   4.231  12.882 -0.3913  3.1348 -0.1623
 8964TIP3    H248308   5.083   4.248  12.948 -0.7807  1.1236 -0.3688
 8965TIP3   OH248309   3.203   2.711  12.214  0.1767  0.1709  0.0070
 8965TIP3    H148310   3.178   2.619  12.212 -0.1479  0.2446  0.3415
 8965TIP3    H248311   3.250   2.721  12.297  2.0313 -0.1294 -0.9648
 8966TIP3   OH248312   3.583   2.325  14.729 -0.0074  0.1653  0.1449
 8966TIP3    H148313   3.562   2.417  14.712 -0.8231  0.2253  1.3142
 8966TIP3    H248314   3.498   2.280  14.723  0.5227 -0.6989 -1.3803
 8967TIP3   OH248315   3.707   1.193   2.202 -0.6484 -0.3962  0.1325
 8967TIP3    H148316   3.754   1.265   2.244  0.4203 -0.4991 -0.8446
 8967TIP3    H248317   3.729   1.116   2.255 -0.4639 -0.2856  0.2153
 8968TIP3   OH248318   6.371   0.865   0.993  0.2457 -0.5608 -0.5919
 8968TIP3    H148319   6.328   0.794   1.041 -0.2167 -0.4645 -0.8625
 8968TIP3    H248320   6.300   0.911   0.949  0.8342 -2.3092 -3.6642
 8969TIP3   OH248321   2.857   5.379   4.109 -0.7347 -0.9241  0.5244
 8969TIP3    H148322   2.947   5.406   4.090 -1.0304 -0.6202 -0.4945
 8969TIP3    H248323   2.807   5.402   4.031 -1.8284 -0.5393  1.3073
 8970TIP3   OH248324   3.700   5.773  12.668 -0.9344 -0.0524  0.2495
 8970TIP3    H148325   3.792   5.798  12.672 -1.2517  1.1330  0.6132
 8970TIP3    H248326   3.655   5.835  12.726 -2.0777 -0.0677 -0.5759
 8971TIP3   OH248327   0.062   6.210   1.453 -0.2479 -0.2655 -0.1281
 8971TIP3    H148328   0.107   6.182   1.373  1.2965  1.5559  0.0353
 8971TIP3    H248329   0.028   6.297   1.432 -0.9225 -0.2837  0.8176
 8972TIP3   OH248330   0.386   1.815  13.857  0.1297  0.1108  0.8720
 8972TIP3    H148331   0.431   1.731  13.856 -0.8805 -0.4424  0.8497
 8972TIP3    H248332   0.293   1.794  13.843 -0.0490  1.2875  0.1006
 8973TIP3   OH248333   4.572   6.203  11.388 -0.4199  0.3546  0.1275
 8973TIP3    H148334   4.500   6.261  11.414 -0.8537  0.1620 -0.5876
 8973TIP3    H248335   4.648   6.260  11.383 -0.9654  1.0236 -1.1779
 8974TIP3   OH248336   0.870   2.417   3.034  0.3465  0.3950  0.3084
 8974TIP3    H148337   0.875   2.331   3.076 -0.5079  0.0841 -0.1927
 8974TIP3    H248338   0.862   2.397   2.940 -1.9799  0.9067  0.3229
 8975TIP3   OH248339   1.601   5.987  12.379 -0.0059 -0.0192  0.0651
 8975TIP3    H148340   1.668   5.960  12.316  0.8238 -0.0379  0.9389
 8975TIP3    H248341   1.534   6.028  12.325  1.1463  0.8716 -0.7504
 8976TIP3   OH248342   5.076   4.661  11.620  0.0073 -0.1373 -0.1740
 8976TIP3    H148343   4.998   4.715  11.601  0.5915  0.5092 -0.7868
 8976TIP3    H248344   5.097   4.619  11.536 -0.9496 -2.0403  0.4878
 8977TIP3   OH248345   4.609   0.767  11.684 -0.3298  0.0132  0.1991
 8977TIP3    H148346   4.661   0.778  11.605 -1.3613  0.4938 -0.4405
 8977TIP3    H248347   4.575   0.855  11.703 -1.2462 -0.3659  0.3497
 8978TIP3   OH248348   5.324   5.167   4.539 -0.0948 -0.2036 -0.6977
 8978TIP3    H148349   5.241   5.145   4.498  0.5134 -0.7945 -1.6347
 8978TIP3    H248350   5.364   5.232   4.482  1.3498 -1.9764 -1.8438
 8979TIP3   OH248351   5.749   0.634  15.142 -0.6406  0.1644 -0.0514
 8979TIP3    H148352   5.825   0.588  15.177  0.4490  1.6327 -0.3854
 8979TIP3    H248353   5.692   0.649  15.217  0.4788  1.0438  0.6451
 8980TIP3   OH248354   6.634   3.470   2.421 -0.5336 -0.0582  0.0769
 8980TIP3    H148355   6.693   3.489   2.348 -2.9836 -0.6059 -2.1798
 8980TIP3    H248356   6.658   3.382   2.450 -1.2036 -0.9443 -1.8921
 8981TIP3   OH248357   2.964   4.191  13.583 -0.3242  1.3239 -0.7202
 8981TIP3    H148358   3.019   4.126  13.540 -0.3747  1.6778 -1.3347
 8981TIP3    H248359   2.899   4.215  13.516  0.4932  2.9672 -0.9833
 8982TIP3   OH248360   6.675   6.695   2.715 -0.1727  0.2740 -0.1204
 8982TIP3    H148361   6.732   6.770   2.731  1.4895 -1.0489  0.5432
 8982TIP3    H248362   6.690   6.637   2.789 -0.9440 -0.9875 -0.9098
 8983TIP3   OH248363   5.356   2.593   3.237  0.5991  0.5335 -0.0431
 8983TIP3    H148364   5.437   2.566   3.194  1.1139  1.8460  0.0769
 8983TIP3    H248365   5.302   2.628   3.167  0.3370  0.1653 -0.0324
 8984TIP3   OH248366   2.496   5.830   2.373  0.5793 -0.2564  0.3361
 8984TIP3    H148367   2.477   5.915   2.412  0.6315 -0.1154  0.0498
 8984TIP3    H248368   2.435   5.823   2.299  1.9808  0.4179 -0.9146
 8985TIP3   OH248369   6.170   2.323   1.336  0.0976  0.1689 -0.6331
 8985TIP3    H148370   6.119   2.325   1.255  3.0769  0.8816 -2.6590
 8985TIP3    H248371   6.220   2.242   1.331  0.2830  0.1845  0.5814
 8986TIP3   OH248372   6.357   1.310   2.811  0.6025 -0.3657  0.3757
 8986TIP3    H148373   6.371   1.399   2.780  0.0789 -0.4109 -0.0221
 8986TIP3    H248374   6.445   1.272   2.817  0.7131 -0.8038 -2.4785
 8987TIP3   OH248375   4.898   3.322  14.799 -0.1095 -0.3529 -0.3797
 8987TIP3    H148376   4.948   3.269  14.862  2.4138 -0.0895 -2.0183
 8987TIP3    H248377   4.846   3.258  14.751 -1.5331 -0.6348  1.4262
 8988TIP3   OH248378   0.849   2.602  13.360 -0.2504  0.4026  0.0042
 8988TIP3    H148379   0.777   2.604  13.297 -1.2004 -0.4503  1.0159
 8988TIP3    H248380   0.858   2.509  13.382 -0.1287  0.7081  1.3126
 8989TIP3   OH248381   4.238   0.319   0.832 -0.4471  0.2325  0.3353
 8989TIP3    H148382   4.146   0.338   0.848 -0.4921  0.2743  0.0447
 8989TIP3    H248383   4.275   0.304   0.918 -0.4403  1.5055  0.5729
 8990TIP3   OH248384   6.397   4.500   3.717 -0.6893 -0.1206  0.3518
 8990TIP3    H148385   6.465   4.566   3.702 -1.3858  0.6618  0.5370
 8990TIP3    H248386   6.321   4.551   3.746 -0.9360 -1.1031  1.5069
 8991TIP3   OH248387   5.380   2.621   0.614 -0.0252  0.0368  0.0684
 8991TIP3    H148388   5.355   2.532   0.640 -0.8106  0.3172  0.2797
 8991TIP3    H248389   5.303   2.675   0.632  1.2856  1.2534  2.4329
 8992TIP3   OH248390   4.645   0.429   1.919  0.0223 -0.5285  0.5804
 8992TIP3    H148391   4.695   0.456   1.842  0.2959 -0.3675  0.8120
 8992TIP3    H248392   4.696   0.358   1.957  1.0177  0.7894  1.8149
 8993TIP3   OH248393   2.402   4.110  16.139  0.0163 -0.3326  0.0179
 8993TIP3    H148394   2.359   4.033  16.178  1.1109 -1.1536 -0.3356
 8993TIP3    H248395   2.348   4.130  16.062  0.6282 -1.8241 -0.8630
 8994TIP3   OH248396   6.017   0.301   3.918  0.6274  0.2775  0.0102
 8994TIP3    H148397   5.939   0.248   3.938  0.5468 -0.1029 -1.2228
 8994TIP3    H248398   6.083   0.237   3.893  1.1543  0.6458  0.4438
 8995TIP3   OH248399   4.395   1.481   4.424  0.5988 -0.5888  0.0609
 8995TIP3    H148400   4.342   1.541   4.372  0.3449 -2.2776 -1.7365
 8995TIP3    H248401   4.365   1.496   4.514 -1.1559  0.2696 -0.5993
 8996TIP3   OH248402   4.162   1.661  11.635  0.2352  0.0270 -0.2898
 8996TIP3    H148403   4.215   1.611  11.697  0.9249  1.0308 -0.0392
 8996TIP3    H248404   4.224   1.688  11.567 -0.4407 -0.7583 -1.2549
 8997TIP3   OH248405   2.328   5.462   5.896  0.1047  0.5506  0.8842
 8997TIP3    H148406   2.392   5.479   5.827  0.4560 -2.9808  0.1610
 8997TIP3    H248407   2.243   5.473   5.853  0.2944  0.7682  0.5616
 8998TIP3   OH248408   0.954   0.767   4.844 -0.6337  0.2406 -0.0858
 8998TIP3    H148409   0.976   0.684   4.886  0.7086  0.0329 -1.1333
 8998TIP3    H248410   0.991   0.834   4.903 -0.1596  0.0228 -0.1342
 8999TIP3   OH248411   6.056   2.461   2.710 -0.5961  0.0366  0.4525
 8999TIP3    H148412   6.134   2.481   2.657 -0.6487 -1.4951 -0.2847
 8999TIP3    H248413   6.008   2.543   2.715 -0.7075  0.2227 -2.1460
 9000TIP3   OH248414   1.553   2.561  13.610  0.0827  0.2219 -0.3446
 9000TIP3    H148415   1.520   2.648  13.628 -1.2840 -0.1235 -1.0216
 9000TIP3    H248416   1.635   2.575  13.564 -0.2255  1.1610 -0.6237
 9001TIP3   OH248417   4.601   4.919  16.158 -0.4355 -0.2305  0.0958
 9001TIP3    H148418   4.674   4.864  16.132 -1.1289 -1.3550  0.4742
 9001TIP3    H248419   4.632   4.965  16.236  0.3467  0.3716 -0.5516
 9002TIP3   OH248420   5.448   2.401   1.963  0.3498 -0.4725 -0.1077
 9002TIP3    H148421   5.475   2.377   2.052  1.2730  1.4177  0.1912
 9002TIP3    H248422   5.509   2.471   1.938  0.2939 -1.1612 -2.3615
 9003TIP3   OH248423   6.318   4.951   2.368  0.4352  0.1787 -0.2447
 9003TIP3    H148424   6.413   4.954   2.380  0.4602  0.2476 -0.4605
 9003TIP3    H248425   6.302   5.006   2.291 -0.0348  2.4873  1.4072
 9004TIP3   OH248426   4.563   3.308   5.484 -0.3919 -0.0572 -0.3628
 9004TIP3    H148427   4.505   3.287   5.411  0.7313 -1.4256 -0.9136
 9004TIP3    H248428   4.647   3.329   5.443 -0.2487  1.0685  0.4548
 9005TIP3   OH248429   2.867   0.882   5.518  0.0101 -0.3299  0.1922
 9005TIP3    H148430   2.856   0.899   5.612  2.1582 -1.5027  0.7328
 9005TIP3    H248431   2.944   0.935   5.494  2.8218 -3.8800  0.4451
 9006TIP3   OH248432   2.030   3.589   1.674  0.0751  0.6159  0.0669
 9006TIP3    H148433   2.038   3.540   1.756 -2.1305 -0.2742 -0.1685
 9006TIP3    H248434   1.999   3.676   1.702  3.3388  1.7881  0.4285
 9007TIP3   OH248435   5.723   1.045   4.663 -0.1832  0.2983  0.0028
 9007TIP3    H148436   5.697   0.978   4.727 -1.8282  0.0528 -0.8550
 9007TIP3    H248437   5.652   1.045   4.599  0.1956  2.2715 -0.4939
 9008TIP3   OH248438   4.012   5.473  15.346  0.4273 -0.6422  0.2890
 9008TIP3    H148439   4.032   5.537  15.415  0.5630 -1.6799  1.2467
 9008TIP3    H248440   3.932   5.430  15.376 -0.1355 -0.3789 -0.7615
 9009TIP3   OH248441   3.793   1.679   4.454 -0.3958  0.2340  0.1008
 9009TIP3    H148442   3.720   1.618   4.447 -0.2892 -0.1205  1.7148
 9009TIP3    H248443   3.871   1.623   4.457 -0.2146  0.4988  0.4130
 9010TIP3   OH248444   1.633   6.070  16.162  0.3548  0.0035  0.1427
 9010TIP3    H148445   1.542   6.088  16.141  0.3641  1.6449  1.3869
 9010TIP3    H248446   1.659   6.002  16.099 -1.7825 -0.7038 -0.0375
 9011TIP3   OH248447   4.116   4.945  15.264 -0.2968  0.2226  0.1107
 9011TIP3    H148448   4.179   4.987  15.207  0.0937  0.4026  0.6642
 9011TIP3    H248449   4.100   5.008  15.334  0.2477 -0.4916  0.9158
 9012TIP3   OH248450   4.860   4.085  14.015  0.7807  0.2034 -0.5182
 9012TIP3    H148451   4.790   4.130  13.968 -1.1835 -0.3893  1.6470
 9012TIP3    H248452   4.929   4.075  13.950 -1.5831 -0.2552 -3.1788
 9013TIP3   OH248453   3.278   1.475  15.638  0.1846 -0.2633 -0.5684
 9013TIP3    H148454   3.300   1.395  15.591  0.8968 -1.1572  1.1693
 9013TIP3    H248455   3.358   1.528  15.635  0.8024 -1.0402  0.9436
 9014TIP3   OH248456   1.172   5.554   4.571 -0.2330 -0.4791  0.1717
 9014TIP3    H148457   1.252   5.567   4.623 -0.7534 -0.0197  0.8731
 9014TIP3    H248458   1.154   5.640   4.533 -0.5216 -0.5316  0.1894
 9015TIP3   OH248459   3.574   5.843   5.743 -0.1362 -0.5063  0.2610
 9015TIP3    H148460   3.536   5.867   5.658  2.0414 -0.4193 -0.7436
 9015TIP3    H248461   3.499   5.813   5.795 -1.2231 -3.4705 -2.6709
 9016TIP3   OH248462   4.164   0.646  11.956  0.0913 -0.0107  0.3101
 9016TIP3    H148463   4.215   0.717  11.995  3.6672 -1.6367 -0.9808
 9016TIP3    H248464   4.181   0.654  11.862 -2.4729 -0.4611 -0.2632
 9017TIP3   OH248465   3.576   6.120   4.151 -0.3504 -0.5248  0.0402
 9017TIP3    H148466   3.517   6.080   4.214 -0.3810  1.1714  1.1658
 9017TIP3    H248467   3.589   6.054   4.083 -1.0951 -2.0396  1.3323
 9018TIP3   OH248468   2.440   2.534   1.515  0.5504 -0.3379 -0.1446
 9018TIP3    H148469   2.510   2.527   1.580  0.8911 -2.5362 -0.6535
 9018TIP3    H248470   2.398   2.617   1.533  0.4576 -0.9751  3.0614
 9019TIP3   OH248471   2.868   0.038   0.512 -0.6913  0.2184  0.9147
 9019TIP3    H148472   2.937   0.090   0.470 -0.0077  0.2647  2.0482
 9019TIP3    H248473   2.871  -0.047   0.469  1.0631 -0.2585  1.9097
 9020TIP3   OH248474   5.213   2.295   2.319  0.0098  0.0381  0.6363
 9020TIP3    H148475   5.181   2.268   2.405 -1.7104 -1.3744 -0.3812
 9020TIP3    H248476   5.144   2.351   2.283  0.9341  1.0334  0.3440
 9021TIP3   OH248477   3.940   1.641  12.429  1.0011 -0.1086 -0.0943
 9021TIP3    H148478   3.933   1.556  12.472 -0.0815 -0.4415 -0.8967
 9021TIP3    H248479   3.972   1.621  12.341 -0.2459  0.1915 -0.6363
 9022TIP3   OH248480   3.192   2.312  13.783 -0.5572 -0.2760  0.2877
 9022TIP3    H148481   3.139   2.332  13.706  1.9924  1.2358 -1.2180
 9022TIP3    H248482   3.238   2.231  13.760 -0.2787 -0.1758  0.4866
 9023TIP3   OH248483   2.447   4.460  15.959  0.4038 -0.1741  0.1325
 9023TIP3    H148484   2.385   4.512  15.909 -0.4440  0.0385  1.3569
 9023TIP3    H248485   2.422   4.369  15.941  2.0835 -0.2464 -2.2558
 9024TIP3   OH248486   5.928   1.549  14.707  0.4283 -0.0447 -0.3729
 9024TIP3    H148487   5.925   1.504  14.623  2.2528 -0.4068 -0.2940
 9024TIP3    H248488   5.897   1.484  14.770  1.0672 -0.5083 -0.5229
 9025TIP3   OH248489   6.012   3.801   0.513 -0.0643  0.4010  0.1128
 9025TIP3    H148490   6.003   3.787   0.608 -0.5615  0.7228  0.1147
 9025TIP3    H248491   6.107   3.804   0.499  0.0222  1.7104  0.8084
 9026TIP3   OH248492   2.295   2.242   5.453  0.0623 -0.3908 -0.3123
 9026TIP3    H148493   2.294   2.275   5.363  0.0492  0.7254  0.0830
 9026TIP3    H248494   2.386   2.255   5.481 -0.3565  1.0622  0.4606
 9027TIP3   OH248495   2.414   1.829   4.365  0.3516 -0.1765  0.2741
 9027TIP3    H148496   2.323   1.823   4.334  0.1815  0.6183  0.6026
 9027TIP3    H248497   2.430   1.923   4.375  1.9316 -0.1686 -1.8646
 9028TIP3   OH248498   5.210   1.442   5.437 -0.2629  0.4864 -0.2936
 9028TIP3    H148499   5.283   1.385   5.411 -0.9337 -0.7811  0.4976
 9028TIP3    H248500   5.134   1.404   5.393 -0.5909  1.2701 -0.4062
 9029TIP3   OH248501   0.680   4.927  12.158  0.1597 -0.5010  0.4680
 9029TIP3    H148502   0.731   4.854  12.194  0.5322 -1.6554 -2.1518
 9029TIP3    H248503   0.658   4.898  12.069 -0.4343  2.2387 -0.3465
 9030TIP3   OH248504   4.664   2.859   1.033  0.3660 -0.2162  0.0262
 9030TIP3    H148505   4.598   2.806   0.989  0.3741  0.9598 -1.4870
 9030TIP3    H248506   4.627   2.947   1.036  0.8312 -0.0398  1.4529
 9031TIP3   OH248507   5.724   4.732   6.513 -0.2328  0.1078 -0.1810
 9031TIP3    H148508   5.782   4.668   6.472  2.0155  1.6846  0.3423
 9031TIP3    H248509   5.746   4.730   6.606 -0.1797  1.5454 -0.1380
 9032TIP3   OH248510   4.433   0.177   2.944 -0.2091 -0.4125 -0.1702
 9032TIP3    H148511   4.338   0.167   2.949 -0.3097  0.6937  0.3628
 9032TIP3    H248512   4.457   0.217   3.027  1.0205 -2.6786  0.6625
 9033TIP3   OH248513   2.046   5.916  14.791 -0.2487 -0.2579  0.4244
 9033TIP3    H148514   2.127   5.867  14.803  0.3097  0.7343  0.9221
 9033TIP3    H248515   2.070   6.006  14.815 -1.6155 -0.0380  1.0271
 9034TIP3   OH248516   4.027   0.270   2.651 -0.1660  0.4325 -0.6015
 9034TIP3    H148517   3.975   0.234   2.722 -0.8934  0.2555 -1.2092
 9034TIP3    H248518   4.071   0.194   2.613  1.7570  0.7558  0.8412
 9035TIP3   OH248519   2.370   6.034  14.962  0.1656  0.2598  0.4879
 9035TIP3    H148520   2.391   5.972  15.033 -0.8437 -0.2050  0.4003
 9035TIP3    H248521   2.293   6.081  14.993  2.0855  3.0218  1.4666
 9036TIP3   OH248522   4.290   0.921  12.676 -0.1135  0.3745 -0.1515
 9036TIP3    H148523   4.381   0.890  12.680 -0.2463 -0.1787 -1.2102
 9036TIP3    H248524   4.297   1.016  12.668  0.3603  0.3468 -0.0851
 9037TIP3   OH248525   2.375   3.650  16.707  0.3777 -0.7050 -0.0529
 9037TIP3    H148526   2.425   3.572  16.683 -1.5439 -1.7823 -0.7289
 9037TIP3    H248527   2.327   3.673  16.627 -0.8412 -0.2127  0.7913
 9038TIP3   OH248528   2.552   1.141   1.174 -0.3456  0.2086 -0.0671
 9038TIP3    H148529   2.605   1.194   1.115 -0.3614  0.7742  0.4084
 9038TIP3    H248530   2.462   1.158   1.147 -0.4196  1.4396  0.8886
 9039TIP3   OH248531   2.151   5.555  14.594  0.1106 -0.0190 -0.5088
 9039TIP3    H148532   2.093   5.502  14.649  1.7931 -0.5434  0.8839
 9039TIP3    H248533   2.200   5.492  14.542  0.3384  0.3167 -0.7112
 9040TIP3   OH248534   1.183   1.992   3.297 -0.0320 -0.1286 -0.4382
 9040TIP3    H148535   1.105   1.941   3.278 -0.9518  0.3440  1.7108
 9040TIP3    H248536   1.256   1.933   3.280 -0.9779 -1.4620 -0.0081
 9041TIP3   OH248537   3.819   4.895   2.527 -0.0693 -0.6173  0.1924
 9041TIP3    H148538   3.806   4.868   2.618 -1.7600 -0.4632  0.0344
 9041TIP3    H248539   3.885   4.964   2.532 -1.4202  0.6562  1.5526
 9042TIP3   OH248540   0.328   6.331   1.040  0.3980 -0.4602 -0.3373
 9042TIP3    H148541   0.334   6.389   0.964 -0.8453  0.4210  0.2090
 9042TIP3    H248542   0.340   6.389   1.115 -2.0624 -0.6459  0.2747
 9043TIP3   OH248543   1.325   0.631   2.330 -0.3140  0.0295  0.0437
 9043TIP3    H148544   1.360   0.719   2.322 -1.4444  0.3719 -1.6618
 9043TIP3    H248545   1.397   0.579   2.366  1.0097  1.2401 -0.7806
 9044TIP3   OH248546   2.458   5.881   1.953  0.4807  0.0577 -0.0461
 9044TIP3    H148547   2.457   5.974   1.927 -0.4851 -0.3038 -1.4660
 9044TIP3    H248548   2.543   5.849   1.924  0.6572  0.4170  0.0764
 9045TIP3   OH248549   5.040   0.131  15.396 -0.1626 -0.5115  0.1153
 9045TIP3    H148550   4.999   0.107  15.479 -2.0893  0.9531 -0.3267
 9045TIP3    H248551   4.972   0.116  15.330 -0.2231  2.2874 -0.6298
 9046TIP3   OH248552   6.456   2.437  13.756  0.4000  0.1632  0.6899
 9046TIP3    H148553   6.503   2.490  13.821  0.2017 -0.0739  1.0266
 9046TIP3    H248554   6.495   2.463  13.672  1.5274 -0.4456  1.0078
 9047TIP3   OH248555   0.706   4.619   5.431 -0.0461  0.3010  0.0329
 9047TIP3    H148556   0.734   4.708   5.454 -0.3981  0.4040  0.0722
 9047TIP3    H248557   0.692   4.623   5.336 -1.9933  0.8504  0.2972
 9048TIP3   OH248558   6.124   3.295   4.667 -0.4631  0.2457 -0.2759
 9048TIP3    H148559   6.218   3.313   4.655 -0.6594  0.6720 -1.2594
 9048TIP3    H248560   6.100   3.344   4.746  0.7108 -2.0294  1.6417
 9049TIP3   OH248561   3.477   5.855  14.435 -0.4396 -0.7346 -0.4205
 9049TIP3    H148562   3.432   5.939  14.443 -0.3587 -0.8958  2.7386
 9049TIP3    H248563   3.520   5.860  14.349 -1.7928  1.7118 -1.0710
 9050TIP3   OH248564   1.853   0.898   2.025 -0.1895 -0.4597  0.3186
 9050TIP3    H148565   1.948   0.900   2.019 -0.1651  0.9646  0.7737
 9050TIP3    H248566   1.832   0.960   2.095 -1.4614 -0.6002  0.0870
 9051TIP3   OH248567   5.542   5.744   0.175 -0.1332  0.5500 -0.0669
 9051TIP3    H148568   5.635   5.764   0.177 -0.1798  0.7656 -0.0374
 9051TIP3    H248569   5.511   5.781   0.093  0.3023 -1.7453 -1.3604
 9052TIP3   OH248570   1.470   6.613   4.809  0.3733 -0.3314  0.1970
 9052TIP3    H148571   1.400   6.647   4.865 -0.0214 -0.0931 -0.4286
 9052TIP3    H248572   1.535   6.683   4.807  1.5089 -1.2201  2.2136
 9053TIP3   OH248573   3.364   4.900   4.481 -0.1203  0.2343  0.2207
 9053TIP3    H148574   3.348   4.847   4.559  0.9545  1.4864  1.3574
 9053TIP3    H248575   3.308   4.976   4.492  1.3590  1.2889  0.7292
 9054TIP3   OH248576   5.069   4.855   3.450 -0.0639 -0.3237  0.2153
 9054TIP3    H148577   5.140   4.890   3.395 -0.8791  0.1141 -0.5859
 9054TIP3    H248578   5.025   4.790   3.395  1.4547 -2.7732  1.6959
 9055TIP3   OH248579   0.135   6.362   5.360 -0.3925 -0.2637 -0.3729
 9055TIP3    H148580   0.105   6.396   5.444  0.8926  0.8991 -0.3461
 9055TIP3    H248581   0.162   6.439   5.311 -1.7489 -0.8428 -2.1512
 9056TIP3   OH248582   4.941   4.975  16.468  0.2763  0.3553 -0.1891
 9056TIP3    H148583   4.994   4.901  16.438 -0.8578 -0.1705 -0.9707
 9056TIP3    H248584   4.997   5.021  16.530  1.9100  0.2307 -1.4979
 9057TIP3   OH248585   5.405   0.367   5.324  0.3938 -0.3715 -0.3631
 9057TIP3    H148586   5.372   0.304   5.259 -0.6242 -0.0324 -0.1950
 9057TIP3    H248587   5.388   0.453   5.285  1.2701 -0.1821 -0.3486
 9058TIP3   OH248588   2.066   6.268  15.618  0.4352 -0.4001  0.1170
 9058TIP3    H148589   1.991   6.301  15.668 -0.8499 -1.4705 -1.0097
 9058TIP3    H248590   2.141   6.278  15.677 -0.7267 -0.0046  1.5805
 9059TIP3   OH248591   5.622   4.839   1.573  1.0804  0.0691  0.5046
 9059TIP3    H148592   5.709   4.800   1.583  1.5313  1.3157  1.7663
 9059TIP3    H248593   5.568   4.796   1.640  1.1053  0.2886  0.6688
 9060TIP3   OH248594   5.699   3.798  16.373  0.7048 -0.2436 -0.9923
 9060TIP3    H148595   5.611   3.775  16.343  0.1526  1.8385 -1.0883
 9060TIP3    H248596   5.716   3.885  16.337  2.0745  0.1725  0.4952
 9061TIP3   OH248597   5.423   5.291  11.071  0.0781 -0.3267 -0.1763
 9061TIP3    H148598   5.489   5.352  11.103 -0.3717 -0.4436  1.0400
 9061TIP3    H248599   5.463   5.204  11.082 -0.4883 -0.4398  1.1590
 9062TIP3   OH248600   2.166   6.762   3.329  0.1694 -0.1288 -0.0832
 9062TIP3    H148601   2.095   6.760   3.265 -0.2890  0.6801  0.3763
 9062TIP3    H248602   2.123   6.789   3.411  1.1122  0.9990  0.0574
 9063TIP3   OH248603   1.393   0.005   5.666 -0.0307  0.1949 -0.8019
 9063TIP3    H148604   1.432   0.069   5.606 -1.0484  2.1913  0.5845
 9063TIP3    H248605   1.300   0.027   5.668 -0.1875 -0.5098  0.6997
 9064TIP3   OH248606   1.580   0.463  13.045 -0.2823 -0.2868 -0.1077
 9064TIP3    H148607   1.500   0.491  13.090 -0.7104  1.4689 -1.8475
 9064TIP3    H248608   1.558   0.468  12.952  1.6030 -0.5616 -0.6016
 9065TIP3   OH248609   2.381   5.001  16.006  0.1092 -0.0823 -0.5570
 9065TIP3    H148610   2.288   4.995  15.987  0.5604 -0.4933 -2.9900
 9065TIP3    H248611   2.387   5.061  16.081 -2.0182  1.1993 -1.3236
 9066TIP3   OH248612   3.475   2.662  13.126  0.2887 -0.2715  0.2236
 9066TIP3    H148613   3.414   2.660  13.200  1.1451 -2.9201  0.9764
 9066TIP3    H248614   3.447   2.590  13.069  1.5509 -0.3154 -0.3836
 9067TIP3   OH248615   0.382   3.057   3.231  0.0714 -0.0866  0.4368
 9067TIP3    H148616   0.318   2.997   3.193  0.3143  1.3780 -2.5679
 9067TIP3    H248617   0.354   3.143   3.202  2.1532  0.8178  0.9553
 9068TIP3   OH248618   0.890   6.560  12.468  0.4928  0.0186  0.4255
 9068TIP3    H148619   0.801   6.524  12.476  1.0985 -1.6191  0.1749
 9068TIP3    H248620   0.914   6.582  12.558  0.4346 -1.1100  0.7411
 9069TIP3   OH248621   3.743   6.737  10.848 -0.4860  0.3641 -0.8350
 9069TIP3    H148622   3.665   6.710  10.800 -2.9920  0.3720  2.8285
 9069TIP3    H248623   3.744   6.833  10.840 -1.1132  0.3973 -0.5160
 9070TIP3   OH248624   1.362   6.381  15.548  0.1690 -0.0136  0.3048
 9070TIP3    H148625   1.323   6.414  15.468 -1.2942  0.7637  1.2885
 9070TIP3    H248626   1.442   6.336  15.520  0.9644  2.2662 -1.3426
 9071TIP3   OH248627   4.395   0.262  13.511  0.0079 -0.1353  0.4798
 9071TIP3    H148628   4.352   0.296  13.433  1.2449 -0.3453 -0.3353
 9071TIP3    H248629   4.438   0.339  13.550 -0.0359 -0.1498  0.5562
 9072TIP3   OH248630   5.169   6.018   5.307  0.0426  0.3234 -0.3113
 9072TIP3    H148631   5.172   6.093   5.367 -0.8209  0.1322 -0.0130
 9072TIP3    H248632   5.094   6.035   5.250 -0.5158 -0.5702  0.1249
 9073TIP3   OH248633   5.403   6.583   5.322 -0.1299  0.2285  0.0681
 9073TIP3    H148634   5.439   6.595   5.234  0.0386  1.6465  0.3085
 9073TIP3    H248635   5.479   6.562   5.376 -0.0139  0.7870  0.1282
 9074TIP3   OH248636   6.643   1.765  12.123 -0.2348 -0.0822 -0.7836
 9074TIP3    H148637   6.731   1.744  12.095  0.1619 -0.1919  0.4700
 9074TIP3    H248638   6.623   1.849  12.081  1.3833  1.1381  0.7452
 9075TIP3   OH248639   3.077   4.452   5.256 -0.1351  0.4131  0.6397
 9075TIP3    H148640   3.162   4.422   5.225 -1.0360  0.5270 -2.2823
 9075TIP3    H248641   3.093   4.485   5.344  2.5723 -0.6365  0.6252
 9076TIP3   OH248642   6.080   1.397  14.324 -0.6203 -0.0758  0.4054
 9076TIP3    H148643   6.041   1.455  14.390 -1.3959  1.6899 -1.4814
 9076TIP3    H248644   6.170   1.427  14.316  0.1589 -1.7702  2.1818
 9077TIP3   OH248645   0.343   1.920  17.074  0.2077 -0.1658  0.0468
 9077TIP3    H148646   0.379   1.851  17.019  0.9133 -0.1443  0.4733
 9077TIP3    H248647   0.413   1.985  17.082  0.5500 -0.6844  1.8535
 9078TIP3   OH248648   2.273   2.816   2.614  0.3248  0.2930 -0.5005
 9078TIP3    H148649   2.357   2.771   2.624  1.3515  2.3205  0.4880
 9078TIP3    H248650   2.258   2.816   2.519 -0.0462 -2.5664 -0.5342
 9079TIP3   OH248651   4.258   3.762   3.938  0.2233 -0.5398 -0.4783
 9079TIP3    H148652   4.230   3.804   4.019 -0.1066 -0.0497 -0.8437
 9079TIP3    H248653   4.347   3.795   3.923  0.4880 -1.0334 -0.0490
 9080TIP3   OH248654   5.869   0.537   0.675  0.2589  0.1380  0.6275
 9080TIP3    H148655   5.837   0.472   0.738  0.4139 -1.1070 -0.5409
 9080TIP3    H248656   5.815   0.615   0.691 -1.5809 -1.0492  0.4803
 9081TIP3   OH248657   5.756   1.079  16.873 -1.0834  0.6857 -0.1583
 9081TIP3    H148658   5.832   1.136  16.860 -0.5254  0.0207  0.0788
 9081TIP3    H248659   5.772   1.037  16.958 -3.0139  2.4633  1.1591
 9082TIP3   OH248660   0.639   4.163  12.191  0.0331 -0.2225  0.1337
 9082TIP3    H148661   0.685   4.226  12.247 -0.5294  0.9322 -0.6459
 9082TIP3    H248662   0.698   4.088  12.186  0.6428  0.1553  1.2556
 9083TIP3   OH248663   2.535   4.171   4.594 -0.4640 -0.4318  0.0876
 9083TIP3    H148664   2.479   4.248   4.607  1.0867  0.5526  1.1827
 9083TIP3    H248665   2.567   4.149   4.681  0.0712 -1.6095 -0.3829
 9084TIP3   OH248666   3.443   2.371  16.137  0.3724  0.6397  0.4471
 9084TIP3    H148667   3.504   2.305  16.101  2.2916  2.3461  0.3638
 9084TIP3    H248668   3.398   2.326  16.208  0.1294 -1.3514 -0.8893
 9085TIP3   OH248669   1.397   3.820   5.062  0.3438 -0.0015 -0.2608
 9085TIP3    H148670   1.440   3.797   5.145 -3.3336 -0.9496  1.6124
 9085TIP3    H248671   1.370   3.736   5.025 -1.1818  0.5644 -0.4997
 9086TIP3   OH248672   0.855   1.631   5.078  0.3343  0.2489 -0.7982
 9086TIP3    H148673   0.884   1.576   5.004  1.3996 -0.6494  0.2453
 9086TIP3    H248674   0.851   1.571   5.152 -1.2703  1.0219 -0.2225
 9087TIP3   OH248675   0.926   4.145  14.485 -0.4001  0.9500  0.4557
 9087TIP3    H148676   0.987   4.217  14.504 -0.2092  0.4301  1.9883
 9087TIP3    H248677   0.926   4.092  14.565 -0.8667 -0.5217 -0.4732
 9088TIP3   OH248678   1.982   0.838  17.240  0.6961  0.2370 -0.2647
 9088TIP3    H148679   2.078   0.833  17.241  0.6323 -2.3639  0.5869
 9088TIP3    H248680   1.958   0.826  17.148  1.1962 -1.5493 -0.2086
 9089TIP3   OH248681   5.554   5.778  15.262  0.2795  0.4210 -0.0907
 9089TIP3    H148682   5.592   5.860  15.232 -0.4146  0.8895  0.2842
 9089TIP3    H248683   5.459   5.790  15.254 -0.0046  0.7408  2.5951
 9090TIP3   OH248684   0.334   3.079  14.380 -0.4778  0.6096  0.4048
 9090TIP3    H148685   0.275   3.004  14.367  0.0571  0.2682 -0.1338
 9090TIP3    H248686   0.420   3.046  14.355 -0.3078  1.5415 -0.3199
 9091TIP3   OH248687   3.656   5.799  14.190  0.5827 -0.3529 -0.7854
 9091TIP3    H148688   3.747   5.814  14.165  0.3004 -0.2115 -1.7625
 9091TIP3    H248689   3.605   5.845  14.123 -0.2381 -1.8065 -1.1985
 9092TIP3   OH248690   2.565   2.599  14.832 -0.1508 -0.7181 -0.0150
 9092TIP3    H148691   2.626   2.541  14.785  0.5334 -2.1712  2.4774
 9092TIP3    H248692   2.622   2.656  14.884 -0.8559 -1.5250  1.7116
 9093TIP3   OH248693   2.076   2.973  16.104 -0.2868  0.8503 -0.7758
 9093TIP3    H148694   2.150   3.034  16.109 -0.3576  0.8571  0.6746
 9093TIP3    H248695   2.113   2.889  16.130 -0.9075  0.9863  0.6153
 9094TIP3   OH248696   3.125   0.179  13.572 -0.3238 -0.2645  0.1154
 9094TIP3    H148697   3.070   0.189  13.649 -1.7126  1.3706 -1.0209
 9094TIP3    H248698   3.066   0.191  13.498  1.2205 -0.3268 -1.1879
 9095TIP3   OH248699   5.228   6.662  13.643  0.0585 -0.1183  0.4957
 9095TIP3    H148700   5.291   6.591  13.632  2.8249  2.0407  1.0252
 9095TIP3    H248701   5.246   6.721  13.569 -1.7351  0.3343  0.3921
 9096TIP3   OH248702   4.841   3.911  13.319 -0.5578  0.0191 -0.1083
 9096TIP3    H148703   4.786   3.913  13.240  1.8772 -1.2456 -1.9687
 9096TIP3    H248704   4.847   3.818  13.341  1.0320  0.0918 -0.1416
 9097TIP3   OH248705   2.103   2.964  14.643  0.1804 -0.1491  0.5364
 9097TIP3    H148706   2.016   2.976  14.679 -0.1368  0.3848 -0.3715
 9097TIP3    H248707   2.153   2.921  14.713 -0.0737  1.9046  2.0516
 9098TIP3   OH248708   1.127   1.759   1.085 -0.1755 -0.4277 -0.6225
 9098TIP3    H148709   1.078   1.840   1.101  1.3337  0.5430 -0.6932
 9098TIP3    H248710   1.146   1.762   0.991  0.4961 -0.4940 -0.4914
 9099TIP3   OH248711   0.602   2.132  14.333 -0.5902  0.0759 -0.3726
 9099TIP3    H148712   0.593   2.200  14.266 -0.6336  0.1021 -0.3396
 9099TIP3    H248713   0.662   2.169  14.397  0.2233 -0.3198 -0.8839
 9100TIP3   OH248714   1.490   0.723  13.252  0.0820 -0.1007 -0.0132
 9100TIP3    H148715   1.423   0.655  13.249 -3.2532  2.7531  2.3600
 9100TIP3    H248716   1.481   0.769  13.169 -0.4682 -0.1081  0.0391
 9101TIP3   OH248717   4.466   1.384   3.429  0.8083 -0.0565  0.4876
 9101TIP3    H148718   4.387   1.343   3.462  1.1886  0.5026  2.1898
 9101TIP3    H248719   4.473   1.354   3.338 -1.4558  0.0736  0.2195
 9102TIP3   OH248720   1.088   4.619   1.422 -0.1735 -0.2452  0.1181
 9102TIP3    H148721   1.112   4.665   1.342  0.5305  1.8019  1.4509
 9102TIP3    H248722   1.142   4.540   1.421  0.0355 -0.1130 -1.2665
 9103TIP3   OH248723   4.226   0.656  14.519 -0.0121  0.1616  0.3190
 9103TIP3    H148724   4.291   0.701  14.574 -0.0341  0.5222  0.0504
 9103TIP3    H248725   4.177   0.727  14.477 -0.6046 -0.1058  0.5427
 9104TIP3   OH248726   1.571   1.865  15.754  0.9399 -0.2159 -0.3348
 9104TIP3    H148727   1.535   1.777  15.759 -4.9681  1.8165  1.1155
 9104TIP3    H248728   1.603   1.882  15.843 -0.4270 -0.1644  0.1827
 9105TIP3   OH248729   6.172   1.564   0.546 -0.7028 -0.2874 -0.4598
 9105TIP3    H148730   6.116   1.527   0.477  0.5672 -0.2124 -1.5816
 9105TIP3    H248731   6.159   1.658   0.539  0.0990 -0.2191 -1.2345
 9106TIP3   OH248732   3.441   0.395   0.263 -0.8246  0.1411 -0.4930
 9106TIP3    H148733   3.463   0.302   0.261  0.8659  0.3772  2.3322
 9106TIP3    H248734   3.526   0.439   0.255 -1.6718  1.5586 -2.7215
 9107TIP3   OH248735   4.459   1.840   1.631 -0.6577  0.1466  0.5593
 9107TIP3    H148736   4.436   1.825   1.540  0.3395 -1.3042  0.5127
 9107TIP3    H248737   4.546   1.802   1.641 -1.4127 -1.3082  2.4878
 9108TIP3   OH248738   3.594   2.163  15.991 -0.0344  0.3709 -0.0948
 9108TIP3    H148739   3.553   2.076  15.991  0.2120  0.2391  1.1162
 9108TIP3    H248740   3.672   2.152  15.936  0.5288 -0.4503  0.8400
 9109TIP3   OH248741   4.937   5.943   3.903  0.0258  0.6770  0.6251
 9109TIP3    H148742   5.022   5.987   3.894  0.5295 -0.5577 -1.3613
 9109TIP3    H248743   4.878   5.992   3.847 -0.4680  1.2390  1.6207
 9110TIP3   OH248744   3.035   3.364   2.445 -0.2384  0.4958 -0.0245
 9110TIP3    H148745   2.964   3.394   2.501  0.8327  1.4058  0.8962
 9110TIP3    H248746   3.054   3.275   2.475 -1.5597 -0.1178 -0.8947
 9111TIP3   OH248747   1.111   1.867   2.000 -0.0263 -0.1356 -0.4089
 9111TIP3    H148748   1.045   1.936   1.992  0.3629  0.3375  0.4222
 9111TIP3    H248749   1.187   1.901   1.952  0.5682  0.5313  0.9691
 9112TIP3   OH248750   0.179   1.336  14.720  0.0169  0.0616  0.1359
 9112TIP3    H148751   0.185   1.267  14.653 -1.4245  1.0431 -1.0589
 9112TIP3    H248752   0.086   1.338  14.745 -0.6362  3.4245 -1.9644
 9113TIP3   OH248753   3.062   6.015   5.420 -0.1132  0.5484  0.4193
 9113TIP3    H148754   3.010   6.004   5.499 -0.3613 -0.5449  0.1225
 9113TIP3    H248755   3.063   5.928   5.379 -0.4235  1.2038 -1.0382
 9114TIP3   OH248756   0.232   6.265  12.882 -0.0044 -0.2589  0.0132
 9114TIP3    H148757   0.264   6.259  12.792  0.5918 -0.7719  0.2603
 9114TIP3    H248758   0.286   6.333  12.922 -0.0749 -0.2387  0.0742
 9115TIP3   OH248759   3.009   2.543   3.749 -0.7146 -0.0918  0.7432
 9115TIP3    H148760   3.043   2.464   3.706 -2.0559  0.0326 -0.6821
 9115TIP3    H248761   2.969   2.593   3.677  0.1355  1.9209  1.6023
 9116TIP3   OH248762   3.491   0.988  16.366 -0.4869 -0.0066  0.3447
 9116TIP3    H148763   3.403   1.007  16.333 -0.2544  0.9220  0.2346
 9116TIP3    H248764   3.544   1.062  16.336  0.3785 -0.6644  0.2300
 9117TIP3   OH248765   2.815   3.410   4.553 -0.6368 -0.2241 -0.1959
 9117TIP3    H148766   2.881   3.480   4.555 -0.0482 -0.7198 -1.5107
 9117TIP3    H248767   2.797   3.396   4.460 -2.5575 -0.1686  0.1230
 9118TIP3   OH248768   2.059   5.748   3.733 -0.3280 -0.5103 -0.0723
 9118TIP3    H148769   2.153   5.744   3.716  0.0203 -0.5438  1.7415
 9118TIP3    H248770   2.050   5.739   3.828 -2.0853  0.9142 -0.0447
 9119TIP3   OH248771   3.920   5.031   4.278  0.3003 -0.2210  0.2946
 9119TIP3    H148772   3.929   5.126   4.285 -1.4634 -0.0369  0.5599
 9119TIP3    H248773   3.909   5.000   4.368  0.3665 -0.6168  0.1710
 9120TIP3   OH248774   3.122   5.511  12.051  0.0546  0.0839 -0.5161
 9120TIP3    H148775   3.130   5.500  11.957  0.6634 -1.1036 -0.3400
 9120TIP3    H248776   3.036   5.473  12.072 -0.0126  0.2050 -0.5725
 9121TIP3   OH248777   5.975   5.905  12.294  0.2003 -0.6029 -0.9558
 9121TIP3    H148778   6.007   5.990  12.324  0.3218 -0.6967 -0.8158
 9121TIP3    H248779   6.030   5.884  12.218  1.0152 -1.1315 -0.2350
 9122TIP3   OH248780   1.214   5.584  16.768 -0.2364  0.1409 -0.1198
 9122TIP3    H148781   1.228   5.677  16.748  0.7845  0.1890  0.7567
 9122TIP3    H248782   1.294   5.556  16.813 -1.0664 -0.8162  0.8267
 9123TIP3   OH248783   2.343   0.891  13.106 -0.5228 -0.7194 -0.4945
 9123TIP3    H148784   2.398   0.865  13.032 -0.8994 -0.3800 -0.8971
 9123TIP3    H248785   2.290   0.963  13.072  3.2076  3.5110  1.5359
 9124TIP3   OH248786   4.327   0.221   5.090 -0.3474  0.3387 -0.0697
 9124TIP3    H148787   4.308   0.314   5.098 -0.8367  0.0780  3.2291
 9124TIP3    H248788   4.420   0.217   5.067  0.0909  1.6828  1.3349
 9125TIP3   OH248789   1.635   3.610  12.115  0.3662 -0.8344  0.7132
 9125TIP3    H148790   1.625   3.588  12.022 -0.9845  1.8545  0.1407
 9125TIP3    H248791   1.691   3.540  12.150 -0.9766 -3.2199 -1.5649
 9126TIP3   OH248792   3.583   6.570  13.569  0.0293  0.5350  0.4822
 9126TIP3    H148793   3.489   6.554  13.566  0.1228 -0.0656  0.6053
 9126TIP3    H248794   3.593   6.662  13.543 -0.4432  0.1194 -1.3231
 9127TIP3   OH248795   0.612   5.681  13.192 -0.2796 -0.2804  0.1319
 9127TIP3    H148796   0.647   5.687  13.103 -0.5720 -0.3825  0.0110
 9127TIP3    H248797   0.645   5.759  13.236 -0.1025 -0.2495 -0.0545
 9128TIP3   OH248798   5.140   0.166   4.505 -0.1922 -0.4350  0.4665
 9128TIP3    H148799   5.071   0.188   4.442 -0.7390  1.6957  1.6908
 9128TIP3    H248800   5.213   0.135   4.451 -1.3541 -0.7088 -1.0206
 9129TIP3   OH248801   6.156   0.479  13.639 -0.3462  0.5385  0.0669
 9129TIP3    H148802   6.135   0.466  13.547  0.1920  0.1736 -0.0070
 9129TIP3    H248803   6.228   0.418  13.656 -0.1621  0.9061  0.6207
 9130TIP3   OH248804   1.413   2.358  12.059  0.3433 -0.4170  0.6504
 9130TIP3    H148805   1.389   2.379  12.149 -0.1241 -0.6058  0.5723
 9130TIP3    H248806   1.389   2.266  12.048 -1.5272  0.1367 -0.2846
 9131TIP3   OH248807   0.165   4.381   3.954 -0.8994 -0.1434 -0.2778
 9131TIP3    H148808   0.077   4.344   3.957 -0.0221 -2.3820 -0.4503
 9131TIP3    H248809   0.190   4.376   3.862  0.5644 -2.5790  0.1775
 9132TIP3   OH248810   5.082   2.205  10.942 -0.3771  0.2594 -0.1045
 9132TIP3    H148811   5.052   2.114  10.944 -2.5415  0.9233  1.0407
 9132TIP3    H248812   5.002   2.256  10.932  0.7312  2.0725 -0.1533
 9133TIP3   OH248813   4.268   1.309   2.410  0.0295  0.3153  0.2733
 9133TIP3    H148814   4.225   1.301   2.496  0.9375  1.5686  0.8696
 9133TIP3    H248815   4.220   1.247   2.354 -0.2306 -0.9274  1.8014
 9134TIP3   OH248816   4.223   3.962  12.810  0.5058  0.1720 -0.1671
 9134TIP3    H148817   4.163   3.958  12.885 -0.6491  0.1708 -1.0634
 9134TIP3    H248818   4.256   3.873  12.800  0.9618  0.2473  0.5502
 9135TIP3   OH248819   5.512   5.411   5.467  0.2573 -0.0835 -0.7669
 9135TIP3    H148820   5.582   5.469   5.493  0.5419  0.3199 -2.3184
 9135TIP3    H248821   5.550   5.323   5.470  1.8833  0.3144 -4.4039
 9136TIP3   OH248822   3.498   1.832   3.196 -0.3436 -0.5520 -0.1649
 9136TIP3    H148823   3.516   1.761   3.257 -3.7118  1.1145  3.1012
 9136TIP3    H248824   3.556   1.903   3.224 -1.9988  0.2657  1.3702
 9137TIP3   OH248825   6.092   5.100  15.022 -0.1320 -0.4977 -0.0157
 9137TIP3    H148826   6.151   5.030  14.996  0.6711 -0.3297  1.2753
 9137TIP3    H248827   6.149   5.171  15.051 -0.8519 -1.1619  3.4816
 9138TIP3   OH248828   0.192   3.363   3.946 -0.4482 -0.7929 -0.5201
 9138TIP3    H148829   0.109   3.334   3.982 -1.7464  0.7409 -2.1294
 9138TIP3    H248830   0.230   3.285   3.906 -1.5325 -1.3285 -0.5344
 9139TIP3   OH248831   2.640   3.012  16.127  0.2583 -0.2111  0.2105
 9139TIP3    H148832   2.661   2.939  16.068 -0.9372 -0.1537 -0.3094
 9139TIP3    H248833   2.675   3.089  16.083  0.9758 -0.3863  0.4629
 9140TIP3   OH248834   2.782   0.296  14.726  0.2731  0.1880 -0.0457
 9140TIP3    H148835   2.875   0.273  14.739  0.1138 -0.0804  0.7004
 9140TIP3    H248836   2.749   0.228  14.667  0.5245  0.2122 -0.2166
 9141TIP3   OH248837   4.294   2.264   4.087 -0.2368 -0.7233  0.3336
 9141TIP3    H148838   4.305   2.174   4.055  0.3154 -0.2637 -0.8036
 9141TIP3    H248839   4.348   2.267   4.167  2.5774 -0.4921 -1.4308
 9142TIP3   OH248840   0.050   0.754  16.945  0.0342 -0.0036 -0.5506
 9142TIP3    H148841   0.094   0.681  16.902  0.3900  0.8115 -1.6188
 9142TIP3    H248842   0.049   0.823  16.879  0.3038  1.1799  0.6463
 9143TIP3   OH248843   4.951   2.995  15.080 -0.0928  0.1340 -0.1716
 9143TIP3    H148844   4.896   2.983  15.002 -3.1094  0.3473  1.7465
 9143TIP3    H248845   4.951   3.090  15.095  0.8991  0.1415 -0.1712
 9144TIP3   OH248846   0.269   4.805  15.030  0.1143  0.2786  0.1111
 9144TIP3    H148847   0.220   4.835  15.106  0.7780  0.3890  0.5107
 9144TIP3    H248848   0.230   4.851  14.956 -0.7091 -0.0336  0.3507
 9145TIP3   OH248849   4.880   2.602  17.113  0.2622 -0.1268 -0.4359
 9145TIP3    H148850   4.926   2.520  17.095 -0.9152 -0.9578  0.2272
 9145TIP3    H248851   4.819   2.613  17.040  1.2962  0.8568 -1.1943
 9146TIP3   OH248852   6.184   2.196   2.695 -0.2611 -0.1203  0.2913
 9146TIP3    H148853   6.152   2.285   2.679 -1.0214 -0.3946  0.2356
 9146TIP3    H248854   6.278   2.201   2.678 -0.2004  0.8038  0.8551
 9147TIP3   OH248855   5.906   3.008  11.312  0.0786 -0.8053  0.0751
 9147TIP3    H148856   5.901   3.084  11.254 -0.3350 -0.9841 -0.1256
 9147TIP3    H248857   5.831   2.954  11.287  0.3774 -1.2835  0.2137
 9148TIP3   OH248858   3.147   0.389   2.987 -0.2075  0.0580  0.1236
 9148TIP3    H148859   3.105   0.303   2.998 -0.8078  0.0976 -1.4537
 9148TIP3    H248860   3.204   0.378   2.911 -1.4200  1.3934 -1.0702
 9149TIP3   OH248861   2.783   3.051  12.105  0.5230  0.2200  0.3873
 9149TIP3    H148862   2.804   2.990  12.176 -0.5993 -0.3513  0.2467
 9149TIP3    H248863   2.689   3.042  12.093  0.5406  1.0682 -0.4938
 9150TIP3   OH248864   6.198   6.684  16.897 -0.0506  0.3051 -0.2737
 9150TIP3    H148865   6.130   6.710  16.959 -0.8541  0.8246 -1.3457
 9150TIP3    H248866   6.259   6.758  16.895 -1.1256  1.1965 -1.6177
 9151TIP3   OH248867   1.562   4.114  16.697 -0.0470  0.6757 -0.2772
 9151TIP3    H148868   1.598   4.190  16.742 -0.2502  0.8431 -0.3928
 9151TIP3    H248869   1.535   4.148  16.611  0.3435  0.3623 -0.5306
 9152TIP3   OH248870   6.289   2.379  15.441 -0.3673 -0.4603  0.1512
 9152TIP3    H148871   6.352   2.313  15.469 -1.4234 -1.7909 -0.4524
 9152TIP3    H248872   6.331   2.425  15.369  0.6878  0.0914  1.0810
 9153TIP3   OH248873   4.881   3.402   1.424  0.3282 -0.8361  0.0754
 9153TIP3    H148874   4.826   3.467   1.381  0.9367  0.3733  1.0542
 9153TIP3    H248875   4.832   3.379   1.503  1.0550  0.0313  0.8033
 9154TIP3   OH248876   1.001   4.547  16.868 -0.0812  0.1292  0.8688
 9154TIP3    H148877   0.908   4.538  16.847 -0.7325  0.1461  3.3828
 9154TIP3    H248878   1.012   4.639  16.891  0.8001  0.3376 -0.2982
 9155TIP3   OH248879   1.764   1.854   2.362  0.5267 -0.6852 -0.4549
 9155TIP3    H148880   1.764   1.759   2.369 -1.3918 -0.6447  0.7346
 9155TIP3    H248881   1.806   1.884   2.442  1.5127 -0.5005 -1.0199
 9156TIP3   OH248882   1.464   2.898  15.091 -0.1225 -0.4743 -0.1257
 9156TIP3    H148883   1.524   2.827  15.115 -0.0338  0.5620  3.1939
 9156TIP3    H248884   1.433   2.932  15.175 -2.6238  1.3639 -1.6897
 9157TIP3   OH248885   5.571   6.580  15.645  0.1850 -0.1955 -0.4568
 9157TIP3    H148886   5.512   6.558  15.572 -1.1693  2.7822 -0.4011
 9157TIP3    H248887   5.574   6.676  15.645  0.1852 -0.0623  3.3689
 9158TIP3   OH248888   5.817   5.745   3.923  0.3084  0.1968  0.4382
 9158TIP3    H148889   5.838   5.782   4.008 -0.3787  2.0620 -0.1563
 9158TIP3    H248890   5.728   5.711   3.933 -0.5613  2.2153 -0.0331
 9159TIP3   OH248891   1.378   4.439   4.374 -0.0135  0.7087 -0.5159
 9159TIP3    H148892   1.348   4.350   4.358  0.5263  0.5904 -0.8754
 9159TIP3    H248893   1.309   4.478   4.429  0.7093 -0.5679  1.4037
 9160TIP3   OH248894   2.520   4.290  16.788 -0.1652 -0.1186  0.2206
 9160TIP3    H148895   2.608   4.283  16.752  0.7137  1.1721  1.9959
 9160TIP3    H248896   2.463   4.291  16.711  1.3090 -1.3515 -0.9478
 9161TIP3   OH248897   6.092   4.015   3.677  0.8903 -0.0308  0.0799
 9161TIP3    H148898   6.098   3.921   3.657 -1.5632 -0.2022 -0.1669
 9161TIP3    H248899   6.038   4.018   3.757 -0.0561  1.1887 -0.5768
 9162TIP3   OH248900   4.396   5.641  13.093  0.6302  0.3833 -0.3658
 9162TIP3    H148901   4.340   5.637  13.016  0.3312 -0.7356 -0.1101
 9162TIP3    H248902   4.485   5.643  13.058  0.4829  0.2357 -0.7534
 9163TIP3   OH248903   0.739   0.629  11.176  0.1793 -0.2498 -0.3176
 9163TIP3    H148904   0.703   0.700  11.123  0.7963 -0.0493 -0.4812
 9163TIP3    H248905   0.673   0.559  11.172 -1.5351  1.1301  1.7350
 9164TIP3   OH248906   1.757   4.204  12.075 -0.9107 -0.6148 -0.2100
 9164TIP3    H148907   1.786   4.119  12.108  1.2727  0.3075  0.4709
 9164TIP3    H248908   1.753   4.193  11.980  1.3191 -1.0225 -0.3306
 9165TIP3   OH248909   4.809   6.325  10.575 -0.0001 -0.2384  0.2070
 9165TIP3    H148910   4.812   6.408  10.622  0.9577 -0.2528  0.1928
 9165TIP3    H248911   4.826   6.348  10.484  1.1021 -0.5213  0.3235
 9166TIP3   OH248912   5.441   1.137  11.823  0.2301 -0.0369 -0.0352
 9166TIP3    H148913   5.503   1.188  11.772  0.7198 -0.9639 -0.3930
 9166TIP3    H248914   5.486   1.055  11.841  0.1609  0.3313  2.1008
 9167TIP3   OH248915   4.148   6.412   1.164 -0.2726  0.2378  0.6436
 9167TIP3    H148916   4.243   6.402   1.177 -0.0216  0.6542 -0.7432
 9167TIP3    H248917   4.125   6.344   1.102 -0.7685  0.5390  0.4936
 9168TIP3   OH248918   4.434   1.676   3.443  0.3426  0.6657 -0.6200
 9168TIP3    H148919   4.452   1.585   3.419 -1.0289  0.7705 -2.2688
 9168TIP3    H248920   4.519   1.719   3.442  0.8569 -0.3447 -1.0488
 9169TIP3   OH248921   1.386   5.635  11.499 -0.1754 -0.2095  0.0025
 9169TIP3    H148922   1.344   5.610  11.417 -0.0255 -0.8607  0.1245
 9169TIP3    H248923   1.382   5.557  11.554  0.3473  0.0070  0.3637
 9170TIP3   OH248924   1.107   1.168  12.354  0.2671 -0.7074 -0.0786
 9170TIP3    H148925   1.070   1.237  12.410 -0.1336 -1.3424  0.4598
 9170TIP3    H248926   1.117   1.209  12.269 -0.5750 -0.1667  0.0672
 9171TIP3   OH248927   1.761   6.759   0.454 -0.0418 -0.2476  0.4903
 9171TIP3    H148928   1.800   6.701   0.519  1.3719 -2.2189 -1.9418
 9171TIP3    H248929   1.815   6.839   0.456  0.4044 -0.5649  1.2530
 9172TIP3   OH248930   6.421   0.349  13.619  0.1007  0.1936 -0.0239
 9172TIP3    H148931   6.506   0.394  13.613 -0.3650  1.2368  0.8061
 9172TIP3    H248932   6.441   0.265  13.660  0.6048  0.8759  1.1857
 9173TIP3   OH248933   2.340   5.976  16.023  0.5295  0.1446 -0.0511
 9173TIP3    H148934   2.278   5.936  15.962  0.5639 -0.3474  0.2308
 9173TIP3    H248935   2.351   5.911  16.092 -1.1386  1.5131  1.6077
 9174TIP3   OH248936   5.764   6.580   5.916  0.9749  0.2683 -0.1358
 9174TIP3    H148937   5.762   6.632   5.996 -2.2777  0.0477  0.0403
 9174TIP3    H248938   5.736   6.492   5.944  2.4054 -0.5372 -1.1087
 9175TIP3   OH248939   2.439   5.093   1.674  0.1794 -0.0390 -0.3405
 9175TIP3    H148940   2.367   5.155   1.671  0.9780  1.0185  1.0919
 9175TIP3    H248941   2.499   5.122   1.606 -0.3184 -0.4067 -0.9514
 9176TIP3   OH248942   1.972   2.362   3.393 -0.3865 -0.2321 -0.0852
 9176TIP3    H148943   2.048   2.343   3.448 -1.5617  1.7815  2.4613
 9176TIP3    H248944   1.985   2.453   3.365 -1.8917  0.1867  0.5038
 9177TIP3   OH248945   5.608   3.916   0.233  0.1296 -0.5861  0.2990
 9177TIP3    H148946   5.685   3.880   0.276 -1.9030 -4.5292  1.1677
 9177TIP3    H248947   5.609   4.009   0.254  2.7100 -1.1500  3.3666
 9178TIP3   OH248948   6.222   1.909   2.769  0.3317 -0.1063 -0.0479
 9178TIP3    H148949   6.192   1.873   2.852  0.9557  2.2457  1.2843
 9178TIP3    H248950   6.187   1.998   2.767  2.0836  0.6094 -1.3175
 9179TIP3   OH248951   2.886   5.754   3.523 -0.0961 -0.2558  0.3262
 9179TIP3    H148952   2.802   5.715   3.545 -1.7095  1.3009 -2.4768
 9179TIP3    H248953   2.873   5.848   3.535  1.1293  0.0365 -0.4835
 9180TIP3   OH248954   0.364   0.872  15.255 -0.3080  0.1788 -0.1727
 9180TIP3    H148955   0.400   0.960  15.264  1.1508 -0.0667 -2.6760
 9180TIP3    H248956   0.270   0.885  15.243 -0.6801  1.0788  2.8711
 9181TIP3   OH248957   5.779   4.568   3.140  0.0410  0.1542  0.1226
 9181TIP3    H148958   5.845   4.615   3.191 -0.3891  0.0477  0.7968
 9181TIP3    H248959   5.809   4.573   3.049  0.7178  0.5213  0.3667
 9182TIP3   OH248960   6.163   5.097   0.019 -0.7303  0.8938  0.3213
 9182TIP3    H148961   6.237   5.098  -0.042 -0.5582  0.2363  0.5047
 9182TIP3    H248962   6.088   5.074  -0.035 -0.3765 -0.9671  0.5214
 9183TIP3   OH248963   0.852   3.995   2.165 -0.4175  0.4284 -0.0334
 9183TIP3    H148964   0.816   3.909   2.140  0.4235 -0.4938  1.7701
 9183TIP3    H248965   0.916   4.014   2.097 -0.6196 -0.3730 -0.4659
 9184TIP3   OH248966   3.528   1.413  12.939  0.0395 -0.1396 -0.0226
 9184TIP3    H148967   3.564   1.372  12.860 -1.9997 -0.8291 -0.6578
 9184TIP3    H248968   3.591   1.482  12.961  1.2308 -0.6696 -1.5914
 9185TIP3   OH248969   2.817   4.471   3.538  0.8802  0.2665  0.1932
 9185TIP3    H148970   2.762   4.543   3.567 -1.3262 -1.5086  0.6445
 9185TIP3    H248971   2.897   4.479   3.591  0.9845  2.6650 -0.2093
 9186TIP3   OH248972   6.198   2.548  15.853  0.1049  0.0367  0.3774
 9186TIP3    H148973   6.203   2.629  15.803 -0.6558 -0.4359 -0.4789
 9186TIP3    H248974   6.289   2.526  15.872  0.5685 -0.7395 -2.3801
 9187TIP3   OH248975   0.630   2.965  15.954 -0.4511 -0.4238 -0.1891
 9187TIP3    H148976   0.629   3.041  15.896  0.9271 -0.0357  0.2470
 9187TIP3    H248977   0.723   2.949  15.971 -0.7661 -1.5128  0.6318
 9188TIP3   OH248978   0.465   5.205   3.241  0.0232 -0.2805 -0.2728
 9188TIP3    H148979   0.438   5.269   3.176 -0.7753 -0.2853  0.0368
 9188TIP3    H248980   0.543   5.164   3.205  0.4033  0.6962 -0.5830
 9189TIP3   OH248981   4.627   5.715  15.768 -0.1196  0.2614  0.6771
 9189TIP3    H148982   4.701   5.724  15.709 -0.1542  0.5087  0.6702
 9189TIP3    H248983   4.584   5.634  15.741  0.3112 -0.0338  0.8658
 9190TIP3   OH248984   3.215   0.844   5.138 -0.0852  0.5191  0.1759
 9190TIP3    H148985   3.204   0.758   5.096  0.5457  0.7789 -0.5334
 9190TIP3    H248986   3.267   0.825   5.216  1.4806  0.4634 -0.8374
 9191TIP3   OH248987   4.091   2.868   4.984  0.3093 -0.0661 -0.0090
 9191TIP3    H148988   3.997   2.851   4.992  0.6329 -2.0743  0.0573
 9191TIP3    H248989   4.117   2.902   5.069 -0.1214 -0.8266  0.4370
 9192TIP3   OH248990   0.603   5.535  11.763  0.1052 -0.5123 -0.4330
 9192TIP3    H148991   0.583   5.449  11.727 -1.3870 -0.3384 -0.0872
 9192TIP3    H248992   0.529   5.590  11.737 -1.5230 -0.5373  3.3810
 9193TIP3   OH248993   4.205   0.205   4.535 -0.4040 -0.5690 -0.4966
 9193TIP3    H148994   4.229   0.124   4.490  0.2490 -0.4419 -0.3875
 9193TIP3    H248995   4.281   0.225   4.590 -0.5479  0.1381 -0.5507
 9194TIP3   OH248996   1.441   0.480  14.846  0.2290  0.2988  0.1693
 9194TIP3    H148997   1.395   0.503  14.927 -1.4524 -2.1963  0.0273
 9194TIP3    H248998   1.519   0.434  14.875  0.4647  0.8294  0.3834
 9195TIP3   OH248999   6.533   0.060  13.385  0.8391 -0.1258  0.1737
 9195TIP3    H149000   6.611   0.113  13.369 -0.6756  1.7375 -1.5688
 9195TIP3    H249001   6.535  -0.008  13.318  1.9719 -1.4585  1.4553
 9196TIP3   OH249002   5.673   4.889   6.264 -0.1849  0.7158  0.2761
 9196TIP3    H149003   5.651   4.815   6.208 -2.1261  1.1084  0.4529
 9196TIP3    H249004   5.708   4.849   6.344  1.4690  0.1223 -0.6968
 9197TIP3   OH249005   5.041   5.561   2.473 -0.5100 -0.0659  0.1292
 9197TIP3    H149006   5.127   5.588   2.506  0.0932 -0.2541 -1.2521
 9197TIP3    H249007   5.008   5.638   2.426 -0.6567 -0.3302 -0.1995
 9198TIP3   OH249008   5.099   5.025  12.073  0.1774  0.3068 -0.5293
 9198TIP3    H149009   5.041   5.036  11.997  0.4328 -1.5741 -1.0293
 9198TIP3    H249010   5.066   5.090  12.136 -2.4696 -0.6243 -0.8071
 9199TIP3   OH249011   2.746   1.518   6.720 -0.0057 -0.2623 -0.4670
 9199TIP3    H149012   2.660   1.555   6.743  1.1864  1.2909  1.8927
 9199TIP3    H249013   2.744   1.429   6.755 -0.0472  0.3925  1.2829
 9200TIP3   OH249014   3.972   5.445   3.716 -0.1895  0.2234 -0.7275
 9200TIP3    H149015   3.913   5.450   3.641 -1.3327  0.5371  0.1709
 9200TIP3    H249016   3.956   5.358   3.754  0.9595 -0.2557 -1.2829
 9201TIP3   OH249017   4.136   1.762   5.677  0.0394 -0.5248  0.0694
 9201TIP3    H149018   4.188   1.773   5.597 -0.3048 -0.9989 -0.2224
 9201TIP3    H249019   4.047   1.749   5.646 -0.0060 -1.3124  0.5034
 9202TIP3   OH249020   2.065   5.649   2.274 -0.2783  0.3992  0.0384
 9202TIP3    H149021   2.122   5.624   2.347  0.6715 -1.2043 -1.1874
 9202TIP3    H249022   2.067   5.574   2.215 -1.2480  1.5382 -1.5272
 9203TIP3   OH249023   4.107   5.250  11.399 -0.1287 -0.4458 -0.4629
 9203TIP3    H149024   4.117   5.289  11.312  2.6155  1.4478  0.5674
 9203TIP3    H249025   4.045   5.307  11.444  0.0616 -0.2103 -0.5035
 9204TIP3   OH249026   0.936   3.218   0.359 -0.4261  0.3436  0.0237
 9204TIP3    H149027   1.003   3.209   0.427 -0.3044 -1.0534 -0.2426
 9204TIP3    H249028   0.963   3.295   0.308  0.5062  0.2991  0.4293
 9205TIP3   OH249029   5.484   1.486   5.235  0.1949  0.1053  0.3153
 9205TIP3    H149030   5.440   1.437   5.165 -1.4737  0.4187  1.0904
 9205TIP3    H249031   5.520   1.418   5.292  0.0869 -0.1775  0.0513
 9206TIP3   OH249032   2.047   1.675  16.809  0.1631  0.1011  0.3125
 9206TIP3    H149033   2.093   1.630  16.738 -0.4850  0.2149 -0.1800
 9206TIP3    H249034   2.085   1.637  16.889  2.4611  1.5189 -0.0331
 9207TIP3   OH249035   4.271   1.801   3.261  0.1157 -0.3462 -0.8379
 9207TIP3    H149036   4.287   1.771   3.171  2.2240  0.2273 -0.7061
 9207TIP3    H249037   4.287   1.725   3.316 -0.7140 -0.5698 -0.8800
 9208TIP3   OH249038   1.611   5.651   2.308  0.5955  0.4301 -0.0413
 9208TIP3    H149039   1.584   5.743   2.314 -2.4539 -0.4695  3.6644
 9208TIP3    H249040   1.698   5.649   2.347  0.6414  1.7315 -0.0345
 9209TIP3   OH249041   0.413   1.318   6.073  0.1881 -0.0758  0.1822
 9209TIP3    H149042   0.413   1.240   6.128 -0.4192  0.5203  1.0555
 9209TIP3    H249043   0.370   1.385   6.126  0.1323  0.6853 -0.7899
 9210TIP3   OH249044   4.977   1.219  13.716 -0.2872  0.2197  0.0913
 9210TIP3    H149045   4.981   1.203  13.810 -0.8457  0.1782  0.1114
 9210TIP3    H249046   5.054   1.174  13.680 -1.3771 -1.8792  0.2370
 9211TIP3   OH249047   5.295   0.191  15.474 -0.6667 -0.3961  0.2172
 9211TIP3    H149048   5.211   0.185  15.429 -0.5269 -2.0592  0.1194
 9211TIP3    H249049   5.345   0.254  15.422 -1.6052  0.0947 -0.1107
 9212TIP3   OH249050   3.741   6.648   3.010  0.3949  0.1580  0.3513
 9212TIP3    H149051   3.706   6.669   2.923 -1.2560 -2.1088  0.3749
 9212TIP3    H249052   3.773   6.732   3.043 -2.3390  1.8954 -0.9431
 9213TIP3   OH249053   6.742   0.185  15.488 -0.7677  0.2478 -0.2655
 9213TIP3    H149054   6.795   0.155  15.414 -2.2656 -0.5127 -1.0802
 9213TIP3    H249055   6.654   0.195  15.452 -0.8549  3.5017  0.5208
 9214TIP3   OH249056   0.510   3.808  12.629  0.8362  0.2350 -0.1156
 9214TIP3    H149057   0.556   3.862  12.693 -2.7654  1.4714  1.6882
 9214TIP3    H249058   0.467   3.870  12.571 -0.4061 -0.7395 -0.2961
 9215TIP3   OH249059   3.522   2.156  13.651  0.3014 -0.2256 -0.0211
 9215TIP3    H149060   3.494   2.246  13.633 -0.2891 -0.3121  0.4437
 9215TIP3    H249061   3.511   2.111  13.567 -0.9768 -0.2554  0.1397
 9216TIP3   OH249062   5.642   5.230  11.578 -0.6878  0.4214  0.2353
 9216TIP3    H149063   5.703   5.157  11.572 -1.5661 -0.2120 -2.2388
 9216TIP3    H249064   5.698   5.308  11.581  0.2614 -0.2153 -0.4367
 9217TIP3   OH249065   1.511   4.600  12.619  0.0923  0.2146  0.0281
 9217TIP3    H149066   1.477   4.564  12.537  1.0677 -1.2064  0.2145
 9217TIP3    H249067   1.605   4.581  12.616  1.0699  4.2412 -0.6011
 9218TIP3   OH249068   4.124   4.779  11.251 -0.7417  0.3071 -0.9490
 9218TIP3    H149069   4.087   4.738  11.329  0.9518 -0.0660 -0.2938
 9218TIP3    H249070   4.115   4.714  11.182  1.5607 -1.1178 -0.0152
 9219TIP3   OH249071   0.138   0.145   3.983  0.7689 -0.6307 -0.5647
 9219TIP3    H149072   0.124   0.238   3.966 -2.8751 -1.1258 -1.2435
 9219TIP3    H249073   0.208   0.120   3.924  0.7250  1.3690 -1.5528
 9220TIP3   OH249074   2.808   5.468  11.438  0.3928 -0.0707  0.6563
 9220TIP3    H149075   2.900   5.470  11.465 -0.2959  1.7073  3.1890
 9220TIP3    H249076   2.768   5.402  11.494 -0.0111 -0.4928 -0.1021
 9221TIP3   OH249077   3.594   6.428   5.268  0.4010  0.3804 -0.5212
 9221TIP3    H149078   3.656   6.355   5.264  0.6168  0.5121  0.2651
 9221TIP3    H249079   3.638   6.499   5.221  0.7962  0.4255 -0.0978
 9222TIP3   OH249080   1.488   5.456  11.713 -0.6328  0.7282 -0.1480
 9222TIP3    H149081   1.555   5.397  11.676 -1.3900 -0.0477 -0.3200
 9222TIP3    H249082   1.454   5.408  11.788 -2.1682  0.3490 -1.0482
 9223TIP3   OH249083   5.933   5.897   1.647  0.3538 -0.0038  0.6562
 9223TIP3    H149084   5.844   5.930   1.630  0.4725  0.0997  0.2267
 9223TIP3    H249085   5.930   5.866   1.738 -0.4939 -1.1894  0.2639
 9224TIP3   OH249086   4.468   0.022  12.071 -0.0267  0.1741  0.1192
 9224TIP3    H149087   4.381   0.011  12.033  0.2170 -0.1030 -0.3791
 9224TIP3    H249088   4.467   0.110  12.108 -0.9448 -0.3020  1.2802
 9225TIP3   OH249089   6.620   2.916   0.712 -0.2575  0.3268 -0.1149
 9225TIP3    H149090   6.615   2.848   0.645 -0.7160 -0.1055  0.3413
 9225TIP3    H249091   6.632   2.997   0.664 -0.9461  0.0669 -0.7419
 9226TIP3   OH249092   0.755   0.782   5.900 -0.0184  0.6200  0.2223
 9226TIP3    H149093   0.688   0.850   5.907 -0.3359  0.3126  0.1838
 9226TIP3    H249094   0.835   0.824   5.933  0.0867  1.4180 -0.9873
 9227TIP3   OH249095   1.978   5.969  15.276  0.1082  0.7305 -0.4182
 9227TIP3    H149096   1.886   5.945  15.268  0.1724  0.6526 -0.9731
 9227TIP3    H249097   2.025   5.898  15.233  0.4653  0.4795  0.3812
 9228TIP3   OH249098   6.678   4.659   4.395  0.0755 -0.3810  0.3553
 9228TIP3    H149099   6.602   4.650   4.453 -1.8583  1.5107 -1.6556
 9228TIP3    H249100   6.724   4.736   4.428 -0.2173 -0.1504  0.2325
 9229TIP3   OH249101   5.903   5.052   0.186  0.2835  0.0417 -0.0544
 9229TIP3    H149102   5.994   5.047   0.218  0.3640 -2.4243 -0.4815
 9229TIP3    H249103   5.857   4.984   0.234 -1.0254  0.3094 -0.8821
 9230TIP3   OH249104   1.298   5.245  13.623 -0.1350  0.1426  0.2265
 9230TIP3    H149105   1.264   5.298  13.695  0.0616  0.7240 -0.1077
 9230TIP3    H249106   1.393   5.249  13.632 -0.1042 -1.7005  1.3192
 9231TIP3   OH249107   0.521   0.249  12.054  0.1584  0.5774  0.0553
 9231TIP3    H149108   0.612   0.225  12.039  0.6312  0.3426  2.6859
 9231TIP3    H249109   0.490   0.183  12.117 -2.3547 -0.3067 -1.9226
 9232TIP3   OH249110   6.290   5.199   0.954  0.1342 -0.5433  0.4278
 9232TIP3    H149111   6.346   5.277   0.955 -1.6351  0.7764  1.6325
 9232TIP3    H249112   6.297   5.163   1.043  0.0665 -1.1364  0.1995
 9233TIP3   OH249113   6.167   5.083   0.282  0.2739 -0.0041  0.1357
 9233TIP3    H149114   6.170   4.991   0.306  2.2186  0.1474  0.5967
 9233TIP3    H249115   6.179   5.084   0.187 -1.8636 -0.2963 -0.1852
 9234TIP3   OH249116   5.819   5.408   4.389  0.4658 -0.9167  0.3310
 9234TIP3    H149117   5.873   5.485   4.369  0.3421 -0.5235  1.4541
 9234TIP3    H249118   5.878   5.334   4.379  1.1566 -0.5126  1.2770
 9235TIP3   OH249119   6.371   3.357  14.972  0.1343  0.6214 -0.4121
 9235TIP3    H149120   6.462   3.340  14.947  0.1568  0.4713 -0.2362
 9235TIP3    H249121   6.326   3.374  14.890  0.2294  0.2480 -0.5459
 9236TIP3   OH249122   6.684   2.930   6.326 -0.0362  0.1849 -0.0775
 9236TIP3    H149123   6.709   2.961   6.239  0.2143 -2.2849 -0.9888
 9236TIP3    H249124   6.600   2.973   6.344 -1.7620 -1.5806 -3.0329
 9237TIP3   OH249125   2.904   6.213  10.345  0.0361  0.6607 -0.0157
 9237TIP3    H149126   2.882   6.147  10.279 -2.0474  1.9582 -0.7081
 9237TIP3    H249127   2.822   6.228  10.392  0.9909  1.2828  1.5001
 9238TIP3   OH249128   6.581   3.871   1.481 -0.1170 -0.3738  0.5600
 9238TIP3    H149129   6.631   3.820   1.417 -0.3043 -0.6003  0.5931
 9238TIP3    H249130   6.506   3.904   1.432 -1.4362 -2.3362  1.1528
 9239TIP3   OH249131   6.752   0.841   1.764 -0.1990 -0.0227 -0.1762
 9239TIP3    H149132   6.737   0.747   1.758  1.8109 -0.3984 -0.1923
 9239TIP3    H249133   6.762   0.857   1.858  2.0858 -0.3555 -0.3100
 9240TIP3   OH249134   1.520   4.200   4.068 -0.2122 -0.0935  0.3983
 9240TIP3    H149135   1.446   4.203   4.129 -0.4319 -0.6692  0.1665
 9240TIP3    H249136   1.567   4.282   4.083 -1.2989  0.6128  0.0512
 9241TIP3   OH249137   1.716   4.892   1.775  0.2915 -0.3948  0.2634
 9241TIP3    H149138   1.806   4.922   1.766 -0.4913  1.5496 -1.9836
 9241TIP3    H249139   1.720   4.798   1.755  2.0301 -0.7821  2.1218
 9242TIP3   OH249140   1.449   5.727  15.419 -0.1582 -0.0045 -0.3615
 9242TIP3    H149141   1.488   5.812  15.442 -2.1024  0.9417 -0.3939
 9242TIP3    H249142   1.515   5.686  15.362 -0.6554  3.1751 -3.6254
 9243TIP3   OH249143   6.739   3.848  14.701 -0.0623  0.5777 -0.4582
 9243TIP3    H149144   6.663   3.801  14.737  0.1882  0.0115 -0.6544
 9243TIP3    H249145   6.801   3.851  14.773 -0.5269  1.6345 -0.0907
 9244TIP3   OH249146   5.628   2.190  16.659 -0.4729 -0.0034  0.1461
 9244TIP3    H149147   5.649   2.101  16.685  1.1082  0.7307  1.5711
 9244TIP3    H249148   5.651   2.195  16.566  2.6295 -0.2230  0.8084
 9245TIP3   OH249149   0.588   5.950   0.439  0.1243  0.4826  0.3697
 9245TIP3    H149150   0.645   5.901   0.499  0.0991  1.2393  1.0265
 9245TIP3    H249151   0.592   6.040   0.471 -0.9369  0.6558  0.0283
 9246TIP3   OH249152   1.921   0.403  14.105  0.0139  0.6740  0.4981
 9246TIP3    H149153   1.932   0.498  14.112 -1.3960  1.2926 -3.0222
 9246TIP3    H249154   1.826   0.391  14.098  0.2334 -0.8234 -0.3496
 9247TIP3   OH249155   4.790   1.907  16.269  0.3858  0.0329 -0.5870
 9247TIP3    H149156   4.729   1.897  16.196 -0.3906  1.1950 -0.1383
 9247TIP3    H249157   4.789   1.823  16.314  0.9565 -0.7393 -1.9540
 9248TIP3   OH249158   3.933   0.522  16.914  0.2530  0.2600 -0.5939
 9248TIP3    H149159   3.852   0.549  16.870 -0.4842 -0.5152  0.2517
 9248TIP3    H249160   3.987   0.486  16.844 -0.5655 -0.1911 -1.0097
 9249TIP3   OH249161   0.344   4.481  15.916 -0.3545 -0.2282 -0.3233
 9249TIP3    H149162   0.269   4.540  15.905  0.3322  0.8159  0.4297
 9249TIP3    H249163   0.419   4.531  15.885  0.4785 -0.0654  1.8087
 9250TIP3   OH249164   5.433   2.800  13.288  0.0624  0.0155 -0.5862
 9250TIP3    H149165   5.361   2.799  13.350 -0.1546 -2.6645 -0.7959
 9250TIP3    H249166   5.392   2.797  13.202  0.4159  0.6268 -0.7862
 9251TIP3   OH249167   2.384   2.573   2.755 -0.5066  0.7269 -0.1434
 9251TIP3    H149168   2.367   2.504   2.819  0.5662  0.7924  0.2208
 9251TIP3    H249169   2.466   2.612   2.783 -0.2999  1.1172 -1.2632
 9252TIP3   OH249170   3.305   0.105   5.410 -0.5926 -0.3039 -0.3254
 9252TIP3    H149171   3.257   0.022   5.408 -0.9318 -0.1406  0.4883
 9252TIP3    H249172   3.325   0.118   5.503 -1.6149  1.1416 -0.2838
 9253TIP3   OH249173   6.126   1.492   5.208 -0.7253 -0.0395  0.0878
 9253TIP3    H149174   6.041   1.455   5.187 -0.2862 -2.2082  1.7644
 9253TIP3    H249175   6.126   1.498   5.304  0.8068  0.4666  0.0869
 9254TIP3   OH249176   0.047   5.711  11.240 -0.1447 -0.1971  0.8993
 9254TIP3    H149177   0.032   5.715  11.334 -2.5581 -2.8312  0.7351
 9254TIP3    H249178   0.055   5.618  11.220 -0.2520  0.2505 -1.5733
 9255TIP3   OH249179   1.795   2.553   2.008 -0.0201 -0.1244  0.7067
 9255TIP3    H149180   1.873   2.534   2.060  0.0122 -1.8084  0.1033
 9255TIP3    H249181   1.737   2.478   2.023 -1.0191  0.5167  0.1825
 9256TIP3   OH249182   0.575   6.390  14.423  0.1955 -0.4669 -0.2935
 9256TIP3    H149183   0.645   6.329  14.445  0.4104 -1.7647 -3.9952
 9256TIP3    H249184   0.616   6.477  14.431  1.1650 -0.9992  0.8364
 9257TIP3   OH249185   5.515   2.839  15.637  0.7158  0.2732  0.3540
 9257TIP3    H149186   5.465   2.799  15.708  1.1255 -0.2803  0.3360
 9257TIP3    H249187   5.457   2.833  15.561  0.7364 -0.2113  0.3724
 9258TIP3   OH249188   2.115   2.216   4.929  0.5367  0.1686  0.0826
 9258TIP3    H149189   2.165   2.199   4.849  2.8054 -1.0069  1.6380
 9258TIP3    H249190   2.164   2.170   4.997 -0.4009  2.4600  2.4372
 9259TIP3   OH249191   0.167   0.443   3.371 -0.5928 -0.2394  0.4404
 9259TIP3    H149192   0.192   0.393   3.294  0.3105  0.4584  0.2665
 9259TIP3    H249193   0.215   0.402   3.443  0.6110  0.7234  0.2038
 9260TIP3   OH249194   0.104   1.573  12.465  0.2040 -0.4469 -0.1423
 9260TIP3    H149195   0.120   1.479  12.477 -0.9641 -0.4799  1.5513
 9260TIP3    H249196   0.136   1.613  12.545 -2.1627  0.1828  0.5727
 9261TIP3   OH249197   0.127   4.289  11.406 -0.5818  0.0092 -0.2084
 9261TIP3    H149198   0.083   4.236  11.339 -0.9558 -1.3892  1.0837
 9261TIP3    H249199   0.125   4.235  11.485  0.6968  1.2108  0.7052
 9262TIP3   OH249200   5.697   6.366  16.374  0.2895 -0.0729  0.4549
 9262TIP3    H149201   5.769   6.416  16.336 -1.5102  2.0735 -0.3698
 9262TIP3    H249202   5.654   6.325  16.298  1.2894 -2.3486  1.0480
 9263TIP3   OH249203   2.602   5.435  12.019  0.3794 -0.0203  0.5006
 9263TIP3    H149204   2.593   5.347  11.983  0.4090  0.0374  0.3507
 9263TIP3    H249205   2.643   5.422  12.104  0.0186 -0.1821  0.6466
 9264TIP3   OH249206   2.518   0.832  11.739 -0.1234 -0.2359 -0.2438
 9264TIP3    H149207   2.439   0.873  11.705 -1.2499 -0.4535  1.9478
 9264TIP3    H249208   2.551   0.778  11.666 -1.5960  0.3727 -1.4038
 9265TIP3   OH249209   1.619   4.159   0.461  0.1202 -0.4702 -0.4987
 9265TIP3    H149210   1.628   4.113   0.377  1.0025  1.6542 -1.6441
 9265TIP3    H249211   1.665   4.242   0.448 -1.4637  0.8013  1.4275
 9266TIP3   OH249212   1.322   6.168  11.306 -0.0803  0.2276  0.5280
 9266TIP3    H149213   1.390   6.142  11.367 -0.8279  0.8816  1.6651
 9266TIP3    H249214   1.256   6.099  11.312 -0.7577  0.9383  1.4487
 9267TIP3   OH249215   0.058   0.481  15.824  0.7057 -0.1966  0.2063
 9267TIP3    H149216   0.129   0.419  15.807  0.8219  0.3132 -1.2713
 9267TIP3    H249217   0.099   0.549  15.879  2.3371  1.7119 -3.0567
 9268TIP3   OH249218   2.974   2.444   2.165  0.1209 -0.3008  0.3073
 9268TIP3    H149219   2.922   2.365   2.153  0.6832 -0.9530  1.8981
 9268TIP3    H249220   3.012   2.461   2.079  0.1047 -1.8457 -0.0324
 9269TIP3   OH249221   1.457   3.422   2.876  0.1435 -0.2611  0.2847
 9269TIP3    H149222   1.438   3.413   2.969  1.2363 -0.7118  0.4745
 9269TIP3    H249223   1.426   3.509   2.853 -0.6181 -0.3483  0.9427
 9270TIP3   OH249224   3.338   0.121  15.998 -0.4687  0.2881  0.6303
 9270TIP3    H149225   3.363   0.054  16.061 -1.1806 -0.2644  0.3387
 9270TIP3    H249226   3.269   0.081  15.945 -0.5564  1.0731  0.1198
 9271TIP3   OH249227   1.311   5.371  12.541  0.0437  0.0341  0.0184
 9271TIP3    H149228   1.330   5.386  12.449  1.5014 -0.1673  0.2592
 9271TIP3    H249229   1.260   5.289  12.542 -0.1741  0.1577 -0.6143
 9272TIP3   OH249230   2.928   4.413   1.848 -0.2916 -0.2296  0.4549
 9272TIP3    H149231   2.874   4.453   1.916  1.6381  0.5953  1.5703
 9272TIP3    H249232   2.936   4.321   1.873 -0.3845 -0.1446  0.7976
 9273TIP3   OH249233   2.607   4.755   5.144 -0.2459  0.5371  0.0758
 9273TIP3    H149234   2.573   4.820   5.082  0.0095  1.2499  0.6744
 9273TIP3    H249235   2.530   4.722   5.190 -0.4898 -0.3169 -0.9095
 9274TIP3   OH249236   1.083   5.044   3.348 -0.2967 -0.0507 -0.5103
 9274TIP3    H149237   0.989   5.030   3.336 -0.2210 -0.9633 -0.1666
 9274TIP3    H249238   1.089   5.127   3.394 -0.9752 -0.2654 -0.0059
 9275TIP3   OH249239   2.107   5.215   2.434  0.0887  0.3504  0.1737
 9275TIP3    H149240   2.125   5.122   2.418 -3.3563 -0.5528  0.6437
 9275TIP3    H249241   2.189   5.251   2.467  1.8711 -2.2296 -1.1790
 9276TIP3   OH249242   6.228   1.834   4.563 -0.5095 -0.7295 -0.3154
 9276TIP3    H149243   6.186   1.915   4.536  1.1942 -0.0279 -1.0070
 9276TIP3    H249244   6.240   1.844   4.658 -0.1895 -0.1125 -0.4193
 9277TIP3   OH249245   5.200   2.359  16.080 -0.4638  0.0993 -0.2839
 9277TIP3    H149246   5.240   2.345  16.165  0.0660 -0.8985 -0.6726
 9277TIP3    H249247   5.106   2.364  16.097 -0.2866  1.0669  0.4768
 9278TIP3   OH249248   5.065   1.820  12.133  0.2124 -0.1543 -0.3654
 9278TIP3    H149249   5.062   1.734  12.175  0.0082 -0.3710 -0.8191
 9278TIP3    H249250   5.141   1.863  12.173  1.8509 -1.4826 -1.8989
 9279TIP3   OH249251   2.277   1.010   0.184  0.0974  0.0715  0.1725
 9279TIP3    H149252   2.343   1.041   0.246  0.9831 -0.5082 -0.4634
 9279TIP3    H249253   2.270   0.916   0.202 -1.3997  0.3126  1.0025
 9280TIP3   OH249254   5.632   1.582  12.971 -0.3708  0.2960 -0.0853
 9280TIP3    H149255   5.619   1.487  12.960 -0.2043  0.4452 -1.8989
 9280TIP3    H249256   5.548   1.614  13.003 -1.2015 -0.1840 -1.6712
 9281TIP3   OH249257   6.764   3.183   4.450 -0.1461 -0.4646  0.2533
 9281TIP3    H149258   6.753   3.204   4.543  3.0426 -2.0603  1.1506
 9281TIP3    H249259   6.727   3.095   4.442  0.1895 -0.6016  0.1933
 9282TIP3   OH249260   6.030   4.203  13.190 -0.1606  0.1181 -1.3031
 9282TIP3    H149261   5.981   4.285  13.194  0.4553  0.4921 -1.2781
 9282TIP3    H249262   5.972   4.142  13.145 -1.0465  0.2660 -0.3889
 9283TIP3   OH249263   5.021   5.756   0.217 -0.0101 -0.4446  0.0786
 9283TIP3    H149264   5.007   5.760   0.311 -0.7146  1.2100 -0.0555
 9283TIP3    H249265   5.067   5.674   0.203 -0.0609 -0.8151  1.8375
 9284TIP3   OH249266   0.837   6.647  13.114  0.4335 -0.6150 -0.7979
 9284TIP3    H149267   0.865   6.736  13.136  1.0076 -1.0056  0.1242
 9284TIP3    H249268   0.759   6.658  13.059 -0.1948  0.4402  0.2706
 9285TIP3   OH249269   2.206   0.528   5.024 -0.4085  0.2287  0.6951
 9285TIP3    H149270   2.133   0.557   4.969 -1.0042  1.3371  1.9843
 9285TIP3    H249271   2.255   0.608   5.043  0.0669 -0.2055  1.3514
 9286TIP3   OH249272   2.242   4.001  14.579 -0.1056 -0.4684  0.6535
 9286TIP3    H149273   2.268   3.949  14.503  0.5213 -0.4775  0.8719
 9286TIP3    H249274   2.148   4.014  14.568  0.2209  0.8484 -0.9445
 9287TIP3   OH249275   1.355   0.618   1.808 -0.3167  0.2048 -0.3388
 9287TIP3    H149276   1.377   0.689   1.747 -0.9017  1.3332  0.7106
 9287TIP3    H249277   1.429   0.613   1.868 -1.1674  1.4354  0.8907
 9288TIP3   OH249278   2.844   1.766  16.245  0.5493 -0.6461  0.1940
 9288TIP3    H149279   2.760   1.794  16.210  0.5631 -0.3253  0.4195
 9288TIP3    H249280   2.825   1.737  16.334  1.0835  1.8347  1.1749
 9289TIP3   OH249281   2.139   1.289   2.191 -0.2510  0.1536 -0.8378
 9289TIP3    H149282   2.189   1.232   2.133  0.2735  0.1662 -0.4052
 9289TIP3    H249283   2.097   1.352   2.132  0.6162  0.4318 -1.1811
 9290TIP3   OH249284   4.198   3.987  16.088 -0.4823  0.0713  0.3148
 9290TIP3    H149285   4.104   3.975  16.088 -0.6667  0.7322 -3.0065
 9290TIP3    H249286   4.232   3.916  16.033  1.1180 -0.7414  2.2269
 9291TIP3   OH249287   6.420   0.302   1.645  0.0318  0.2649 -0.2328
 9291TIP3    H149288   6.425   0.382   1.698 -1.4666  0.4028 -0.2568
 9291TIP3    H249289   6.383   0.236   1.704  2.3707 -0.8156  0.1671
 9292TIP3   OH249290   4.749   2.741   5.575  0.3810 -0.3535 -0.0198
 9292TIP3    H149291   4.683   2.707   5.636  0.4044  1.2702  0.9595
 9292TIP3    H249292   4.741   2.836   5.582  0.6788 -0.1029 -2.2565
 9293TIP3   OH249293   0.959   6.601  13.919  0.1771 -0.0682 -0.4925
 9293TIP3    H149294   0.876   6.581  13.878 -0.1010  0.2789 -0.1056
 9293TIP3    H249295   0.997   6.516  13.939  0.0200 -0.2298 -0.8714
 9294TIP3   OH249296   3.662   0.209   1.353 -0.1593  0.5182  0.1621
 9294TIP3    H149297   3.653   0.154   1.430  1.0383 -1.6319 -1.1421
 9294TIP3    H249298   3.583   0.193   1.302 -0.6381  1.4289  0.5853
 9295TIP3   OH249299   1.965   1.125   0.538  0.0895 -0.5411 -0.0119
 9295TIP3    H149300   1.987   1.218   0.548 -1.1189 -0.4058  2.2061
 9295TIP3    H249301   2.047   1.082   0.515  0.9700  0.8999  0.3356
 9296TIP3   OH249302   6.168   6.444   2.910 -0.1243  0.2365  0.0299
 9296TIP3    H149303   6.167   6.529   2.955 -1.6146  0.1551  0.2238
 9296TIP3    H249304   6.133   6.463   2.823  0.4371 -0.0215 -0.2524
 9297TIP3   OH249305   1.591   6.024  12.826  0.0432 -0.3994 -0.0237
 9297TIP3    H149306   1.610   5.932  12.844 -1.3889 -0.3411  2.1143
 9297TIP3    H249307   1.495   6.028  12.826  0.0889  1.2515  0.9238
 9298TIP3   OH249308   0.680   0.604  13.061 -0.0501  0.2353 -0.3008
 9298TIP3    H149309   0.603   0.660  13.067 -0.5655 -0.2624 -1.8098
 9298TIP3    H249310   0.744   0.655  13.012  0.1090  0.1514 -0.1836
 9299TIP3   OH249311   3.210   0.828  11.779  0.5477  0.3693  0.3177
 9299TIP3    H149312   3.232   0.766  11.848 -0.3546  0.1487  0.4116
 9299TIP3    H249313   3.155   0.779  11.718 -0.3855  1.1314  0.5201
 9300TIP3   OH249314   4.440   5.134  14.021 -0.0487  0.1245 -0.2839
 9300TIP3    H149315   4.412   5.198  13.956 -1.5334 -0.9703 -0.7828
 9300TIP3    H249316   4.404   5.167  14.104 -0.9885 -0.1569 -0.5713
 9301TIP3   OH249317   3.892   4.000   3.859  0.3691 -0.8696 -0.3606
 9301TIP3    H149318   3.926   4.060   3.925 -1.4403  0.3296 -0.4602
 9301TIP3    H249319   3.808   3.971   3.893  1.3479 -3.8170 -0.0809
 9302TIP3   OH249320   1.588   5.970  13.828 -0.1512  0.1920  0.1745
 9302TIP3    H149321   1.554   6.051  13.865 -0.9916 -0.3804  0.6781
 9302TIP3    H249322   1.681   5.987  13.815 -0.0950  0.8512  1.3332
 9303TIP3   OH249323   4.627   1.802  16.014 -0.5429 -0.1417  0.0238
 9303TIP3    H149324   4.689   1.748  15.966  0.2479  1.1719 -0.5061
 9303TIP3    H249325   4.557   1.742  16.040  1.6558 -1.9900  2.0081
 9304TIP3   OH249326   1.618   2.316   1.613 -0.0154 -0.3488 -0.1511
 9304TIP3    H149327   1.585   2.227   1.617  2.3207 -1.2595  1.1906
 9304TIP3    H249328   1.548   2.367   1.573 -1.5634 -2.7000 -0.5830
 9305TIP3   OH249329   5.337   3.823   3.603 -0.4035 -0.5675 -0.6419
 9305TIP3    H149330   5.362   3.770   3.679  0.0200  0.3453 -0.1276
 9305TIP3    H249331   5.418   3.836   3.554  0.6061  3.3740  1.6427
 9306TIP3   OH249332   1.966   0.512   0.743  0.2592 -0.4167  0.7603
 9306TIP3    H149333   2.050   0.466   0.754  0.4537 -0.2867 -0.1199
 9306TIP3    H249334   1.902   0.442   0.728  0.2760 -0.4929  1.0384
 9307TIP3   OH249335   4.847   6.080  11.458  0.0304  0.1623 -0.1863
 9307TIP3    H149336   4.858   5.991  11.492  0.4703 -0.3845 -1.7045
 9307TIP3    H249337   4.878   6.076  11.368 -0.8022  1.6504 -0.5782
 9308TIP3   OH249338   4.046   5.925  16.353 -0.6063  0.0922 -0.2545
 9308TIP3    H149339   3.976   5.886  16.405 -0.2668  0.5018  0.5458
 9308TIP3    H249340   4.046   6.017  16.380 -0.1948  0.2323 -0.7335
 9309TIP3   OH249341   2.615   3.961  15.513  0.2676  0.0323 -0.1805
 9309TIP3    H149342   2.541   3.902  15.526  1.3686 -1.4662 -0.4749
 9309TIP3    H249343   2.683   3.929  15.573  0.9030  0.9760 -0.3735
 9310TIP3   OH249344   1.555   2.942  13.385 -0.1564 -0.8542 -0.3885
 9310TIP3    H149345   1.643   2.980  13.380  0.1938 -1.4208  1.0621
 9310TIP3    H249346   1.545   2.893  13.304  0.5499 -0.1307 -0.9216
 9311TIP3   OH249347   6.659   1.074   2.488 -1.4901  0.3633  0.1831
 9311TIP3    H149348   6.740   1.034   2.455 -3.1719 -2.5803 -0.7031
 9311TIP3    H249349   6.645   1.149   2.429 -0.8323 -0.7229 -1.4474
 9312TIP3   OH249350   5.653   5.432  12.779  0.4552 -0.0885  0.1735
 9312TIP3    H149351   5.623   5.356  12.729  1.0954 -0.4338  0.3050
 9312TIP3    H249352   5.748   5.429  12.773  0.4936  0.6375  0.2849
 9313TIP3   OH249353   3.333   1.270  12.455  0.3066 -0.0093  0.1979
 9313TIP3    H149354   3.320   1.202  12.389  0.0076 -1.1685  1.3898
 9313TIP3    H249355   3.249   1.316  12.460  0.3169  0.0481 -0.2045
 9314TIP3   OH249356   0.547   2.851  13.757  0.3526 -0.0772 -0.1864
 9314TIP3    H149357   0.600   2.915  13.709 -1.5539  0.3866 -1.8418
 9314TIP3    H249358   0.532   2.780  13.693  0.1511 -0.8685  0.7152
 9315TIP3   OH249359   6.112   3.435   1.860 -0.0678  0.1717 -0.3157
 9315TIP3    H149360   6.133   3.356   1.909 -0.3544  0.2083 -0.1345
 9315TIP3    H249361   6.126   3.411   1.769  1.0759  0.2828 -0.1897
 9316TIP3   OH249362   1.069   1.344   0.028 -0.5330 -0.2307  0.2435
 9316TIP3    H149363   1.087   1.266   0.080 -0.5881 -0.2833  0.1839
 9316TIP3    H249364   1.074   1.416   0.090  1.1408 -0.1063 -0.0064
 9317TIP3   OH249365   6.348   4.541  16.736  0.1833 -0.3864  0.0446
 9317TIP3    H149366   6.325   4.449  16.739 -1.0366 -0.1531 -1.2912
 9317TIP3    H249367   6.271   4.587  16.770 -1.2227  0.3495 -3.6422
 9318TIP3   OH249368   6.075   2.588  17.060  0.1398 -0.0439  0.0134
 9318TIP3    H149369   6.168   2.584  17.083  0.1231 -0.7593 -0.0203
 9318TIP3    H249370   6.064   2.673  17.018  0.2429  1.1878  2.3501
 9319TIP3   OH249371   3.014   5.496  11.766  0.4231 -0.2982  0.1248
 9319TIP3    H149372   3.084   5.474  11.704 -1.7604 -1.1691 -2.2196
 9319TIP3    H249373   2.971   5.573  11.728 -1.0392 -0.9091  0.4494
 9320TIP3   OH249374   4.881   3.605   5.233 -0.1837  0.0667  0.3265
 9320TIP3    H149375   4.943   3.654   5.179 -0.8092 -0.3398 -0.8035
 9320TIP3    H249376   4.906   3.625   5.323  0.3771  1.4172 -0.1089
 9321TIP3   OH249377   0.588   1.489  10.854 -0.1038 -0.5211  0.4434
 9321TIP3    H149378   0.678   1.520  10.860 -0.2797  0.2562 -0.6945
 9321TIP3    H249379   0.542   1.557  10.803 -1.3268 -0.9093  0.9813
 9322TIP3   OH249380   5.567   0.355  14.674 -0.0472 -0.8682 -0.4266
 9322TIP3    H149381   5.651   0.396  14.654 -0.2028 -0.7827 -0.9104
 9322TIP3    H249382   5.574   0.267  14.637  1.0402 -2.0588  2.2929
 9323TIP3   OH249383   1.378   6.217   6.167 -0.6911  0.1934 -0.8013
 9323TIP3    H149384   1.389   6.123   6.153  1.5952  0.2568  0.1358
 9323TIP3    H249385   1.435   6.237   6.241  0.4161  2.6372 -2.1984
 9324TIP3   OH249386   2.781   2.616   0.370 -0.2438  0.5977 -0.9750
 9324TIP3    H149387   2.853   2.678   0.356  0.3301  0.1732  0.0516
 9324TIP3    H249388   2.724   2.630   0.294  1.0406  0.7595 -1.9566
 9325TIP3   OH249389   3.108   6.210   2.348 -0.2379  0.3244  0.5427
 9325TIP3    H149390   3.147   6.214   2.435  2.0904 -1.2390 -0.3386
 9325TIP3    H249391   3.172   6.252   2.291 -0.9142 -0.2413 -0.6765
 9326TIP3   OH249392   4.425   5.201   2.015 -0.3758 -0.1857  0.3022
 9326TIP3    H149393   4.379   5.265   2.070 -0.6900 -0.6559  0.5977
 9326TIP3    H249394   4.516   5.232   2.013 -0.6329  0.5690 -0.0149
 9327TIP3   OH249395   2.276   1.468   1.201  0.0176 -0.0767 -0.0065
 9327TIP3    H149396   2.222   1.546   1.188  1.1545  0.7131 -0.2476
 9327TIP3    H249397   2.365   1.499   1.183  0.5925 -1.2161  0.7909
 9328TIP3   OH249398   4.618   2.192   2.258 -0.0356 -0.0333 -0.4630
 9328TIP3    H149399   4.662   2.108   2.275 -1.6134 -1.0573 -1.1940
 9328TIP3    H249400   4.658   2.224   2.177 -0.2926 -0.7178 -0.8690
 9329TIP3   OH249401   1.974   0.160   3.575  0.1144 -0.0374 -0.0905
 9329TIP3    H149402   2.026   0.240   3.574 -0.3232  0.2505 -1.6264
 9329TIP3    H249403   1.922   0.167   3.655 -1.4013  2.2270 -1.1662
 9330TIP3   OH249404   4.157   6.175   3.975  0.2060  0.3377  0.0561
 9330TIP3    H149405   4.244   6.211   3.994  0.6986 -0.4454 -0.6406
 9330TIP3    H249406   4.167   6.080   3.983 -0.9282  0.2943  1.2779
 9331TIP3   OH249407   1.445   2.443  14.445 -0.1263  0.0370  0.0787
 9331TIP3    H149408   1.530   2.467  14.409 -1.0204 -0.1969 -2.3291
 9331TIP3    H249409   1.437   2.349  14.428 -1.2326  0.2295 -0.5406
 9332TIP3   OH249410   1.711   4.335  16.796  0.2252 -0.1421  0.0113
 9332TIP3    H149411   1.770   4.316  16.723  0.1450  0.9974 -0.3783
 9332TIP3    H249412   1.731   4.426  16.819 -1.1615  0.1667  0.0785
 9333TIP3   OH249413   4.882   3.181   2.574  0.1886 -0.4411 -0.1600
 9333TIP3    H149414   4.847   3.267   2.551  0.2807 -1.0433 -2.8014
 9333TIP3    H249415   4.819   3.118   2.539  1.3691 -1.4789 -0.5094
 9334TIP3   OH249416   6.699   5.673  11.504  0.0412 -0.1978  0.3072
 9334TIP3    H149417   6.612   5.647  11.474 -0.0042 -0.1495  0.3971
 9334TIP3    H249418   6.690   5.682  11.599  0.2639 -0.6658  0.3737
 9335TIP3   OH249419   0.183   5.635   2.176 -0.5528 -0.2894 -0.0531
 9335TIP3    H149420   0.272   5.665   2.191 -1.0827  0.5627  1.6820
 9335TIP3    H249421   0.173   5.638   2.081  0.2142  2.9482 -0.1556
 9336TIP3   OH249422   1.298   6.651  12.263 -0.0687 -0.2035  0.6173
 9336TIP3    H149423   1.298   6.745  12.285  2.4115  0.3638 -1.4416
 9336TIP3    H249424   1.312   6.608  12.347 -0.5781  1.2657  1.5138
 9337TIP3   OH249425   4.565   6.530  12.116 -0.2203 -0.0456  0.3694
 9337TIP3    H149426   4.550   6.623  12.132 -1.8710 -0.5733  2.1582
 9337TIP3    H249427   4.645   6.528  12.063  0.0589  2.3577  0.5883
 9338TIP3   OH249428   3.430   0.248   3.648 -0.2583  0.2129  0.2373
 9338TIP3    H149429   3.476   0.324   3.684  1.7144 -0.2129 -1.2048
 9338TIP3    H249430   3.402   0.276   3.561  1.4991 -0.9758 -0.7844
 9339TIP3   OH249431   3.435   3.233   4.373  0.3086  0.1719 -0.0300
 9339TIP3    H149432   3.488   3.156   4.354 -0.0151  0.2409 -1.2582
 9339TIP3    H249433   3.494   3.291   4.421  0.9166 -0.3372 -0.1480
 9340TIP3   OH249434   5.392   2.043   5.649 -0.3560 -0.4273  0.2888
 9340TIP3    H149435   5.409   1.956   5.686 -0.7356  0.3727  2.5360
 9340TIP3    H249436   5.429   2.103   5.714  0.7499  1.1152 -1.6796
 9341TIP3   OH249437   1.612   5.389  13.950 -0.3353  0.5720  0.1264
 9341TIP3    H149438   1.521   5.418  13.943 -0.7701 -0.9662 -1.2598
 9341TIP3    H249439   1.629   5.385  14.044 -1.9777  0.0886  0.4350
 9342TIP3   OH249440   2.464   2.958   1.940  0.4640  0.2282 -0.6947
 9342TIP3    H149441   2.429   2.871   1.922  1.9360 -0.9819  1.7339
 9342TIP3    H249442   2.511   2.983   1.861 -0.6521 -0.8022 -1.7136
 9343TIP3   OH249443   4.401   1.656  16.098 -0.1373  0.0554  0.1914
 9343TIP3    H149444   4.396   1.684  16.189 -1.4087  0.6501 -0.0443
 9343TIP3    H249445   4.379   1.563  16.100  0.0418  0.0188  0.5038
 9344TIP3   OH249446   3.705   4.667  12.354 -0.1240 -0.3645 -0.0602
 9344TIP3    H149447   3.782   4.663  12.410 -0.8113 -1.3393  0.8673
 9344TIP3    H249448   3.677   4.758  12.358 -0.1900 -0.4228  1.2687
 9345TIP3   OH249449   3.001   5.873   0.842  0.2388  0.1596 -0.2765
 9345TIP3    H149450   2.936   5.818   0.885  0.3992  0.5048  0.4161
 9345TIP3    H249451   2.992   5.852   0.749  0.3794 -1.1110 -0.0147
 9346TIP3   OH249452   1.552   3.545  14.713 -0.0472 -0.0150 -0.3405
 9346TIP3    H149453   1.578   3.489  14.640 -0.5567 -0.5995 -0.0894
 9346TIP3    H249454   1.530   3.629  14.673 -0.0505 -0.2438 -0.8216
 9347TIP3   OH249455   3.274   1.299   3.906  0.1321  0.3288 -0.5811
 9347TIP3    H149456   3.239   1.293   3.818  0.5357  2.4895 -0.9340
 9347TIP3    H249457   3.245   1.384   3.938  1.1822  0.1927  0.8389
 9348TIP3   OH249458   2.818   5.361  13.289  0.7810 -0.4578  0.4500
 9348TIP3    H149459   2.870   5.295  13.243  0.5228  0.1024 -0.6774
 9348TIP3    H249460   2.797   5.426  13.222 -0.3913 -0.0809  1.1552
 9349TIP3   OH249461   6.427   2.745  15.734  0.3825 -0.2792 -0.2669
 9349TIP3    H149462   6.442   2.762  15.640  1.4634 -0.7823 -0.1974
 9349TIP3    H249463   6.451   2.827  15.777 -3.3840  1.2599 -0.6152
 9350TIP3   OH249464   5.454   4.998   2.294  0.0522 -0.5025  0.1888
 9350TIP3    H149465   5.521   4.934   2.270  3.2088  2.2377  0.9719
 9350TIP3    H249466   5.458   5.001   2.390 -0.7341  0.2080  0.2066
 9351TIP3   OH249467   2.720   0.765  15.376 -0.1944 -0.6586 -0.1328
 9351TIP3    H149468   2.759   0.776  15.289  0.7651  0.1452  0.3789
 9351TIP3    H249469   2.764   0.831  15.430  0.8447 -2.5716  1.5007
 9352TIP3   OH249470   2.216   0.832   5.143  0.0964  0.3121 -0.0152
 9352TIP3    H149471   2.292   0.848   5.199  0.2396  0.8101 -0.3443
 9352TIP3    H249472   2.147   0.805   5.204  0.3406  0.5347  0.3648
 9353TIP3   OH249473   0.065   1.042  12.468  0.1762  0.7861 -0.6121
 9353TIP3    H149474   0.080   0.987  12.544 -0.5464  0.2030 -0.8801
 9353TIP3    H249475   0.113   0.999  12.397 -1.4948 -0.3242 -1.1494
 9354TIP3   OH249476   5.057   3.261   3.648  0.7164  0.2435 -0.0607
 9354TIP3    H149477   5.097   3.176   3.628  1.6569  0.1769  1.9028
 9354TIP3    H249478   4.964   3.249   3.629  0.8423 -1.2025  0.1374
 9355TIP3   OH249479   2.993   1.499   6.297  0.4464  0.0886  0.3110
 9355TIP3    H149480   2.953   1.515   6.382 -0.3442 -2.3267  0.4746
 9355TIP3    H249481   2.984   1.405   6.284 -0.7769  0.5483 -3.0971
 9356TIP3   OH249482   4.257   1.610  17.083 -0.2201  0.2938  0.2903
 9356TIP3    H149483   4.167   1.603  17.051 -0.3930  1.4141  0.4937
 9356TIP3    H249484   4.248   1.623  17.177  0.2211 -1.0805  0.5451
 9357TIP3   OH249485   2.917   5.251  12.533  0.0759  0.0968  0.1716
 9357TIP3    H149486   2.838   5.199  12.521 -1.3819  1.6059  2.2746
 9357TIP3    H249487   2.935   5.245  12.627  0.9991  1.7401  0.1347
 9358TIP3   OH249488   1.869   2.018   1.695  0.4043 -0.3844  0.5780
 9358TIP3    H149489   1.776   2.021   1.671  0.8435 -2.1107 -1.7847
 9358TIP3    H249490   1.891   2.107   1.720 -1.4905  0.4496 -0.5167
 9359TIP3   OH249491   3.285   4.122  13.536  0.6140  0.0071  0.3856
 9359TIP3    H149492   3.380   4.111  13.536  0.7328  0.7216  2.5847
 9359TIP3    H249493   3.271   4.216  13.548 -0.3288 -0.3104  2.0708
 9360TIP3   OH249494   6.145   5.116  11.984  0.0781  0.3572  0.2523
 9360TIP3    H149495   6.060   5.124  11.942  0.6576  0.9837 -0.8627
 9360TIP3    H249496   6.194   5.054  11.929  0.9790  1.4839 -0.2664
 9361TIP3   OH249497   2.602   4.316   5.519 -0.2088  0.0772 -0.3884
 9361TIP3    H149498   2.622   4.359   5.603 -0.0741 -0.0187 -0.3728
 9361TIP3    H249499   2.537   4.374   5.479 -0.3111  0.0971 -0.1954
 9362TIP3   OH249500   5.143   5.917  10.982  0.0605  0.5429 -0.3160
 9362TIP3    H149501   5.171   6.001  10.946 -0.2887  0.0330 -1.8547
 9362TIP3    H249502   5.202   5.853  10.942 -0.7474 -0.1114 -0.4859
 9363TIP3   OH249503   0.925   6.182   1.411  0.3641 -0.1599  0.0899
 9363TIP3    H149504   0.853   6.185   1.347  1.1851  0.6865 -0.8216
 9363TIP3    H249505   0.994   6.235   1.372  1.5797 -1.1241  0.8492
 9364TIP3   OH249506   5.237   1.788  13.296  0.6007  0.2872  0.0887
 9364TIP3    H149507   5.183   1.799  13.217 -0.2665 -0.9761  0.4735
 9364TIP3    H249508   5.278   1.874  13.309 -1.2730  1.2890 -0.2507
 9365TIP3   OH249509   4.627   2.260   6.331 -0.0359 -0.0904  0.1413
 9365TIP3    H149510   4.538   2.230   6.349 -0.0607  0.0853  0.3142
 9365TIP3    H249511   4.681   2.182   6.344 -0.0852 -0.0316  0.7021
 9366TIP3   OH249512   1.989   0.214  15.630  0.1542 -0.1036  0.1597
 9366TIP3    H149513   2.063   0.252  15.583 -1.4731  1.8195 -1.0180
 9366TIP3    H249514   1.912   0.256  15.592 -1.5287 -1.4719  1.8317
 9367TIP3   OH249515   4.043   5.998   4.354  0.8637  0.0642 -0.0694
 9367TIP3    H149516   4.095   5.945   4.415  1.4129 -0.2804 -0.8233
 9367TIP3    H249517   4.000   5.934   4.297 -0.6877  0.3211  0.7436
 9368TIP3   OH249518   2.121   4.493  11.745  0.4039 -0.7923 -0.1137
 9368TIP3    H149519   2.087   4.526  11.662 -0.3896 -0.4385  0.3432
 9368TIP3    H249520   2.055   4.518  11.810  1.5464 -0.0732  0.7951
 9369TIP3   OH249521   3.465   5.524   2.495  0.1562  0.4092  0.0609
 9369TIP3    H149522   3.484   5.433   2.517 -1.4554  0.1760  0.6807
 9369TIP3    H249523   3.432   5.521   2.405  0.6269  0.4547 -0.1121
 9370TIP3   OH249524   3.894   1.439   4.745 -0.0588 -0.4516  0.0473
 9370TIP3    H149525   3.811   1.392   4.731 -1.0398  1.4463 -0.9129
 9370TIP3    H249526   3.951   1.375   4.788 -1.3914 -2.4243 -0.9523
 9371TIP3   OH249527   2.824   1.337   2.460  0.4527 -0.0010  0.1448
 9371TIP3    H149528   2.818   1.424   2.498 -1.3076 -0.1260  0.2420
 9371TIP3    H249529   2.777   1.344   2.377  1.0190 -0.6555 -0.2387
 9372TIP3   OH249530   0.902   3.769  15.854 -0.6340 -0.2915  0.2126
 9372TIP3    H149531   0.813   3.739  15.835 -1.0112  0.6443  0.4419
 9372TIP3    H249532   0.891   3.858  15.887  0.5586  0.7453 -1.9754
 9373TIP3   OH249533   0.466   4.300  16.958 -0.1186 -0.0086  0.2912
 9373TIP3    H149534   0.385   4.274  17.000  0.6839  0.3016  2.1341
 9373TIP3    H249535   0.524   4.324  17.030  1.2834  0.7377 -1.0164
 9374TIP3   OH249536   2.377   2.547   6.634 -0.0820 -0.5525  0.3361
 9374TIP3    H149537   2.432   2.555   6.712 -0.2167 -0.4168  0.4182
 9374TIP3    H249538   2.398   2.460   6.599  0.5595 -0.2906  0.0717
 9375TIP3   OH249539   1.887   3.090   0.614 -0.0738  0.2410  0.1516
 9375TIP3    H149540   1.951   3.132   0.557 -0.7829 -0.8288 -1.4918
 9375TIP3    H249541   1.919   3.001   0.627 -1.0226 -0.2007 -0.4122
 9376TIP3   OH249542   5.664   1.141  17.236 -0.4036  0.2373 -0.1213
 9376TIP3    H149543   5.755   1.124  17.212 -1.3945 -1.9754 -2.7627
 9376TIP3    H249544   5.660   1.236  17.251  2.0376  0.5782 -1.2870
 9377TIP3   OH249545   1.098   0.278  13.825  0.5653 -0.5109 -0.2219
 9377TIP3    H149546   1.088   0.259  13.919 -2.1606  1.3468 -0.0353
 9377TIP3    H249547   1.070   0.197  13.782 -0.9424 -0.4440  0.5806
 9378TIP3   OH249548   0.657   4.364   2.637  0.5939  0.2106  0.2657
 9378TIP3    H149549   0.685   4.321   2.718  0.7249 -0.5151 -0.1535
 9378TIP3    H249550   0.739   4.394   2.597  0.7142 -1.0823 -0.5008
 9379TIP3   OH249551   0.478   4.351  12.025  0.0643 -0.3087 -0.8220
 9379TIP3    H149552   0.515   4.390  11.946 -0.1373  1.0521 -0.2676
 9379TIP3    H249553   0.553   4.317  12.073  0.3878  0.6669 -0.6370
 9380TIP3   OH249554   6.471   3.549  16.699  0.1297 -0.2850  0.4202
 9380TIP3    H149555   6.408   3.519  16.633  1.4801  0.1991 -1.1653
 9380TIP3    H249556   6.419   3.562  16.778 -1.8352  0.5114 -0.9379
 9381TIP3   OH249557   2.177   2.802   5.536 -0.3843 -0.3575 -0.2214
 9381TIP3    H149558   2.226   2.884   5.538  1.2236 -1.2802 -0.3110
 9381TIP3    H249559   2.209   2.753   5.612 -1.6935 -0.7160  0.1217
 9382TIP3   OH249560   0.725   0.543  13.320 -0.2652 -0.1837 -0.9446
 9382TIP3    H149561   0.710   0.565  13.228 -1.6321 -0.6443 -0.8477
 9382TIP3    H249562   0.690   0.618  13.368  1.1295  0.3998 -0.8028
 9383TIP3   OH249563   0.046   3.716  12.503  0.2942 -0.6724 -0.2421
 9383TIP3    H149564   0.045   3.659  12.580 -0.6760 -1.4091 -0.7788
 9383TIP3    H249565   0.136   3.711  12.470  0.9470  0.2701  1.2574
 9384TIP3   OH249566   2.003   0.478  10.787 -0.2943 -0.3528  0.0589
 9384TIP3    H149567   2.003   0.384  10.805 -0.7813 -0.4939 -0.6482
 9384TIP3    H249568   1.957   0.517  10.861 -0.2730 -0.6861  0.2503
 9385TIP3   OH249569   3.278   6.079   4.171 -0.3988 -0.0857 -0.1258
 9385TIP3    H149570   3.320   6.038   4.096 -1.9878 -0.9040 -0.6094
 9385TIP3    H249571   3.248   6.164   4.139  1.0764  0.6265  0.3016
 9386TIP3   OH249572   2.942   1.134   2.819 -0.1562 -0.4916  0.0571
 9386TIP3    H149573   2.908   1.142   2.908 -1.2882  1.6179 -0.5053
 9386TIP3    H249574   3.037   1.133   2.830 -0.2728 -1.8876  1.3613
 9387TIP3   OH249575   2.218   0.628  11.472 -0.0299  0.4034  0.0801
 9387TIP3    H149576   2.166   0.639  11.392  1.4600 -0.3891 -1.0478
 9387TIP3    H249577   2.286   0.565  11.448  1.7885  1.7855  1.3217
 9388TIP3   OH249578   6.224   0.149   5.685  0.3405 -0.1626 -0.0278
 9388TIP3    H149579   6.210   0.179   5.775 -2.6021 -0.3621 -0.3272
 9388TIP3    H249580   6.270   0.221   5.643 -0.4699  1.0186  1.0316
 9389TIP3   OH249581   0.746   4.717   4.302 -0.4928 -0.3623  0.0431
 9389TIP3    H149582   0.736   4.659   4.227 -2.2162 -0.0256 -0.0251
 9389TIP3    H249583   0.692   4.793   4.281  0.9006  0.8191  0.5829
 9390TIP3   OH249584   4.323   1.630  11.111  0.1968 -0.4335 -0.2400
 9390TIP3    H149585   4.275   1.560  11.068 -1.2761 -1.2373  2.4830
 9390TIP3    H249586   4.406   1.590  11.136 -0.5856 -1.2553  1.1910
 9391TIP3   OH249587   5.710   3.377  15.119 -0.2138 -0.3031 -0.2571
 9391TIP3    H149588   5.630   3.429  15.111  0.0905  0.7868  2.4407
 9391TIP3    H249589   5.719   3.362  15.213  0.2218 -4.5750 -0.7750
 9392TIP3   OH249590   5.362   5.748   1.861  0.0074  0.2938  0.0958
 9392TIP3    H149591   5.276   5.787   1.877  0.6885  1.6446  0.6209
 9392TIP3    H249592   5.376   5.689   1.934 -1.2652 -1.4399 -0.9766
 9393TIP3   OH249593   4.846   2.685   3.520 -0.2571 -0.5541  0.2139
 9393TIP3    H149594   4.786   2.681   3.445  0.3415 -0.6675 -0.2655
 9393TIP3    H249595   4.897   2.604   3.514  2.0658  0.8990 -1.1864
 9394TIP3   OH249596   1.319   3.613  16.164  0.0865 -0.4323 -0.0819
 9394TIP3    H149597   1.373   3.668  16.219  0.7763 -1.0545 -0.1215
 9394TIP3    H249598   1.292   3.541  16.221  0.8642 -1.1165 -0.5547
 9395TIP3   OH249599   0.483   0.522   3.510  0.3516 -0.3006  0.0861
 9395TIP3    H149600   0.570   0.502   3.543 -0.6312 -3.3677  1.1891
 9395TIP3    H249601   0.452   0.594   3.566  1.4236 -0.5463  1.0208
 9396TIP3   OH249602   5.485   4.586  13.733 -0.2629  0.4771 -0.0643
 9396TIP3    H149603   5.436   4.633  13.800  0.2433 -1.5607  1.8545
 9396TIP3    H249604   5.574   4.619  13.742 -0.2176  0.2867  0.1877
 9397TIP3   OH249605   5.570   2.199  15.489 -0.2737  0.2332  0.3289
 9397TIP3    H149606   5.662   2.199  15.465 -0.3860  0.0205 -0.0981
 9397TIP3    H249607   5.554   2.287  15.523 -0.1812  0.6171 -0.6177
 9398TIP3   OH249608   4.918   2.768   1.094 -0.1457 -0.3817  0.0485
 9398TIP3    H149609   4.833   2.794   1.060 -0.8222 -1.9441  0.4515
 9398TIP3    H249610   4.899   2.695   1.153  1.5017 -1.0103 -0.1349
 9399TIP3   OH249611   3.742   0.087   5.885  0.4813 -0.0721 -0.0087
 9399TIP3    H149612   3.734   0.059   5.977  0.1411 -1.0884 -0.3368
 9399TIP3    H249613   3.737   0.006   5.835  0.3829  0.5050 -0.9517
 9400TIP3   OH249614   0.504   4.818   0.347 -0.0075  0.7489  0.0559
 9400TIP3    H149615   0.479   4.910   0.344  0.7192  0.9232 -1.4184
 9400TIP3    H249616   0.449   4.776   0.280  0.2221  0.2645  0.1655
 9401TIP3   OH249617   2.929   6.438  14.920  0.1771 -1.0623 -0.3240
 9401TIP3    H149618   2.905   6.381  14.847  0.1774 -1.7126  0.1836
 9401TIP3    H249619   2.996   6.390  14.968  0.2224 -0.6096  0.0773
 9402TIP3   OH249620   6.294   4.292  11.657  0.2137  0.3068  0.0582
 9402TIP3    H149621   6.222   4.235  11.686  0.6901 -0.0210  0.6188
 9402TIP3    H249622   6.332   4.326  11.739  1.4839 -0.5101 -0.1747
 9403TIP3   OH249623   3.048   3.069   5.806 -0.5559  0.5160 -0.3165
 9403TIP3    H149624   3.063   3.071   5.712 -1.0162  0.1283 -0.4020
 9403TIP3    H249625   3.019   2.980   5.824 -3.6178  1.3921 -0.3175
 9404TIP3   OH249626   1.978   1.993   5.978  0.5356 -0.2806 -0.2072
 9404TIP3    H149627   2.057   1.981   6.032  1.0872  0.8624 -0.7183
 9404TIP3    H249628   1.991   2.078   5.936 -0.8738 -0.1837 -0.4898
 9405TIP3   OH249629   3.222   3.309  15.813  0.6239 -0.3097  0.0424
 9405TIP3    H149630   3.209   3.281  15.904 -0.5277 -0.3823 -0.1319
 9405TIP3    H249631   3.245   3.402  15.820  0.5384 -0.3148  0.4064
 9406TIP3   OH249632   0.813   4.049  15.367 -0.2752 -0.1849 -0.1284
 9406TIP3    H149633   0.759   3.970  15.363 -0.0939 -0.2891 -0.7248
 9406TIP3    H249634   0.899   4.020  15.335  0.1935 -0.0722  1.0121
 9407TIP3   OH249635   5.597   2.971  11.477 -1.0983 -0.0543  0.6184
 9407TIP3    H149636   5.526   2.940  11.534 -1.3869  1.3805  1.0791
 9407TIP3    H249637   5.661   3.009  11.537 -1.4695  1.6023  0.0322
 9408TIP3   OH249638   4.913   1.228   4.642  0.1054  0.0924 -0.2875
 9408TIP3    H149639   4.959   1.150   4.674 -0.1115 -0.7835 -1.9591
 9408TIP3    H249640   4.978   1.298   4.646  0.5974 -0.3945  0.3906
 9409TIP3   OH249641   2.721   4.183  13.409  0.0834 -0.2344 -0.1236
 9409TIP3    H149642   2.730   4.244  13.336 -0.8328 -0.3126 -0.3120
 9409TIP3    H249643   2.629   4.159  13.409 -0.2101  0.7302  1.8598
 9410TIP3   OH249644   2.282   2.474  16.181 -0.4233 -0.7652  0.3543
 9410TIP3    H149645   2.233   2.544  16.138  1.3939 -0.8159 -1.9900
 9410TIP3    H249646   2.238   2.394  16.154  0.7790 -0.8069 -1.6905
 9411TIP3   OH249647   5.234   5.277  12.704 -0.6199 -0.0908 -0.0078
 9411TIP3    H149648   5.217   5.185  12.725  1.3894 -0.3087  0.9417
 9411TIP3    H249649   5.156   5.306  12.656 -0.6748 -2.7257 -1.7245
 9412TIP3   OH249650   3.770   4.145   2.271  0.1612  0.3954  0.1873
 9412TIP3    H149651   3.772   4.187   2.185 -0.4907 -0.2174 -0.1348
 9412TIP3    H249652   3.696   4.084   2.267  2.4757 -2.6551 -0.2756
 9413TIP3   OH249653   6.366   0.845   0.069  0.3374 -0.7028  0.5949
 9413TIP3    H149654   6.332   0.924   0.111  2.4516  0.1008  0.9331
 9413TIP3    H249655   6.340   0.854  -0.023  1.0745  0.7399  0.4921
 9414TIP3   OH249656   4.372   6.020  15.512  0.4259 -0.3320  0.0685
 9414TIP3    H149657   4.338   6.097  15.557 -0.3213 -0.5252 -0.1455
 9414TIP3    H249658   4.298   5.959  15.509  0.8119 -0.7982 -0.3552
 9415TIP3   OH249659   5.889   2.100  13.679 -0.2008 -0.0346 -0.0056
 9415TIP3    H149660   5.876   2.100  13.774  0.4514 -1.1599  0.0934
 9415TIP3    H249661   5.972   2.146  13.665 -0.0140 -0.3645  0.0139
 9416TIP3   OH249662   6.460   0.107  11.077 -0.3411 -0.2992  0.2843
 9416TIP3    H149663   6.435   0.132  11.166  0.0163 -3.0154  1.2524
 9416TIP3    H249664   6.527   0.040  11.089 -2.6716 -3.3257 -1.8175
 9417TIP3   OH249665   0.832   0.257  14.007  0.1851 -0.0077 -0.0718
 9417TIP3    H149666   0.786   0.288  13.928 -0.6265 -0.4792  0.1965
 9417TIP3    H249667   0.802   0.316  14.076  2.4968  1.7457 -0.4491
 9418TIP3   OH249668   3.156   6.212   6.171  0.8665  0.0337 -0.0625
 9418TIP3    H149669   3.086   6.152   6.146 -0.9606  2.4782 -1.2752
 9418TIP3    H249670   3.180   6.186   6.260  0.4177 -2.6025 -0.6335
 9419TIP3   OH249671   3.793   3.170   6.185 -0.6649  0.7900  0.7473
 9419TIP3    H149672   3.778   3.145   6.277  0.8257  0.6922  0.9835
 9419TIP3    H249673   3.854   3.243   6.190 -0.8840  1.0389 -0.1619
 9420TIP3   OH249674   4.341   4.839   4.393 -0.4354 -0.2915  0.3395
 9420TIP3    H149675   4.266   4.849   4.335 -0.1134 -1.0317 -0.2262
 9420TIP3    H249676   4.333   4.749   4.426  1.3452 -1.1575 -1.4048
 9421TIP3   OH249677   3.822   5.807  15.872 -0.2983 -0.4832 -0.2236
 9421TIP3    H149678   3.835   5.725  15.825 -1.1869 -0.8971  0.2322
 9421TIP3    H249679   3.818   5.782  15.964  0.3883  0.1960  0.0054
 9422TIP3   OH249680   3.447   3.550   1.357 -0.0626 -0.2714 -0.2030
 9422TIP3    H149681   3.395   3.615   1.310  0.2790  1.2850  1.4439
 9422TIP3    H249682   3.398   3.535   1.438  2.0119  1.3511  1.4741
 9423TIP3   OH249683   5.753   0.767  16.371  0.7021 -0.0371  0.5270
 9423TIP3    H149684   5.731   0.851  16.331  0.0546  0.4793  1.9023
 9423TIP3    H249685   5.849   0.766  16.373  0.7217  0.3579 -0.1295
 9424TIP3   OH249686   0.198   2.156  14.356  0.1281  0.5992 -0.3147
 9424TIP3    H149687   0.266   2.098  14.322  0.8696  0.9751  0.4768
 9424TIP3    H249688   0.246   2.233  14.387 -0.5392  0.4650  1.1572
 9425TIP3   OH249689   0.866   3.311   1.598 -0.4084  0.2679 -0.7006
 9425TIP3    H149690   0.890   3.325   1.506 -1.4833  3.4120 -0.6112
 9425TIP3    H249691   0.770   3.318   1.599 -0.3990  0.4988  0.6736
 9426TIP3   OH249692   5.605   1.926  16.700  0.0131 -0.1376 -0.0276
 9426TIP3    H149693   5.684   1.917  16.752  0.1996 -2.3310 -0.5849
 9426TIP3    H249694   5.534   1.897  16.757 -0.0652 -0.4152 -0.2577
 9427TIP3   OH249695   5.924   6.427   5.723  0.7191  0.2858 -0.5127
 9427TIP3    H149696   5.966   6.368   5.785 -0.1487  1.8860  1.7006
 9427TIP3    H249697   5.896   6.502   5.775 -2.1209  0.7071 -2.3784
 9428TIP3   OH249698   2.558   5.554  12.817 -0.1368  0.3215 -0.0909
 9428TIP3    H149699   2.480   5.500  12.803 -1.4299  1.7402  1.3031
 9428TIP3    H249700   2.525   5.634  12.857  1.9411  1.4018 -0.4162
 9429TIP3   OH249701   4.963   1.568  13.582 -0.4652  0.6496 -0.5388
 9429TIP3    H149702   4.948   1.662  13.595 -0.9816  0.5069 -0.0620
 9429TIP3    H249703   5.037   1.564  13.521 -0.6287  1.3669 -0.7990
 9430TIP3   OH249704   0.366   3.178   3.778  0.6021 -0.1631 -0.1031
 9430TIP3    H149705   0.418   3.257   3.791 -0.3834  0.7315 -1.3827
 9430TIP3    H249706   0.386   3.150   3.689 -0.1082 -0.5589 -0.1474
 9431TIP3   OH249707   6.273   5.137  12.417  0.3284  0.4221 -0.5106
 9431TIP3    H149708   6.193   5.168  12.374 -0.5506  1.2094  1.5719
 9431TIP3    H249709   6.322   5.093  12.348 -2.9747 -2.2217 -1.3889
 9432TIP3   OH249710   1.870   3.483   0.955 -0.0520  0.3327 -0.1285
 9432TIP3    H149711   1.866   3.572   0.921 -1.7092 -0.3837 -2.0226
 9432TIP3    H249712   1.900   3.493   1.046  1.7720  2.6052 -0.8937
 9433TIP3   OH249713   4.622   4.821   0.570  0.0731  0.0608  0.2043
 9433TIP3    H149714   4.688   4.760   0.536  0.5498  0.6248  0.1135
 9433TIP3    H249715   4.644   4.833   0.662  0.2654  0.4655  0.1069
 9434TIP3   OH249716   0.124   4.029  14.013  0.4171 -0.1934  0.0909
 9434TIP3    H149717   0.143   4.122  14.015  1.4799 -0.4024  0.3697
 9434TIP3    H249718   0.117   4.008  13.920  0.4976  0.1099  0.0135
 9435TIP3   OH249719   4.044   5.777   2.498 -0.7384  0.1186  1.1641
 9435TIP3    H149720   4.042   5.866   2.463  0.0693  0.0431  0.9062
 9435TIP3    H249721   4.087   5.786   2.583 -2.2679  0.2299  1.9634
 9436TIP3   OH249722   6.156   6.652  15.289 -0.2922  0.0693 -0.4872
 9436TIP3    H149723   6.150   6.693  15.375  3.1455  0.5162 -0.3122
 9436TIP3    H249724   6.215   6.577  15.302  2.7436  1.8080 -2.8225
 9437TIP3   OH249725   1.908   5.476  16.042  0.1468 -0.3034 -0.1670
 9437TIP3    H149726   1.871   5.395  16.006  0.3136 -0.1797 -0.6268
 9437TIP3    H249727   2.003   5.465  16.033  0.1614  0.0469 -0.4615
 9438TIP3   OH249728   0.591   2.232  16.163  0.4858  0.2507  0.2058
 9438TIP3    H149729   0.644   2.221  16.242  0.6414 -1.1004 -0.0680
 9438TIP3    H249730   0.623   2.313  16.124  1.8687 -0.1679  0.4262
 9439TIP3   OH249731   0.941   1.325  15.909  0.2617 -0.0097 -0.1464
 9439TIP3    H149732   1.026   1.365  15.925 -0.3892  1.5491 -0.3785
 9439TIP3    H249733   0.880   1.399  15.901 -1.2906 -1.0930  0.9620
 9440TIP3   OH249734   2.883   0.575   5.581 -0.9069 -0.2289  0.5127
 9440TIP3    H149735   2.889   0.669   5.563  0.3909 -0.7134 -2.0708
 9440TIP3    H249736   2.891   0.534   5.495  0.0824 -2.7681  1.7206
 9441TIP3   OH249737   6.391   3.939  15.149  0.6970  0.2742  0.0993
 9441TIP3    H149738   6.373   3.885  15.226  1.1807 -0.5392 -0.3418
 9441TIP3    H249739   6.430   3.878  15.086 -1.1803  0.5427 -1.4063
 9442TIP3   OH249740   0.780   1.560  15.892  0.0006 -0.2141  0.8550
 9442TIP3    H149741   0.690   1.554  15.859  0.4753 -0.7742 -0.3943
 9442TIP3    H249742   0.816   1.637  15.849  0.1327 -0.0020  1.3393
 9443TIP3   OH249743   0.969   4.502   2.112 -0.4151  0.1543  0.0019
 9443TIP3    H149744   1.063   4.496   2.127 -0.5601  0.5969  1.1558
 9443TIP3    H249745   0.932   4.428   2.159 -0.9044  1.7424  2.2808
 9444TIP3   OH249746   4.246   3.015  12.514 -0.0749 -0.2931  0.1443
 9444TIP3    H149747   4.205   3.065  12.585  0.2189 -0.1506  0.2162
 9444TIP3    H249748   4.305   3.077  12.472  0.1455 -0.5242  0.1095
 9445TIP3   OH249749   2.978   6.565   6.023 -0.4975 -0.2178  0.0668
 9445TIP3    H149750   2.980   6.541   6.116 -0.9740 -0.3299  0.0483
 9445TIP3    H249751   2.952   6.657   6.023 -1.7337 -0.5519 -0.0086
 9446TIP3   OH249752   6.662   1.924  12.878  0.2711  1.0394 -0.0846
 9446TIP3    H149753   6.699   1.843  12.913 -0.5644  0.5284 -0.3706
 9446TIP3    H249754   6.567   1.913  12.886  0.1024  3.2579  2.8502
 9447TIP3   OH249755   5.872   0.128  16.318 -0.4179  0.4053 -0.5247
 9447TIP3    H149756   5.855   0.179  16.239 -1.3385 -0.2684 -0.7900
 9447TIP3    H249757   5.830   0.043  16.301  0.8582 -0.3528  0.0031
 9448TIP3   OH249758   3.958   4.849   5.354  0.1611  0.2093  0.0248
 9448TIP3    H149759   3.878   4.898   5.368  0.3633  0.3290  0.8706
 9448TIP3    H249760   4.012   4.905   5.298 -0.7454 -0.3366 -1.4467
 9449TIP3   OH249761   1.004   5.772   3.831 -0.2412  0.0730 -0.2425
 9449TIP3    H149762   1.022   5.853   3.879 -0.1005  0.4640 -0.9274
 9449TIP3    H249763   0.976   5.710   3.897  0.6664  0.3687  0.4476
 9450TIP3   OH249764   5.315   3.880   0.518  0.6001  0.0359  0.1087
 9450TIP3    H149765   5.253   3.876   0.590  0.0114 -2.7804 -0.4622
 9450TIP3    H249766   5.401   3.877   0.560  0.2757 -0.6629  0.7333
 9451TIP3   OH249767   0.059   2.072  12.241  0.6328 -0.2366  0.3381
 9451TIP3    H149768   0.066   2.090  12.148 -0.6842 -1.4439 -0.0229
 9451TIP3    H249769   0.075   1.978  12.248 -1.3005 -0.5471  1.0554
 9452TIP3   OH249770   0.562   6.541   2.099  0.0522 -0.7369 -0.3852
 9452TIP3    H149771   0.627   6.607   2.075 -0.5540  0.6736  1.5694
 9452TIP3    H249772   0.485   6.563   2.047 -0.1005  0.0589  0.1568
 9453TIP3   OH249773   0.548   6.338   2.510  0.2291 -0.1266  0.1003
 9453TIP3    H149774   0.581   6.423   2.480  1.9553 -0.4818  0.9016
 9453TIP3    H249775   0.483   6.361   2.577  0.6602  0.5630  0.2914
 9454TIP3   OH249776   5.689   5.157  10.683  0.4911  0.0831  0.4230
 9454TIP3    H149777   5.651   5.244  10.685 -3.7520 -1.5040 -0.4875
 9454TIP3    H249778   5.698   5.137  10.590  2.0062 -0.2911  0.6237
 9455TIP3   OH249779   2.848   2.016   5.882 -0.0594 -0.0286 -0.0258
 9455TIP3    H149780   2.888   1.929   5.878  1.2165  0.5400 -0.2168
 9455TIP3    H249781   2.783   2.016   5.812  2.3282  0.2824 -2.3767
 9456TIP3   OH249782   1.927   1.939  11.584  0.5958  0.5034  0.0640
 9456TIP3    H149783   1.853   2.000  11.582 -0.0528 -0.2121  1.0826
 9456TIP3    H249784   1.994   1.980  11.530 -0.9701  0.6085 -1.9210
 9457TIP3   OH249785   6.218   5.906   1.220 -0.7967 -0.4727 -0.2404
 9457TIP3    H149786   6.283   5.971   1.193 -0.5325 -0.6346 -0.0057
 9457TIP3    H249787   6.222   5.906   1.315 -1.9504  0.3194 -0.1734
 9458TIP3   OH249788   5.878   1.071  16.558 -0.1337 -0.3111  0.1447
 9458TIP3    H149789   5.928   1.149  16.534  1.1308 -0.8774  0.8658
 9458TIP3    H249790   5.944   1.002  16.570 -1.0846 -1.1135  1.0069
 9459TIP3   OH249791   2.121   4.718  11.239  0.2424 -0.1722 -0.0413
 9459TIP3    H149792   2.213   4.743  11.232  0.1697 -0.0105 -0.5415
 9459TIP3    H249793   2.074   4.795  11.206 -0.0463 -0.4586 -0.2994
 9460TIP3   OH249794   5.976   6.201  16.927  0.2607  0.4828 -0.0219
 9460TIP3    H149795   5.902   6.223  16.983 -0.8687 -0.0854 -1.2540
 9460TIP3    H249796   6.004   6.114  16.957  2.0811  1.7021  2.0948
 9461TIP3   OH249797   0.716   1.091  14.696  0.0664 -0.0477  0.4466
 9461TIP3    H149798   0.648   1.068  14.633 -0.6985 -0.5939  1.4577
 9461TIP3    H249799   0.681   1.066  14.781  0.7966  1.3170  1.1893
 9462TIP3   OH249800   6.126   3.341   3.913 -0.1794  0.2242  0.3388
 9462TIP3    H149801   6.113   3.365   4.004 -1.7688 -0.3348  0.2977
 9462TIP3    H249802   6.074   3.261   3.902  0.5327 -0.0992 -0.8857
 9463TIP3   OH249803   3.913   3.677   3.867 -0.3814 -0.6021  0.2764
 9463TIP3    H149804   3.935   3.654   3.777 -0.1454  1.2391 -0.1696
 9463TIP3    H249805   3.831   3.726   3.860 -1.2908 -1.8878  1.2719
 9464TIP3   OH249806   0.081   4.526  16.325 -0.1427  0.3839 -0.7185
 9464TIP3    H149807   0.163   4.542  16.279  0.8290  0.2114  0.8909
 9464TIP3    H249808   0.078   4.592  16.394 -1.0740  0.0381 -0.4074
 9465TIP3   OH249809   6.586   5.781   0.241 -0.1041 -0.4565  0.0796
 9465TIP3    H149810   6.670   5.741   0.217  0.6751 -0.1275  2.0562
 9465TIP3    H249811   6.582   5.772   0.336 -1.6612  0.8106  0.1684
 9466TIP3   OH249812   1.555   5.141   5.300  0.2256 -0.8131  0.2484
 9466TIP3    H149813   1.489   5.204   5.273  0.0133  0.2151  2.8378
 9466TIP3    H249814   1.508   5.059   5.309 -0.2262 -0.5815 -0.0091
 9467TIP3   OH249815   3.420   2.404  13.590  0.3481  0.4252  0.1437
 9467TIP3    H149816   3.394   2.481  13.641  0.3493  0.8042 -0.4199
 9467TIP3    H249817   3.373   2.413  13.508 -1.8750 -1.6356  1.0887
 9468TIP3   OH249818   3.066   1.494  12.686  0.0111  0.0576  0.4792
 9468TIP3    H149819   2.991   1.553  12.685  2.5042  3.6436 -3.0879
 9468TIP3    H249820   3.083   1.474  12.594  3.3065 -0.7129  1.1335
 9469TIP3   OH249821   0.957   4.643  17.226 -0.5384  0.4058  0.0176
 9469TIP3    H149822   0.939   4.558  17.264 -0.0412  0.5879  0.6820
 9469TIP3    H249823   0.895   4.651  17.153  0.6993 -1.3291 -1.3018
 9470TIP3   OH249824   0.988   4.222  16.224 -0.0869 -0.2692  0.2409
 9470TIP3    H149825   0.895   4.236  16.209  0.1551 -0.3153 -1.5117
 9470TIP3    H249826   0.993   4.178  16.308 -1.6388 -0.1585  0.4063
 9471TIP3   OH249827   2.707   0.559   5.861 -0.3750 -0.5211 -0.0256
 9471TIP3    H149828   2.791   0.516   5.870 -0.1165 -0.7708 -2.6881
 9471TIP3    H249829   2.720   0.623   5.790 -2.0371  0.4794  0.5024
 9472TIP3   OH249830   4.152   0.418   3.993  0.4190 -0.2203  0.2007
 9472TIP3    H149831   4.100   0.342   4.020  1.2116 -1.6417 -1.9706
 9472TIP3    H249832   4.205   0.385   3.920 -0.1669  2.7584 -1.7353
 9473TIP3   OH249833   4.237   0.208   3.373  0.3295  0.4916  0.0393
 9473TIP3    H149834   4.156   0.230   3.327  0.8400  0.0517 -1.1278
 9473TIP3    H249835   4.224   0.118   3.403  0.6563  0.1388 -0.8318
 9474TIP3   OH249836   3.765   0.967  12.954  0.5383 -0.0354 -0.2468
 9474TIP3    H149837   3.801   0.940  12.869  0.3458 -0.9531 -0.0379
 9474TIP3    H249838   3.799   1.056  12.966 -0.9464  0.8546 -2.1489
 9475TIP3   OH249839   5.025   1.042  16.019 -1.0652 -0.4954 -0.6539
 9475TIP3    H149840   4.930   1.031  16.020 -1.0950 -0.7629 -2.5416
 9475TIP3    H249841   5.056   0.976  15.957  0.2298  0.4318 -1.0327
 9476TIP3   OH249842   4.971   6.110   0.432 -0.0240  0.3075 -0.2575
 9476TIP3    H149843   4.930   6.044   0.488 -0.4000  0.3631 -0.4649
 9476TIP3    H249844   5.063   6.109   0.457  0.1376 -0.8983 -0.8724
 9477TIP3   OH249845   2.207   2.188   3.273 -0.1998  0.3596  0.5662
 9477TIP3    H149846   2.270   2.133   3.227 -0.9228 -0.5148  0.5900
 9477TIP3    H249847   2.231   2.278   3.249 -0.2937 -0.0430 -1.1762
 9478TIP3   OH249848   1.626   2.866  15.638  0.4143  0.6328 -0.1799
 9478TIP3    H149849   1.531   2.868  15.650 -0.1471  2.0554 -3.6446
 9478TIP3    H249850   1.659   2.934  15.696 -0.1678 -1.8238  3.3565
 9479TIP3   OH249851   0.751   5.206  14.172 -0.8098 -0.2076 -0.0738
 9479TIP3    H149852   0.830   5.180  14.220  0.5544  0.2780 -1.9527
 9479TIP3    H249853   0.692   5.131  14.182  0.9461 -1.7921 -0.8404
 9480TIP3   OH249854   4.933   6.148  13.488 -0.2823  0.2616  0.3579
 9480TIP3    H149855   4.962   6.238  13.503  0.6114 -0.0283  0.4217
 9480TIP3    H249856   4.979   6.120  13.409  0.8500 -0.7285  1.3219
 9481TIP3   OH249857   3.215   6.039  12.882  0.1779  0.7043  0.0226
 9481TIP3    H149858   3.204   5.962  12.826  3.5388 -2.2422  2.8887
 9481TIP3    H249859   3.127   6.057  12.915 -1.0379 -0.6122 -2.2532
 9482TIP3   OH249860   6.489   0.990   5.918 -0.1273 -0.1081 -0.3154
 9482TIP3    H149861   6.477   0.942   5.836 -0.2896 -0.5745 -0.0257
 9482TIP3    H249862   6.556   0.940   5.965  0.7407  0.7566 -0.6095
 9483TIP3   OH249863   2.575   6.535   6.381  0.0502 -0.6889 -0.7803
 9483TIP3    H149864   2.603   6.624   6.404  0.9224 -0.6013 -2.0614
 9483TIP3    H249865   2.480   6.538   6.387 -0.0603  0.8167 -2.2952
 9484TIP3   OH249866   4.990   4.886  10.929 -0.6694 -0.2112  0.6331
 9484TIP3    H149867   5.029   4.938  10.858  0.2641 -0.0975  1.2199
 9484TIP3    H249868   4.929   4.945  10.971 -0.4846  0.0381  0.5547
 9485TIP3   OH249869   5.081   1.049  11.099  1.0569  0.4854 -0.4169
 9485TIP3    H149870   5.169   1.057  11.062  1.5984 -0.6227  0.5277
 9485TIP3    H249871   5.055   0.959  11.078  1.0451  0.1005  1.0826
 9486TIP3   OH249872   1.042   3.605  10.719 -0.5336  0.1008 -0.1720
 9486TIP3    H149873   1.125   3.651  10.732 -0.0187 -0.9252  0.3226
 9486TIP3    H249874   0.986   3.668  10.673 -0.6945  2.1109  2.5067
 9487TIP3   OH249875   4.400   5.560  15.896  0.1965 -0.1548 -0.1650
 9487TIP3    H149876   4.412   5.468  15.920  2.7074 -0.0097 -0.6116
 9487TIP3    H249877   4.369   5.557  15.805 -0.0959 -0.5663 -0.0533
 9488TIP3   OH249878   1.762   0.808   0.658 -0.3713 -0.0688 -0.0032
 9488TIP3    H149879   1.716   0.724   0.660 -1.7253  0.6231 -0.6156
 9488TIP3    H249880   1.810   0.811   0.741 -0.3152 -1.4266  0.0298
 9489TIP3   OH249881   2.055   1.518  14.333  0.4913  0.2466  0.5569
 9489TIP3    H149882   1.997   1.588  14.302  0.9396  0.5554  0.4152
 9489TIP3    H249883   2.049   1.451  14.266  0.2929  0.2748  0.5451
 9490TIP3   OH249884   3.985   5.396   0.039 -0.0127 -0.1815  0.4039
 9490TIP3    H149885   4.073   5.433   0.043 -0.0835  0.0104  0.1758
 9490TIP3    H249886   3.981   5.353  -0.046  0.0370 -0.6358  0.6265
 9491TIP3   OH249887   6.173   2.739   5.484  0.1211 -0.4013 -0.0127
 9491TIP3    H149888   6.131   2.782   5.409 -0.6955 -1.6785 -0.3285
 9491TIP3    H249889   6.248   2.794   5.504 -0.9680  1.2666 -0.2657
 9492TIP3   OH249890   0.332   5.749   4.814 -0.0230 -0.2157  0.2405
 9492TIP3    H149891   0.336   5.722   4.722  2.1970 -1.5826  0.6844
 9492TIP3    H249892   0.423   5.762   4.840 -0.6194  0.5631  2.1706
 9493TIP3   OH249893   5.626   4.704   0.234  0.6917 -0.0180  0.3078
 9493TIP3    H149894   5.621   4.739   0.145  0.8369  1.9993  1.0398
 9493TIP3    H249895   5.608   4.611   0.224 -0.0027  0.2813 -1.7351
 9494TIP3   OH249896   1.710   4.366   4.535  0.2245  0.8356 -0.0320
 9494TIP3    H149897   1.739   4.301   4.599  0.0401  1.3580  0.5916
 9494TIP3    H249898   1.617   4.347   4.521  0.2610  0.7314 -0.1344
 9495TIP3   OH249899   1.792   4.299   6.065 -0.0241 -0.0542 -0.1829
 9495TIP3    H149900   1.783   4.390   6.094 -1.5149  0.0454 -0.8154
 9495TIP3    H249901   1.750   4.248   6.134 -2.7706  0.1140 -1.5702
 9496TIP3   OH249902   1.043   5.994  16.925  0.6968 -0.3292 -0.1884
 9496TIP3    H149903   0.968   5.934  16.914 -0.9598  1.5957  0.0364
 9496TIP3    H249904   1.045   6.013  17.019  2.2968 -1.3009  0.0139
 9497TIP3   OH249905   4.676   6.031  13.450 -0.4338 -0.4070  0.0564
 9497TIP3    H149906   4.744   5.966  13.467  0.3796 -0.6374 -3.2994
 9497TIP3    H249907   4.723   6.114  13.448 -0.8920 -0.1103  1.0270
 9498TIP3   OH249908   4.525   0.118   4.242 -0.3401 -0.5591  0.2362
 9498TIP3    H149909   4.507   0.098   4.150 -1.0650  0.2243  0.1994
 9498TIP3    H249910   4.611   0.161   4.240 -0.8336  0.4339 -0.2118
 9499TIP3   OH249911   3.027   0.554  14.034 -0.4094  0.0063 -0.0092
 9499TIP3    H149912   3.023   0.519  14.123  1.7407 -1.4488 -0.3800
 9499TIP3    H249913   3.075   0.636  14.042  1.1564 -0.8752  0.0547
 9500TIP3   OH249914   3.280   1.948   2.756 -0.2298  0.4472 -0.0105
 9500TIP3    H149915   3.367   1.981   2.779  0.0375 -0.3138  0.1007
 9500TIP3    H249916   3.292   1.904   2.672  0.2231 -2.4304  1.4302
 9501TIP3   OH249917   3.383   1.589   4.729 -0.2036 -0.1425  0.0745
 9501TIP3    H149918   3.318   1.657   4.748  1.3196  2.3861 -2.9359
 9501TIP3    H249919   3.346   1.540   4.656  1.3545  1.6957 -2.0635
 9502TIP3   OH249920   3.108   1.932   4.119  0.6115  0.0316 -0.2830
 9502TIP3    H149921   3.178   1.875   4.086  0.6294 -0.0788 -0.0566
 9502TIP3    H249922   3.068   1.881   4.190  0.0016 -0.1059 -0.7123
 9503TIP3   OH249923   5.344   4.028   6.392  0.0920  0.1319  0.6087
 9503TIP3    H149924   5.366   4.120   6.404 -0.3608  0.4351 -0.7880
 9503TIP3    H249925   5.354   3.990   6.479  3.4351  0.8065  0.6646
 9504TIP3   OH249926   2.967   3.297   0.660 -0.2361  0.3710 -0.2127
 9504TIP3    H149927   3.039   3.278   0.601 -0.6997 -0.4517 -0.5319
 9504TIP3    H249928   3.009   3.329   0.740  0.6317 -2.0051  0.3621
 9505TIP3   OH249929   4.747   0.437   4.233  0.5850 -0.5363 -0.3035
 9505TIP3    H149930   4.656   0.458   4.256  0.9494  1.7143 -0.7425
 9505TIP3    H249931   4.745   0.420   4.139  0.5601 -0.9755 -0.2279
 9506TIP3   OH249932   1.761   4.571   5.946  0.5751  0.4097 -0.3448
 9506TIP3    H149933   1.668   4.585   5.926  0.4275  1.3656  0.8509
 9506TIP3    H249934   1.768   4.477   5.963  0.3707 -0.1319 -2.9132
 9507TIP3   OH249935   2.768   1.630  15.063  0.0817  0.3587 -0.5129
 9507TIP3    H149936   2.861   1.637  15.042 -0.3255 -0.6387 -2.9410
 9507TIP3    H249937   2.746   1.713  15.105  2.1745  0.3696  0.6845
 9508TIP3   OH249938   0.520   1.667   0.384  0.5158 -0.2766  0.4873
 9508TIP3    H149939   0.607   1.636   0.360  0.8576  2.0256 -1.5362
 9508TIP3    H249940   0.535   1.733   0.452  0.4826  0.8268 -0.5471
 9509TIP3   OH249941   2.264   3.325  14.908 -0.8815 -0.0053  0.3519
 9509TIP3    H149942   2.233   3.279  14.986 -0.9347  0.8143  0.8206
 9509TIP3    H249943   2.190   3.379  14.880 -1.0216 -0.6395 -0.5491
 9510TIP3   OH249944   3.879   6.440   5.383 -0.2644 -0.0977  0.6059
 9510TIP3    H149945   3.874   6.382   5.307  1.7413 -0.6533  0.8398
 9510TIP3    H249946   3.971   6.438   5.410 -0.7593  0.6819  2.6020
 9511TIP3   OH249947   3.219   1.956  16.116  0.1265  0.2216  0.5206
 9511TIP3    H149948   3.246   1.889  16.178  0.5416  0.4542  0.5885
 9511TIP3    H249949   3.291   2.019  16.115  1.9364 -1.6266 -2.9928
 9512TIP3   OH249950   1.009   2.937  12.764  0.1093 -0.1288 -0.7901
 9512TIP3    H149951   1.100   2.942  12.790  0.5807 -0.7070 -2.2313
 9512TIP3    H249952   0.962   2.913  12.845  1.2476 -0.0539 -0.0910
 9513TIP3   OH249953   6.454   0.107   1.867 -0.4525 -0.3057 -0.2831
 9513TIP3    H149954   6.417   0.027   1.905 -0.3814  0.0062  0.4572
 9513TIP3    H249955   6.523   0.075   1.809 -0.0672 -0.7692  0.4105
 9514TIP3   OH249956   1.486   3.101  11.679  0.6732 -0.0927  0.1242
 9514TIP3    H149957   1.439   3.044  11.618 -0.6289  1.3029 -0.2544
 9514TIP3    H249958   1.424   3.172  11.698  1.4920  0.1344  2.1584
 9515TIP3   OH249959   1.005   1.048  14.375 -0.2599  0.3880 -0.1446
 9515TIP3    H149960   0.991   1.130  14.423 -0.6644  0.5421 -0.5092
 9515TIP3    H249961   0.967   0.981  14.431  2.1631  0.0994  1.2748
 9516TIP3   OH249962   2.595   4.973  12.174  0.3632  0.4181  0.1682
 9516TIP3    H149963   2.559   5.041  12.117  0.6056 -0.1739 -0.7117
 9516TIP3    H249964   2.520   4.917  12.195  0.0706  1.1825  1.2579
 9517TIP3   OH249965   0.871   4.539  11.646  0.1753  0.1236  0.3698
 9517TIP3    H149966   0.796   4.529  11.587  1.6751 -2.4223 -1.3464
 9517TIP3    H249967   0.834   4.577  11.725 -3.3306 -2.4348  0.2558
 9518TIP3   OH249968   0.327   5.884  15.930 -0.6271 -0.2111  0.1478
 9518TIP3    H149969   0.377   5.804  15.917  0.5082  0.1262  2.0377
 9518TIP3    H249970   0.369   5.927  16.005 -1.3908  2.0009 -0.5961
 9519TIP3   OH249971   4.796   5.687   3.895  0.0006  0.0130  0.1517
 9519TIP3    H149972   4.857   5.761   3.896 -0.3646  0.3305 -0.3500
 9519TIP3    H249973   4.850   5.612   3.870  0.1626  0.3223 -0.4466
 9520TIP3   OH249974   1.759   2.371  12.516 -0.2154  0.6581  0.6618
 9520TIP3    H149975   1.833   2.352  12.458 -0.2165  1.1037  0.5159
 9520TIP3    H249976   1.735   2.285  12.552 -0.1607  0.3947  0.0763
 9521TIP3   OH249977   5.476   0.324  11.303 -0.4296 -0.0053 -0.0058
 9521TIP3    H149978   5.385   0.348  11.286 -0.9072 -0.4331  1.7648
 9521TIP3    H249979   5.472   0.232  11.328  0.2849  0.3351  1.4513
 9522TIP3   OH249980   3.749   1.672  13.885  0.6826 -0.6317 -0.1417
 9522TIP3    H149981   3.818   1.618  13.846  1.5305  0.7734 -0.6538
 9522TIP3    H249982   3.730   1.739  13.820  1.2630  1.0464  1.3103
 9523TIP3   OH249983   4.166   4.491   0.540  0.2471  0.5634 -0.7370
 9523TIP3    H149984   4.259   4.483   0.560  0.0375 -0.4373 -0.0792
 9523TIP3    H249985   4.163   4.531   0.453  1.3672 -1.5637 -1.8244
 9524TIP3   OH249986   0.611   1.127   4.963  0.5095 -0.3043  0.1367
 9524TIP3    H149987   0.595   1.060   5.030  0.5912  0.8680  1.3868
 9524TIP3    H249988   0.697   1.105   4.928  0.4933 -0.9160  0.4525
 9525TIP3   OH249989   1.702   4.162   5.370 -0.1987  0.4866  0.2686
 9525TIP3    H149990   1.767   4.225   5.340  1.0549 -0.1181  1.6078
 9525TIP3    H249991   1.637   4.215   5.416  0.1174  0.9544  0.1842
 9526TIP3   OH249992   0.342   1.525  14.905  0.2285  0.1832 -0.8082
 9526TIP3    H149993   0.398   1.452  14.878 -0.9486 -0.8943 -0.4583
 9526TIP3    H249994   0.257   1.506  14.864 -0.5537  0.4600  0.6188
 9527TIP3   OH249995   4.341   0.661  10.941  0.2780 -0.0842 -0.2623
 9527TIP3    H149996   4.384   0.741  10.971 -0.5929  0.1959  0.2714
 9527TIP3    H249997   4.373   0.593  11.001  1.4845 -0.2675 -1.0893
 9528TIP3   OH249998   1.022   6.458  16.723  0.5873  0.1751 -0.0608
 9528TIP3    H149999   1.034   6.482  16.631 -0.3266  0.1619 -0.1877
 9528TIP3    H250000   1.093   6.396  16.741  1.1064  0.6061 -0.5939
 9529TIP3   OH250001   5.464   4.138  13.464  0.0356  0.1188 -0.5508
 9529TIP3    H150002   5.556   4.161  13.479 -0.6598  3.2189 -0.2792
 9529TIP3    H250003   5.441   4.185  13.384 -1.4377 -0.2016 -0.3365
 9530TIP3   OH250004   3.497   1.772  14.354 -0.1071  0.2595  0.0324
 9530TIP3    H150005   3.545   1.705  14.402 -0.1530 -0.0187 -0.3036
 9530TIP3    H250006   3.520   1.757  14.262 -0.2996  0.5564 -0.0694
 9531TIP3   OH250007   0.666   1.036   1.565  0.1978 -0.6467  0.4856
 9531TIP3    H150008   0.602   1.058   1.632  0.5304 -1.8186  1.2229
 9531TIP3    H250009   0.734   1.102   1.574 -1.1453  0.9730 -0.7056
 9532TIP3   OH250010   3.848   2.029  14.026  0.2641  0.3208 -0.3910
 9532TIP3    H150011   3.793   2.072  14.092  1.1395  2.4960 -0.9657
 9532TIP3    H250012   3.801   2.041  13.944 -0.7024 -2.1628 -0.2652
 9533TIP3   OH250013   4.168   2.434  16.861 -0.0884  0.2214 -0.6773
 9533TIP3    H150014   4.073   2.438  16.866 -0.0333  2.1283 -0.7170
 9533TIP3    H250015   4.191   2.352  16.905 -1.6746  0.2564  0.2785
 9534TIP3   OH250016   6.544   1.896  14.432  0.6792 -0.2829 -0.1708
 9534TIP3    H150017   6.528   1.895  14.526 -0.5890 -1.2615 -0.3654
 9534TIP3    H250018   6.583   1.811  14.413 -1.7752 -1.3681 -0.8847
 9535TIP3   OH250019   0.623   4.407   2.002 -0.0364 -0.3975 -0.3226
 9535TIP3    H150020   0.559   4.468   2.039 -2.0385 -2.2701 -0.4973
 9535TIP3    H250021   0.665   4.368   2.078 -2.6179 -2.6654  0.0755
 9536TIP3   OH250022   0.860   0.103  16.488  0.6862  0.1841 -0.2141
 9536TIP3    H150023   0.833   0.162  16.558 -2.1698  1.7823 -2.4856
 9536TIP3    H250024   0.794   0.034  16.488  1.2675 -0.3888 -0.6806
 9537TIP3   OH250025   5.305   5.754  15.765  0.4609  0.2687  0.3361
 9537TIP3    H150026   5.226   5.700  15.761  1.1549 -0.7282 -0.5287
 9537TIP3    H250027   5.324   5.775  15.674  1.2628  0.4000  0.5270
 9538TIP3   OH250028   0.707   2.475   5.029 -0.0351 -0.4920  0.0334
 9538TIP3    H150029   0.736   2.566   5.032 -0.2832 -0.4009 -0.2996
 9538TIP3    H250030   0.775   2.426   5.075 -0.8887  0.1226  2.1055
 9539TIP3   OH250031   5.207   3.533  15.270 -0.1007 -0.1014  0.1787
 9539TIP3    H150032   5.170   3.520  15.182  0.2248 -0.9870  0.1609
 9539TIP3    H250033   5.277   3.468  15.276 -0.3556 -0.3051  1.2267
 9540TIP3   OH250034   0.638   2.118   1.844  0.2591 -0.6319  0.3569
 9540TIP3    H150035   0.643   2.162   1.759  2.4278 -0.4714  0.5123
 9540TIP3    H250036   0.568   2.053   1.834 -0.9717  0.8232 -0.8282
 9541TIP3   OH250037   3.612   6.207  13.142 -0.2682 -1.2042 -0.3572
 9541TIP3    H150038   3.581   6.121  13.173  0.5322 -0.6849  2.1083
 9541TIP3    H250039   3.692   6.187  13.094 -1.3217 -2.0049 -1.8779
 9542TIP3   OH250040   0.254   6.379   3.848  0.0850  0.3455 -0.1863
 9542TIP3    H150041   0.300   6.295   3.840 -1.6411 -0.8374  1.4873
 9542TIP3    H250042   0.161   6.356   3.844 -0.4230  2.3742 -1.0720
 9543TIP3   OH250043   2.778   3.433   4.270  0.2360 -0.1571  0.4654
 9543TIP3    H150044   2.822   3.350   4.250 -0.3194 -1.0736  2.7095
 9543TIP3    H250045   2.850   3.493   4.290  0.5977 -0.5395  0.3415
 9544TIP3   OH250046   5.936   6.506  15.170  0.8268 -0.4749  0.4775
 9544TIP3    H150047   5.953   6.503  15.075 -1.0199 -1.2356  0.1375
 9544TIP3    H250048   6.021   6.526  15.208  1.8041 -1.0357 -1.2846
 9545TIP3   OH250049   1.589   0.260   5.160 -0.5132 -0.5621 -0.5815
 9545TIP3    H150050   1.519   0.319   5.186 -0.7847 -1.3438  0.4937
 9545TIP3    H250051   1.627   0.302   5.082 -0.5111  1.1665  0.3033
 9546TIP3   OH250052   1.514   5.270  13.342  0.5598 -0.4861 -0.3999
 9546TIP3    H150053   1.527   5.248  13.249  4.6570 -1.3783  0.1741
 9546TIP3    H250054   1.491   5.186  13.383  1.7124 -0.7416 -0.2437
 9547TIP3   OH250055   0.704   3.181  14.825 -0.0704 -0.7391 -0.5607
 9547TIP3    H150056   0.676   3.108  14.881 -1.0848 -1.0210 -1.4050
 9547TIP3    H250057   0.699   3.146  14.736  1.1720 -0.1809 -0.8659
 9548TIP3   OH250058   4.222   1.356  15.160  0.3909  0.0988 -0.0926
 9548TIP3    H150059   4.298   1.303  15.183  0.4449  0.7700  1.3716
 9548TIP3    H250060   4.238   1.441  15.200 -0.2409  0.8722 -1.4134
 9549TIP3   OH250061   4.056   2.082  13.213 -0.4440  0.7656 -0.1595
 9549TIP3    H150062   4.133   2.113  13.165 -0.6847  1.4112 -0.1399
 9549TIP3    H250063   4.085   2.001  13.256 -0.1354  0.3315 -1.1528
 9550TIP3   OH250064   3.052   4.260  12.360 -0.5440 -0.0482 -0.0636
 9550TIP3    H150065   3.035   4.246  12.266  0.6587  0.9839 -0.4571
 9550TIP3    H250066   3.138   4.221  12.375 -1.0704 -0.9101  0.8111
 9551TIP3   OH250067   3.082   4.982  17.216 -0.5964 -0.5114 -0.2304
 9551TIP3    H150068   3.029   4.903  17.201 -1.8092 -0.2573  2.1749
 9551TIP3    H250069   3.086   5.025  17.131 -0.5319 -2.7676 -1.4377
 9552TIP3   OH250070   0.033   0.504   4.426  0.2235  0.5766 -0.5320
 9552TIP3    H150071  -0.009   0.446   4.363  2.3900  0.1868 -1.7030
 9552TIP3    H250072   0.000   0.475   4.511 -0.9738 -0.4102 -1.3003
 9553TIP3   OH250073   4.223   3.682  13.107  0.3706 -0.5456  0.4044
 9553TIP3    H150074   4.222   3.604  13.051  0.4894  0.7991 -1.5492
 9553TIP3    H250075   4.137   3.721  13.095  0.1608 -0.5748  1.7097
 9554TIP3   OH250076   1.968   2.661   3.728 -0.0999  0.3394 -0.2562
 9554TIP3    H150077   2.026   2.615   3.789 -0.4189 -0.0945 -0.2766
 9554TIP3    H250078   2.027   2.698   3.662  0.0501 -1.7477 -1.3958
 9555TIP3   OH250079   1.374   2.716   2.007 -0.5472 -0.0515 -0.1253
 9555TIP3    H150080   1.395   2.801   1.968 -1.3965 -0.8923 -2.5947
 9555TIP3    H250081   1.281   2.704   1.989 -0.5101 -1.3565  0.4765
 9556TIP3   OH250082   1.909   5.838   0.120 -0.0667 -0.1267 -0.0368
 9556TIP3    H150083   1.927   5.904   0.054 -1.6314  0.7440  0.3643
 9556TIP3    H250084   1.829   5.794   0.089 -0.2234 -0.4149  0.7499
 9557TIP3   OH250085   2.639   3.277  11.026 -0.0483 -0.1175  0.0319
 9557TIP3    H150086   2.630   3.371  11.011  0.9104  0.1276  0.8930
 9557TIP3    H250087   2.566   3.255  11.084  0.0913  0.2259  0.3440
 9558TIP3   OH250088   3.260   3.767   2.290  0.1217  0.1392 -0.4685
 9558TIP3    H150089   3.345   3.805   2.268  0.2339  0.6881  0.8159
 9558TIP3    H250090   3.202   3.793   2.217  0.3335  2.3147  0.0606
 9559TIP3   OH250091   4.909   1.323   2.316 -0.0408 -0.3127 -0.1233
 9559TIP3    H150092   4.834   1.269   2.343 -1.5223  2.0052  0.6541
 9559TIP3    H250093   4.915   1.307   2.221 -1.4983 -0.5997 -0.2049
 9560TIP3   OH250094   6.380   1.990  12.999  0.0819  0.1389 -0.2155
 9560TIP3    H150095   6.395   2.067  13.052 -1.1553 -0.7506  1.5251
 9560TIP3    H250096   6.333   2.022  12.922 -0.4596  1.1149  0.5040
 9561TIP3   OH250097   3.136   1.059  15.605  0.0371 -0.2110 -0.0416
 9561TIP3    H150098   3.048   1.065  15.568 -0.4177  3.5392  1.2608
 9561TIP3    H250099   3.127   1.095  15.693  2.4361 -2.2656  1.1810
 9562TIP3   OH250100   4.753   1.455  13.734  0.3970 -0.6042 -0.4469
 9562TIP3    H150101   4.827   1.495  13.688  1.2416 -0.7360  0.7299
 9562TIP3    H250102   4.783   1.367  13.757 -0.5980 -1.1044 -1.0318
 9563TIP3   OH250103   1.625   2.076  15.539  0.3031  0.0411  0.1220
 9563TIP3    H150104   1.643   2.151  15.596  2.4055  0.1640 -0.6371
 9563TIP3    H250105   1.630   2.000  15.598  1.2791  0.2604  0.3415
 9564TIP3   OH250106   5.325   0.013  14.751 -0.3767 -0.3082 -0.5702
 9564TIP3    H150107   5.305  -0.034  14.832  0.5699  1.9307  1.0668
 9564TIP3    H250108   5.419   0.003  14.740 -0.4757 -0.4666 -1.3328
 9565TIP3   OH250109   6.642   4.134   3.454 -0.2616 -0.1753  0.5324
 9565TIP3    H150110   6.563   4.111   3.405  0.7096 -1.6572 -0.3930
 9565TIP3    H250111   6.660   4.225   3.427 -0.5830 -0.4635 -0.7366
 9566TIP3   OH250112   1.925   4.512   2.124  0.5337  0.1229 -0.4129
 9566TIP3    H150113   1.946   4.549   2.210 -0.8213 -0.7319  0.3098
 9566TIP3    H250114   1.987   4.439   2.114  0.2903 -0.1573  0.1078
 9567TIP3   OH250115   3.671   2.443  11.564  0.6062 -0.5237 -0.1449
 9567TIP3    H150116   3.710   2.471  11.647 -0.2202 -0.3405  0.1932
 9567TIP3    H250117   3.644   2.524  11.522  0.4246 -0.6558 -0.2845
 9568TIP3   OH250118   3.052   2.409  16.435  0.3443 -0.3941  0.3643
 9568TIP3    H150119   2.995   2.476  16.472  0.8980 -0.4741  1.3904
 9568TIP3    H250120   3.071   2.350  16.507  1.4014 -0.5911 -0.0453
 9569TIP3   OH250121   4.315   1.472   5.497  0.0487 -0.4980  0.1380
 9569TIP3    H150122   4.235   1.489   5.447 -0.1465 -3.0152 -0.5300
 9569TIP3    H250123   4.386   1.492   5.436 -0.0434  0.8770  0.4407
 9570TIP3   OH250124   5.523   6.590   2.442 -0.0914 -0.0886  0.0362
 9570TIP3    H150125   5.464   6.639   2.500  0.1350  1.0805 -0.6988
 9570TIP3    H250126   5.505   6.623   2.354  0.3811 -1.0233 -0.4375
 9571TIP3   OH250127   5.456   6.429  12.746  0.0239 -0.7696 -0.2523
 9571TIP3    H150128   5.457   6.339  12.778  1.0502 -0.9000 -0.6223
 9571TIP3    H250129   5.542   6.464  12.769 -0.1363 -0.0759 -0.6633
 9572TIP3   OH250130   6.054   3.904  12.231 -0.2486  0.2673 -1.0296
 9572TIP3    H150131   6.136   3.867  12.265  0.0278  0.2841 -1.6650
 9572TIP3    H250132   6.015   3.949  12.307  0.3588  0.3136 -0.7356
 9573TIP3   OH250133   1.648   1.804  11.456  0.0100 -0.2059  0.1886
 9573TIP3    H150134   1.634   1.898  11.464  0.0068 -0.1997  0.1112
 9573TIP3    H250135   1.564   1.770  11.425  0.3262 -0.0973 -0.7994
 9574TIP3   OH250136   1.339   0.138   6.690  0.3860  0.0458  0.1900
 9574TIP3    H150137   1.379   0.222   6.712 -0.2245  0.4642 -0.2637
 9574TIP3    H250138   1.278   0.158   6.619  0.3400 -0.8070 -0.0254
 9575TIP3   OH250139   3.919   2.962  13.300 -0.2677 -0.3680  0.3545
 9575TIP3    H150140   3.866   2.908  13.241 -0.7527 -0.7973  1.1626
 9575TIP3    H250141   3.995   2.986  13.248  0.4302 -2.6002  0.2292
 9576TIP3   OH250142   4.097   3.574   0.341  0.6546  0.6583 -0.4481
 9576TIP3    H150143   4.172   3.558   0.399  0.0531  0.0983  0.2086
 9576TIP3    H250144   4.021   3.567   0.399  0.0076 -0.2349 -1.3650
 9577TIP3   OH250145   5.219   3.492  13.042  0.3591  0.3457 -0.6321
 9577TIP3    H150146   5.222   3.535  13.127 -0.6482 -2.1327  0.7570
 9577TIP3    H250147   5.310   3.472  13.021  0.4917 -1.0489  1.0337
 9578TIP3   OH250148   4.135   0.246   0.348 -0.1459 -0.0273  0.3691
 9578TIP3    H150149   4.073   0.316   0.370  0.4559  0.6835 -0.1171
 9578TIP3    H250150   4.120   0.178   0.414 -0.9316  0.4476  0.6903
 9579TIP3   OH250151   1.674   2.636  13.875  0.2720 -0.2497  0.0259
 9579TIP3    H150152   1.657   2.721  13.833  1.2350 -0.3634 -0.6157
 9579TIP3    H250153   1.590   2.590  13.870 -0.1183  0.4574 -0.0977
 9580TIP3   OH250154   0.305   5.366   4.689  0.0731  0.0603 -0.7449
 9580TIP3    H150155   0.216   5.338   4.667  0.5673 -2.0746 -0.2666
 9580TIP3    H250156   0.298   5.399   4.778 -0.1387 -0.5776 -0.5260
 9581TIP3   OH250157   0.426   1.114  14.692 -0.2251  0.0891  0.0426
 9581TIP3    H150158   0.382   1.150  14.615  1.2417  0.0635 -0.8460
 9581TIP3    H250159   0.381   1.031  14.708  0.1642 -0.4540 -1.4903
 9582TIP3   OH250160   0.888   5.260  10.926  0.5196  0.5998  0.2071
 9582TIP3    H150161   0.823   5.276  10.995 -0.2785  0.0027 -0.3849
 9582TIP3    H250162   0.966   5.231  10.973  0.6054  1.9964  0.9801
 9583TIP3   OH250163   2.940   5.053  13.934 -0.2215  0.0440  0.1059
 9583TIP3    H150164   2.952   5.074  14.027  0.5141 -1.0618  0.2742
 9583TIP3    H250165   2.983   5.125  13.888 -0.7651  0.7030  0.6053
 9584TIP3   OH250166   5.549   0.556  17.141  0.0428 -0.5000 -0.3394
 9584TIP3    H150167   5.565   0.509  17.223 -0.6916 -0.9141 -0.4334
 9584TIP3    H250168   5.455   0.547  17.125  0.2626 -0.9292 -1.5349
 9585TIP3   OH250169   2.881   0.502   5.312  1.0390 -0.3780  0.2852
 9585TIP3    H150170   2.896   0.411   5.285 -0.6584 -0.6109  0.0107
 9585TIP3    H250171   2.804   0.529   5.262  2.4294  1.7805 -0.8731
 9586TIP3   OH250172   5.938   1.396  13.646  0.0090  0.2269 -0.6030
 9586TIP3    H150173   5.914   1.305  13.665 -0.1545  0.5840  1.0632
 9586TIP3    H250174   5.984   1.426  13.725 -0.3868  1.7424 -0.9123
 9587TIP3   OH250175   5.022   6.712  14.773 -0.9365  0.0082  0.1384
 9587TIP3    H150176   4.994   6.657  14.700 -0.3916 -0.1225  0.0166
 9587TIP3    H250177   5.073   6.782  14.732  1.1846 -1.2287  0.5138
 9588TIP3   OH250178   4.362   2.697  16.134  0.4199  0.3903 -0.4041
 9588TIP3    H150179   4.270   2.669  16.137  0.5669 -0.2834 -1.6355
 9588TIP3    H250180   4.386   2.691  16.042  1.9255 -0.1648 -0.0097
 9589TIP3   OH250181   3.074   5.500   2.955  0.1492  0.4181  0.0742
 9589TIP3    H150182   3.024   5.570   2.996  0.2358  0.9653 -0.7191
 9589TIP3    H250183   3.142   5.545   2.905  0.5797 -0.2552  0.0357
 9590TIP3   OH250184   4.340   6.565  11.123  0.6475 -0.9956  0.3981
 9590TIP3    H150185   4.312   6.474  11.131 -1.0750 -0.4161  1.2906
 9590TIP3    H250186   4.396   6.565  11.045 -1.0909 -2.4176 -0.9450
 9591TIP3   OH250187   3.565   2.586   5.971  0.0678  0.2155 -0.2480
 9591TIP3    H150188   3.484   2.536   5.963  0.5111 -0.4911 -0.4378
 9591TIP3    H250189   3.631   2.530   5.932  0.7170  0.6190  0.2498
 9592TIP3   OH250190   2.614   2.589   0.119  0.4349  0.4098  0.0807
 9592TIP3    H150191   2.547   2.522   0.107  0.4993  0.2371  0.6620
 9592TIP3    H250192   2.624   2.629   0.032 -0.0118  0.0558 -0.1366
 9593TIP3   OH250193   4.505   2.274  13.145 -0.0187  0.6406  0.4729
 9593TIP3    H150194   4.475   2.254  13.234 -0.2265  0.3118  0.3333
 9593TIP3    H250195   4.600   2.259  13.148 -0.1317 -0.1183  0.4456
 9594TIP3   OH250196   5.342   1.895   5.269  0.2614  0.9807 -0.1242
 9594TIP3    H150197   5.306   1.836   5.334  0.0802  2.5687  1.3000
 9594TIP3    H250198   5.295   1.978   5.283  1.9499  2.0771 -0.5932
 9595TIP3   OH250199   0.785   0.988   4.316 -0.7369 -0.5487  0.0566
 9595TIP3    H150200   0.702   0.969   4.273 -0.8239  0.7915 -0.4281
 9595TIP3    H250201   0.842   1.020   4.245 -0.5721  0.7677  0.7573
 9596TIP3   OH250202   5.094   2.810  13.357  0.7360  0.5249 -0.3062
 9596TIP3    H150203   5.008   2.835  13.392  0.4531 -0.2962 -0.3752
 9596TIP3    H250204   5.098   2.852  13.271  1.0252  1.7534  0.2938
 9597TIP3   OH250205   1.024   5.639  15.058  0.4576  0.3047 -0.4980
 9597TIP3    H150206   0.930   5.648  15.042  0.1504  2.0167  1.8079
 9597TIP3    H250207   1.034   5.550  15.091 -0.9051  0.9797  2.0184
 9598TIP3   OH250208   5.865   1.073  14.864  0.0922  0.2561  0.5662
 9598TIP3    H150209   5.882   1.050  14.773  1.4148 -2.8174  1.4585
 9598TIP3    H250210   5.769   1.075  14.870 -0.2665 -4.3274 -0.0296
 9599TIP3   OH250211   3.818   4.655  13.525  0.4677  0.7409  0.0702
 9599TIP3    H150212   3.898   4.705  13.545  1.3334 -0.9776  1.1753
 9599TIP3    H250213   3.850   4.567  13.503 -1.0541  0.4096 -0.9833
 9600TIP3   OH250214   0.430   5.263  15.523  0.1597  0.2609 -0.1563
 9600TIP3    H150215   0.493   5.251  15.451 -0.2044 -0.7170 -0.3323
 9600TIP3    H250216   0.347   5.231  15.486  0.5369 -3.3184  1.6318
 9601TIP3   OH250217   6.753   1.278   5.113 -0.0597 -0.0870  0.4938
 9601TIP3    H150218   6.741   1.305   5.021 -0.1324  1.7391  0.9883
 9601TIP3    H250219   6.796   1.193   5.108 -0.3636 -0.1759 -1.2366
 9602TIP3   OH250220   0.655   0.349  15.863 -0.1893  0.2447 -0.2842
 9602TIP3    H150221   0.645   0.384  15.775 -1.1396  1.7419  0.3757
 9602TIP3    H250222   0.657   0.426  15.920  0.8423 -0.6605  0.9824
 9603TIP3   OH250223   6.158   6.480  15.799  0.6462  0.1128 -0.3918
 9603TIP3    H150224   6.087   6.543  15.810  2.1494  1.7153  0.6888
 9603TIP3    H250225   6.122   6.397  15.830 -1.2191  0.5028 -1.3718
 9604TIP3   OH250226   0.296   1.247   2.573 -0.1353  0.2087  0.3430
 9604TIP3    H150227   0.204   1.242   2.549 -0.6774 -0.2729  2.2917
 9604TIP3    H250228   0.319   1.339   2.562 -1.6922  0.9406  2.4377
 9605TIP3   OH250229   6.144   3.378  13.121  0.2572  0.1681 -0.1705
 9605TIP3    H150230   6.235   3.383  13.092 -0.0711  2.2290 -0.9936
 9605TIP3    H250231   6.148   3.386  13.216  0.8886  1.4862 -0.2935
 9606TIP3   OH250232   2.256   3.363   1.637  0.5562 -0.4153  0.2777
 9606TIP3    H150233   2.206   3.418   1.697 -0.7620 -1.0180 -0.2427
 9606TIP3    H250234   2.347   3.391   1.651  0.4529 -1.1743  3.2377
 9607TIP3   OH250235   0.171   5.829  13.325 -0.3198  0.1072  0.5428
 9607TIP3    H150236   0.148   5.815  13.233  2.3682  2.9532 -0.7458
 9607TIP3    H250237   0.219   5.750  13.350 -0.1390 -0.2730 -0.8929
 9608TIP3   OH250238   2.111   5.310  11.762 -0.4517  0.1576  0.2837
 9608TIP3    H150239   2.147   5.379  11.707 -0.2633  0.5508  0.8935
 9608TIP3    H250240   2.144   5.229  11.723 -2.0541  0.2656 -1.4784
 9609TIP3   OH250241   5.203   3.382  15.781 -0.2410  0.7156  0.3416
 9609TIP3    H150242   5.145   3.334  15.840  0.4232  1.3450  1.5502
 9609TIP3    H250243   5.270   3.318  15.757 -0.0187  0.6841  1.0077
 9610TIP3   OH250244   0.257   4.163   1.589  0.3766 -0.2145  0.8621
 9610TIP3    H150245   0.182   4.114   1.555 -0.0633 -0.4795  2.1570
 9610TIP3    H250246   0.218   4.229   1.646  1.1329 -0.5310  1.7692
 9611TIP3   OH250247   1.951   4.642   6.804  0.3289  0.1999 -0.0274
 9611TIP3    H150248   1.885   4.706   6.777 -0.2614  0.0693  1.0764
 9611TIP3    H250249   1.932   4.564   6.751  1.2972  1.0178 -1.6718
 9612TIP3   OH250250   0.715   1.197  13.626  0.1777  0.3365  0.0665
 9612TIP3    H150251   0.807   1.213  13.606 -0.1395 -0.2388 -2.1686
 9612TIP3    H250252   0.691   1.123  13.571 -1.7178  0.6970  0.3264
 9613TIP3   OH250253   0.328   2.907  16.147 -0.3545 -0.1242  0.3469
 9613TIP3    H150254   0.350   2.875  16.060 -0.5097  0.7309 -0.0195
 9613TIP3    H250255   0.408   2.951  16.177 -0.5002  0.1268  0.3733
 9614TIP3   OH250256   6.532   4.345   2.440  0.8749 -0.4997 -0.0361
 9614TIP3    H150257   6.502   4.254   2.433 -2.7350  0.5586 -0.2815
 9614TIP3    H250258   6.624   4.338   2.462  0.5010 -4.2386  1.0346
 9615TIP3   OH250259   2.681   6.246  16.947  0.7846  0.4179 -0.2601
 9615TIP3    H150260   2.665   6.306  17.019  0.6465  0.2803 -0.1757
 9615TIP3    H250261   2.595   6.209  16.926  0.9308 -0.0632 -0.0330
 9616TIP3   OH250262   3.801   1.226  13.649  0.3807 -0.1505 -0.3953
 9616TIP3    H150263   3.887   1.201  13.683  0.2380  1.5901  1.4484
 9616TIP3    H250264   3.739   1.180  13.706  0.1326  0.8238  0.1514
 9617TIP3   OH250265   1.515   6.487   3.038  0.2955 -0.3020 -0.5240
 9617TIP3    H150266   1.420   6.489   3.049  0.1860  0.0426 -1.4664
 9617TIP3    H250267   1.548   6.551   3.101 -0.3513  1.9410 -2.3108
 9618TIP3   OH250268   5.558   5.485  11.678  0.0985 -0.2193 -0.2668
 9618TIP3    H150269   5.606   5.558  11.717  2.7788 -1.4270 -1.0934
 9618TIP3    H250270   5.554   5.419  11.748 -2.0372  0.5027  0.3760
 9619TIP3   OH250271   1.801   2.649  14.124 -0.4509  0.3820 -0.0946
 9619TIP3    H150272   1.753   2.623  14.045 -0.1425 -1.4549  0.2675
 9619TIP3    H250273   1.883   2.600  14.119 -0.0222  0.9719  0.9039
 9620TIP3   OH250274   3.114   6.310   1.941 -0.5474  0.1040  0.0713
 9620TIP3    H150275   3.186   6.312   2.005 -0.2266  0.9469 -0.3046
 9620TIP3    H250276   3.036   6.330   1.992 -0.4708 -0.4081  0.4069
 9621TIP3   OH250277   3.745   4.203   2.576 -0.1322  0.1823  0.3626
 9621TIP3    H150278   3.814   4.264   2.604 -1.1446  1.0449  1.0632
 9621TIP3    H250279   3.768   4.182   2.485  0.4668  1.3035  0.2286
 9622TIP3   OH250280   5.407   0.256   1.664  0.1231  0.0015 -0.9350
 9622TIP3    H150281   5.440   0.294   1.745  0.9307  0.9666 -1.6922
 9622TIP3    H250282   5.485   0.242   1.610 -0.2637 -1.7252 -1.1334
 9623TIP3   OH250283   5.426   0.018   5.898  0.2033 -0.3058  0.3123
 9623TIP3    H150284   5.444  -0.072   5.869 -0.7022 -0.2349 -0.5301
 9623TIP3    H250285   5.452   0.020   5.990  0.6788 -1.2978  0.2081
 9624TIP3   OH250286   2.846   1.942   2.004  0.5997 -0.3124  0.2479
 9624TIP3    H150287   2.880   1.932   1.915 -0.2104  0.5326 -0.1721
 9624TIP3    H250288   2.770   1.999   1.994  2.6486  3.0136  1.9226
 9625TIP3   OH250289   0.836   2.855  15.357 -0.5018 -0.3938 -1.0803
 9625TIP3    H150290   0.848   2.842  15.451 -0.0879  1.8022 -0.7543
 9625TIP3    H250291   0.794   2.775  15.326  0.7413 -1.8063  0.6799
 9626TIP3   OH250292   4.165   6.670   2.173 -0.1110 -0.3098 -0.4628
 9626TIP3    H150293   4.217   6.718   2.239 -2.8573  0.2785  1.4607
 9626TIP3    H250294   4.148   6.585   2.213 -0.8417 -0.3904 -0.9296
 9627TIP3   OH250295   1.868   5.268   2.568  0.4645  0.6720  0.8041
 9627TIP3    H150296   1.944   5.236   2.519  0.1821  0.2638  0.6269
 9627TIP3    H250297   1.793   5.223   2.529  0.3482 -0.5906  2.3814
 9628TIP3   OH250298   3.602   5.905   2.826 -0.4642 -0.0189 -0.3663
 9628TIP3    H150299   3.638   5.837   2.769  0.2658 -0.2623  0.3697
 9628TIP3    H250300   3.647   5.893   2.910 -0.6349  1.0997 -0.0957
 9629TIP3   OH250301   4.259   6.628  14.037  0.3160  0.5544 -0.2063
 9629TIP3    H150302   4.315   6.641  14.114 -1.3855  1.0771  0.9836
 9629TIP3    H250303   4.246   6.716  14.002 -0.3391  0.5166 -0.0572
 9630TIP3   OH250304   5.837   6.541  11.376  0.3643 -0.4373  0.0190
 9630TIP3    H150305   5.896   6.506  11.442  2.1536  0.1564 -1.1794
 9630TIP3    H250306   5.823   6.469  11.315 -0.4408 -0.6717  0.4646
 9631TIP3   OH250307   2.641   5.560  11.725  0.3924 -0.0545 -0.0793
 9631TIP3    H150308   2.632   5.548  11.820 -1.2442 -0.3690 -0.2326
 9631TIP3    H250309   2.629   5.654  11.712 -1.6169 -0.2646 -0.1209
 9632TIP3   OH250310   2.051   0.802   0.695  0.8385 -0.3482  0.7589
 9632TIP3    H150311   2.068   0.720   0.648 -1.3885 -0.1946 -0.4828
 9632TIP3    H250312   1.998   0.776   0.771  0.0197 -0.0716  0.2945
 9633TIP3   OH250313   6.371   0.660  16.864 -0.1051  0.5457  0.0770
 9633TIP3    H150314   6.427   0.692  16.934  1.4795 -1.0838 -0.3836
 9633TIP3    H250315   6.390   0.717  16.789  0.9314  0.0506 -0.0547
 9634TIP3   OH250316   4.157   2.141  13.852  0.2182  0.2325 -0.3991
 9634TIP3    H150317   4.215   2.191  13.794 -0.0622  1.0971  0.0441
 9634TIP3    H250318   4.069   2.175  13.833  0.2031  1.1184  1.0795
 9635TIP3   OH250319   6.344   3.615  13.218 -0.5762  0.0479  0.0905
 9635TIP3    H150320   6.399   3.543  13.249  0.9900  1.5805  1.1160
 9635TIP3    H250321   6.369   3.626  13.126 -1.2787 -1.0791 -0.2537
 9636TIP3   OH250322   2.957   5.728  13.822  0.5316 -0.5220 -0.5995
 9636TIP3    H150323   2.962   5.632  13.830  0.9403 -0.4444  0.2043
 9636TIP3    H250324   2.866   5.746  13.801  0.6995 -1.1623 -2.0074
 9637TIP3   OH250325   3.711   0.304  12.138 -0.0613 -0.2445  0.1092
 9637TIP3    H150326   3.677   0.265  12.219  1.1904 -0.2553  0.6528
 9637TIP3    H250327   3.796   0.341  12.163  0.1587  0.1139 -1.1113
 9638TIP3   OH250328   4.005   4.268  15.534 -0.1766  0.4897 -0.3516
 9638TIP3    H150329   3.915   4.279  15.566  0.1034  0.2520  0.5619
 9638TIP3    H250330   4.006   4.312  15.449 -1.1499  0.5189 -0.3571
 9639TIP3   OH250331   1.223   0.865  14.944 -0.1563  0.6500  0.4769
 9639TIP3    H150332   1.153   0.930  14.933 -0.5122  0.1491 -0.3364
 9639TIP3    H250333   1.190   0.788  14.898  0.5291  0.0962  0.9099
 9640TIP3   OH250334   1.706   4.201  14.697  0.2194 -0.2350 -0.4037
 9640TIP3    H150335   1.701   4.238  14.609  0.5822  0.9726  0.0625
 9640TIP3    H250336   1.706   4.277  14.755 -1.6941 -1.0512  0.7381
 9641TIP3   OH250337   6.041   2.309   4.232 -0.4630 -0.1663  0.0599
 9641TIP3    H150338   5.973   2.339   4.292  0.9098  0.3336  1.4041
 9641TIP3    H250339   6.096   2.385   4.218 -0.2174 -0.5413 -1.1046
 9642TIP3   OH250340   4.248   3.633   3.055  0.5155  0.0739  0.1508
 9642TIP3    H150341   4.202   3.715   3.073  1.2858 -0.0538  3.2928
 9642TIP3    H250342   4.326   3.659   3.005 -1.2254  0.6483 -2.4779
 9643TIP3   OH250343   1.482   4.857   1.908  0.3187  1.3197 -0.3512
 9643TIP3    H150344   1.568   4.876   1.870  0.1711 -0.6099 -1.8027
 9643TIP3    H250345   1.500   4.794   1.978  0.2249  2.2654  0.5592
 9644TIP3   OH250346   5.360   1.947  12.092  0.3393 -0.6598 -0.2070
 9644TIP3    H150347   5.346   1.948  11.998  1.2553 -0.9968 -0.3646
 9644TIP3    H250348   5.451   1.977  12.103  0.1509 -0.3303  0.5906
 9645TIP3   OH250349   5.143   3.560  14.259  0.1329  0.6184  0.1718
 9645TIP3    H150350   5.237   3.549  14.254 -0.0646 -0.3712 -2.0812
 9645TIP3    H250351   5.122   3.625  14.192 -0.9500 -0.3488 -0.4579
 9646TIP3   OH250352   6.332   5.475  12.872 -0.2425 -0.7210 -0.5396
 9646TIP3    H150353   6.422   5.483  12.903  0.5621 -2.6619 -2.1593
 9646TIP3    H250354   6.334   5.510  12.783 -0.9680 -1.3006 -0.7898
 9647TIP3   OH250355   2.556   1.652  15.962 -0.6442 -0.0732  0.1921
 9647TIP3    H150356   2.499   1.657  15.885 -0.1062 -2.0191 -0.3770
 9647TIP3    H250357   2.583   1.561  15.966  3.1383  0.8849 -0.0540
 9648TIP3   OH250358   5.625   4.826   1.983  0.0635  0.0647  0.3041
 9648TIP3    H150359   5.535   4.835   2.014 -0.1266 -0.9569  0.0663
 9648TIP3    H250360   5.650   4.737   2.007  0.8112  0.1440 -0.1609
 9649TIP3   OH250361   5.365   3.098   1.540  0.7174 -0.1884 -0.8592
 9649TIP3    H150362   5.364   3.012   1.582 -1.1525  0.7177  1.1471
 9649TIP3    H250363   5.293   3.095   1.478  1.1339 -0.3077 -1.3403
 9650TIP3   OH250364   1.577   5.008  11.767  0.2363 -0.6453 -0.3838
 9650TIP3    H150365   1.657   4.980  11.811  0.9715  0.0448 -1.2275
 9650TIP3    H250366   1.555   5.092  11.808 -0.4025 -1.1177  0.2561
 9651TIP3   OH250367   3.751   4.240   2.974  0.4415 -0.1190  0.2898
 9651TIP3    H150368   3.778   4.225   2.883  3.0369  0.2756  0.9115
 9651TIP3    H250369   3.713   4.328   2.973  1.3241  0.2719 -0.2703
 9652TIP3   OH250370   2.360   3.131   6.176 -0.1956  0.6522  0.2669
 9652TIP3    H150371   2.400   3.144   6.262 -0.0861 -1.2358  0.5556
 9652TIP3    H250372   2.424   3.166   6.114 -0.6504  2.8172  0.9391
 9653TIP3   OH250373   1.834   2.956  16.259  0.0401 -0.4017 -0.7296
 9653TIP3    H150374   1.860   2.878  16.308 -1.2449  1.3602  3.1786
 9653TIP3    H250375   1.910   2.976  16.205  1.6517 -2.5685  0.5302
 9654TIP3   OH250376   6.512   0.740   3.345  0.5273 -0.4969 -0.2148
 9654TIP3    H150377   6.574   0.708   3.410  0.1856  0.0944  0.4191
 9654TIP3    H250378   6.427   0.731   3.387  0.5079  2.9410  0.8056
 9655TIP3   OH250379   6.760   1.462  16.164  0.2727 -0.2528 -0.2977
 9655TIP3    H150380   6.854   1.450  16.177  0.5823  0.1541 -1.9413
 9655TIP3    H250381   6.728   1.376  16.136  0.2505 -0.2555 -0.2656
 9656TIP3   OH250382   6.228   5.070  15.333  0.0530  0.4137  0.3843
 9656TIP3    H150383   6.152   5.121  15.359 -1.5013 -1.5662 -0.0280
 9656TIP3    H250384   6.262   5.034  15.414  0.3697  1.0081  0.5263
 9657TIP3   OH250385   5.030   6.602  15.964 -0.0646  0.0546 -0.0308
 9657TIP3    H150386   4.980   6.601  15.882 -0.9047 -0.6373  0.4814
 9657TIP3    H250387   4.966   6.627  16.031  0.6410  0.7108  0.4181
 9658TIP3   OH250388   2.561   3.762  16.889 -0.2099 -0.2320 -0.1534
 9658TIP3    H150389   2.580   3.695  16.955 -1.0125 -0.6464 -0.3235
 9658TIP3    H250390   2.502   3.718  16.827 -0.5886  0.5755 -0.3772
 9659TIP3   OH250391   6.290   1.114   1.762  0.4234 -0.2980 -0.1571
 9659TIP3    H150392   6.376   1.105   1.721  0.0799 -2.3461 -0.5254
 9659TIP3    H250393   6.309   1.144   1.851  1.6398 -2.0262  0.2176
 9660TIP3   OH250394   0.098   2.744   6.257 -0.5201  0.1409  0.1388
 9660TIP3    H150395   0.020   2.795   6.280 -1.1033 -1.0404  0.9324
 9660TIP3    H250396   0.121   2.773   6.169 -0.7619  1.8119  0.6082
 9661TIP3   OH250397   2.162   5.234  12.032 -0.4775 -0.0297  0.5988
 9661TIP3    H150398   2.161   5.274  11.945  2.2161 -0.3207  0.3411
 9661TIP3    H250399   2.070   5.231  12.059 -1.2544  1.2137 -1.6934
 9662TIP3   OH250400   2.710   2.060   4.868 -0.4106  0.2199  0.0686
 9662TIP3    H150401   2.627   2.014   4.881 -0.1616 -0.6790 -1.2890
 9662TIP3    H250402   2.763   2.037   4.944 -0.7909 -0.6301  0.0801
 9663TIP3   OH250403   1.982   3.575   5.411 -1.0995 -0.3080  0.2837
 9663TIP3    H150404   1.981   3.593   5.317  0.4581  0.8888  0.4621
 9663TIP3    H250405   2.031   3.648   5.450  0.8478 -2.2169  1.6938
 9664TIP3   OH250406   1.690   2.870  12.485 -0.1831 -0.4978 -0.9072
 9664TIP3    H150407   1.739   2.875  12.403 -0.8956  0.4418 -1.2972
 9664TIP3    H250408   1.606   2.832  12.459  0.0486 -1.3844 -0.3830
 9665TIP3   OH250409   6.414   6.689  16.083  0.5354 -0.0469 -0.4215
 9665TIP3    H150410   6.484   6.754  16.075  0.4623  0.0044 -0.6257
 9665TIP3    H250411   6.459   6.605  16.074  0.8296 -0.0805  1.0689
 9666TIP3   OH250412   5.685   2.737  11.623  0.5170  0.2007  0.3189
 9666TIP3    H150413   5.658   2.779  11.705 -3.0312 -0.7967 -0.1750
 9666TIP3    H250414   5.630   2.777  11.556  0.0334 -2.1616 -0.8073
 9667TIP3   OH250415   6.116   6.152  12.035 -0.7157  0.2989  0.1148
 9667TIP3    H150416   6.070   6.145  12.119  1.0707  0.1218  1.1234
 9667TIP3    H250417   6.138   6.062  12.013 -0.3034  0.4342 -0.0296
 9668TIP3   OH250418   1.690   5.526  11.943  0.3422  0.0083  0.1456
 9668TIP3    H150419   1.760   5.583  11.912  2.3944 -2.6002 -0.3187
 9668TIP3    H250420   1.629   5.520  11.868  2.2246 -1.5574 -1.3690
 9669TIP3   OH250421   6.460   6.412  15.971 -0.5748 -0.4876  0.3840
 9669TIP3    H150422   6.365   6.402  15.962 -0.4747 -0.4922 -0.8464
 9669TIP3    H250423   6.496   6.352  15.906  0.2138  1.4655 -1.0438
 9670TIP3   OH250424   1.608   5.889   2.071  0.1080 -0.2785 -0.4464
 9670TIP3    H150425   1.633   5.975   2.105 -2.0483  0.6076 -0.9658
 9670TIP3    H250426   1.676   5.830   2.105  1.0384  1.4243  0.8350
 9671TIP3   OH250427   5.469   4.263   1.578  0.2679 -0.1981  0.2902
 9671TIP3    H150428   5.378   4.282   1.556 -0.1651 -1.3348  1.0346
 9671TIP3    H250429   5.467   4.234   1.669  1.2081 -1.4303 -0.0563
 9672TIP3   OH250430   5.004   2.596  15.961  0.0529 -0.8005  0.0237
 9672TIP3    H150431   4.989   2.531  16.030  0.4327 -1.4993 -0.5350
 9672TIP3    H250432   5.029   2.675  16.008 -0.4395 -1.0472  0.7201
 9673TIP3   OH250433   3.532   0.141  11.575  0.0578  0.2589 -0.0982
 9673TIP3    H150434   3.564   0.126  11.486 -0.5720 -1.1898 -0.0999
 9673TIP3    H250435   3.596   0.200  11.613  1.6575 -0.9941 -0.7423
 9674TIP3   OH250436   0.794   6.316  17.027  0.5481  0.1713  0.1548
 9674TIP3    H150437   0.714   6.306  17.078  0.3900 -2.2445 -0.4646
 9674TIP3    H250438   0.857   6.258  17.069  1.1593  0.0428 -0.8961
 9675TIP3   OH250439   4.267   1.534   4.674  0.3265 -0.5591  0.2402
 9675TIP3    H150440   4.185   1.584   4.680 -0.4295 -1.5013 -1.5755
 9675TIP3    H250441   4.329   1.585   4.727 -0.6518  1.8082 -0.7264
 9676TIP3   OH250442   4.738   3.203   0.072  0.0600  0.2206  0.3660
 9676TIP3    H150443   4.648   3.199   0.105 -0.0774  0.3439  0.0062
 9676TIP3    H250444   4.789   3.152   0.136  0.0748  1.8374  1.6965
 9677TIP3   OH250445   3.848   3.385   4.634  0.1628 -0.2088  0.4770
 9677TIP3    H150446   3.780   3.334   4.588 -0.3913  0.9223  0.0042
 9677TIP3    H250447   3.930   3.353   4.597 -0.2199 -0.1767 -0.4315
 9678TIP3   OH250448   3.869   3.123   4.105  0.2393 -0.1367 -0.1288
 9678TIP3    H150449   3.942   3.074   4.142 -1.6225 -2.0032  1.2936
 9678TIP3    H250450   3.802   3.057   4.087 -1.4931  1.5894 -0.3776
 9679TIP3   OH250451   6.154   5.395  17.120  0.4573 -0.2846 -0.0880
 9679TIP3    H150452   6.185   5.372  17.208  1.3793  0.4554 -0.2013
 9679TIP3    H250453   6.077   5.450  17.134 -0.0736 -1.0903  0.2270
 9680TIP3   OH250454   1.971   4.663   6.186  0.5482 -0.5310 -0.7294
 9680TIP3    H150455   1.933   4.697   6.105  0.2605  0.8745 -0.0469
 9680TIP3    H250456   1.947   4.728   6.253 -1.7114 -3.0267  1.1081
 9681TIP3   OH250457   5.992   5.760   2.490  0.3520 -0.0644 -0.1696
 9681TIP3    H150458   5.943   5.754   2.407 -0.8967 -1.2994  0.6073
 9681TIP3    H250459   5.939   5.818   2.545  0.7440  0.0916  0.0441
 9682TIP3   OH250460   0.318   4.295  16.423 -0.4471 -0.0869  0.4772
 9682TIP3    H150461   0.233   4.257  16.399 -1.4642  0.9554  2.1640
 9682TIP3    H250462   0.336   4.358  16.353 -1.1983 -0.1387  0.2187
 9683TIP3   OH250463   1.647   1.547   5.288 -0.7697 -0.5738 -0.1727
 9683TIP3    H150464   1.731   1.574   5.251 -0.5026 -0.8571  0.2138
 9683TIP3    H250465   1.603   1.629   5.309 -1.0194 -0.4050 -1.3070
 9684TIP3   OH250466   4.296   6.288  11.120 -0.5025  0.1453  0.1382
 9684TIP3    H150467   4.260   6.221  11.063  0.0346  0.6175 -0.7763
 9684TIP3    H250468   4.340   6.240  11.190 -2.3913 -0.4502  0.9950
 9685TIP3   OH250469   2.865   3.618  15.828 -0.7652  0.0458 -0.4928
 9685TIP3    H150470   2.880   3.538  15.778 -3.0765 -1.4263  0.9672
 9685TIP3    H250471   2.942   3.626  15.885  0.3249 -0.0921 -1.9015
 9686TIP3   OH250472   3.495   4.401   2.088 -0.0639  0.6576  0.3077
 9686TIP3    H150473   3.570   4.427   2.141 -0.2025  0.2903  0.6886
 9686TIP3    H250474   3.460   4.484   2.054  0.4721  0.8327  0.1808
 9687TIP3   OH250475   5.917   3.001   4.255  0.5514  0.1870 -0.0880
 9687TIP3    H150476   5.992   2.942   4.250 -0.9693 -1.8503  0.0089
 9687TIP3    H250477   5.922   3.038   4.343  1.8692  0.7521 -0.3686
 9688TIP3   OH250478   2.722   5.860   2.183  1.1165  0.1370  0.7388
 9688TIP3    H150479   2.644   5.863   2.239  0.9966  0.2468  0.5635
 9688TIP3    H250480   2.793   5.886   2.242  0.8743  1.0803  0.6364
 9689TIP3   OH250481   0.581   0.555  13.577  0.0801 -0.1927  0.0109
 9689TIP3    H150482   0.665   0.593  13.601 -1.4454  2.2343  2.0659
 9689TIP3    H250483   0.539   0.624  13.524 -0.5985 -1.4140 -1.0968
 9690TIP3   OH250484   5.624   0.659  11.762  0.2601 -0.3971 -0.2362
 9690TIP3    H150485   5.654   0.650  11.672 -2.0769  0.3096 -1.1559
 9690TIP3    H250486   5.645   0.574  11.802  3.2485  0.0002 -0.7530
 9691TIP3   OH250487   0.669   0.614   2.116  0.2285 -1.1573 -0.0535
 9691TIP3    H150488   0.735   0.640   2.051 -0.6161 -1.0583 -0.8885
 9691TIP3    H250489   0.594   0.669   2.097 -0.8085 -2.6494 -0.4119
 9692TIP3   OH250490   2.363   2.610  12.945  0.1729  0.6600  0.1509
 9692TIP3    H150491   2.355   2.647  12.858  0.7146  1.5972  0.4800
 9692TIP3    H250492   2.294   2.544  12.951 -1.0456  1.8630 -0.3372
 9693TIP3   OH250493   0.427   2.580  13.209  0.0541 -0.1682  0.1393
 9693TIP3    H150494   0.357   2.641  13.186 -1.2662 -0.8459  2.1647
 9693TIP3    H250495   0.495   2.635  13.249  0.6474  0.4536 -1.6064
 9694TIP3   OH250496   3.092   2.126  15.762  0.0691 -0.1472 -0.5752
 9694TIP3    H150497   3.071   2.109  15.854 -1.3623 -1.3374 -1.0885
 9694TIP3    H250498   3.059   2.050  15.715  2.5711 -0.5138 -1.8874
 9695TIP3   OH250499   3.710   0.984  11.807  0.2582 -0.0934  0.2928
 9695TIP3    H150500   3.805   0.989  11.811  0.3740 -0.2060 -1.3926
 9695TIP3    H250501   3.686   1.051  11.742 -0.6811 -0.9406 -0.2653
 9696TIP3   OH250502   5.978   1.291  16.897  0.0651  0.2357  0.2540
 9696TIP3    H150503   6.051   1.264  16.953 -1.0758 -1.5698  0.9451
 9696TIP3    H250504   6.020   1.321  16.816  1.5865 -0.2665  0.8266
 9697TIP3   OH250505   5.106   4.947   2.040 -0.1194  0.0062  0.5098
 9697TIP3    H150506   5.138   5.027   2.083  0.6498  0.3955 -0.7612
 9697TIP3    H250507   5.060   4.979   1.963 -0.5467 -0.7509  0.4479
 9698TIP3   OH250508   2.844   1.078  13.049 -0.8176 -0.2806  0.5340
 9698TIP3    H150509   2.842   1.012  12.980  1.1905  0.8726 -0.7437
 9698TIP3    H250510   2.866   1.030  13.129  3.0961 -1.0508 -0.7688
 9699TIP3   OH250511   6.684   4.765  11.086  0.0219 -0.3421  0.0730
 9699TIP3    H150512   6.651   4.682  11.052  1.2659 -0.1650 -1.7074
 9699TIP3    H250513   6.607   4.809  11.122 -1.5834 -0.3562 -3.0058
 9700TIP3   OH250514   0.858   0.144  17.106  0.5046 -0.6759  0.2122
 9700TIP3    H150515   0.806   0.095  17.042 -0.3195 -0.7478  0.9295
 9700TIP3    H250516   0.794   0.180  17.167  1.0247  1.5318 -0.4241
 9701TIP3   OH250517   1.228   4.308  11.925  0.6289  0.1409  0.5414
 9701TIP3    H150518   1.195   4.365  11.855 -1.8041 -0.7548  0.8728
 9701TIP3    H250519   1.316   4.284  11.896  0.3048  1.0700 -1.4171
 9702TIP3   OH250520   1.295   1.156  14.601  0.6244  0.1866  0.2629
 9702TIP3    H150521   1.252   1.103  14.534  3.8914 -1.5165 -0.6872
 9702TIP3    H250522   1.228   1.217  14.630 -1.6284 -0.6011 -2.8348
 9703TIP3   OH250523   4.496   5.164   4.811 -0.2043  0.4466 -0.0235
 9703TIP3    H150524   4.556   5.237   4.825  0.5455  0.7641 -3.8869
 9703TIP3    H250525   4.411   5.205   4.793 -0.7420  0.1344  1.6147
 9704TIP3   OH250526   1.492   5.642   3.995 -0.2077  0.1661  0.6708
 9704TIP3    H150527   1.410   5.678   4.031 -1.3784 -3.3365  1.8603
 9704TIP3    H250528   1.468   5.555   3.963  3.0848 -1.0545  1.1744
 9705TIP3   OH250529   5.421   5.679  12.773  0.7908 -0.3491 -0.2261
 9705TIP3    H150530   5.423   5.724  12.688  0.2526  0.4058  0.1488
 9705TIP3    H250531   5.499   5.623  12.772  1.3558  0.4192 -0.8131
 9706TIP3   OH250532   4.621   2.583   4.236  0.1326 -0.3936 -0.4127
 9706TIP3    H150533   4.655   2.539   4.314  0.1368 -0.8867 -0.6907
 9706TIP3    H250534   4.639   2.676   4.252  2.0844 -0.6718 -0.7822
 9707TIP3   OH250535   3.007   3.529  11.807 -0.6782 -0.4413  0.6601
 9707TIP3    H150536   3.040   3.441  11.823  0.4187  0.0734  1.3491
 9707TIP3    H250537   3.001   3.568  11.895 -1.0574  0.2077  0.3513
 9708TIP3   OH250538   5.080   0.219  14.998  0.6599  0.0439 -0.8523
 9708TIP3    H150539   5.003   0.172  14.968  1.8176 -2.2925 -0.4477
 9708TIP3    H250540   5.089   0.293  14.938 -1.7291  0.2638 -1.0178
 9709TIP3   OH250541   5.513   5.250  14.585 -0.6027  1.0471  0.4184
 9709TIP3    H150542   5.503   5.304  14.663 -1.8786  1.8620 -0.2672
 9709TIP3    H250543   5.423   5.234  14.555 -0.3846 -2.4381  1.1905
 9710TIP3   OH250544   5.472   1.376   3.684  0.4264  0.2646  0.1300
 9710TIP3    H150545   5.462   1.467   3.657 -1.4957 -0.3543 -1.4397
 9710TIP3    H250546   5.557   1.349   3.648 -0.2282  0.6674 -1.8065
 9711TIP3   OH250547   1.446   3.875  15.966 -0.5554  0.0551 -0.2358
 9711TIP3    H150548   1.412   3.840  15.883  1.2566 -0.9410 -0.6218
 9711TIP3    H250549   1.529   3.829  15.979 -1.0789 -0.3023  2.4805
 9712TIP3   OH250550   4.792   2.992  11.854 -0.0081 -0.4586 -0.1620
 9712TIP3    H150551   4.796   2.936  11.931  1.6394 -1.0684 -0.6584
 9712TIP3    H250552   4.824   2.936  11.783  1.1960  0.9390 -0.7606
 9713TIP3   OH250553   4.132   4.995   5.167 -0.2994  0.0723 -0.2015
 9713TIP3    H150554   4.151   5.052   5.092 -0.1723  2.9599  1.8601
 9713TIP3    H250555   4.122   5.055   5.241 -2.7248 -2.4429  1.7063
 9714TIP3   OH250556   1.523   2.843  13.631  0.6876 -0.7609 -1.1187
 9714TIP3    H150557   1.484   2.915  13.680  1.5723  0.2409 -1.8333
 9714TIP3    H250558   1.525   2.875  13.540 -3.1620 -3.4452 -2.4454
 9715TIP3   OH250559   3.518   6.167  14.381  0.2556 -0.5627  0.3297
 9715TIP3    H150560   3.459   6.193  14.311  1.9456 -0.3564 -1.0626
 9715TIP3    H250561   3.603   6.154  14.339  1.0403 -1.7001  2.1170
 9716TIP3   OH250562   1.770   5.455   4.820  0.0039 -0.0989 -0.3492
 9716TIP3    H150563   1.711   5.524   4.849 -0.3558 -0.8259  0.7058
 9716TIP3    H250564   1.761   5.386   4.886  1.9969 -0.2610 -0.1801
 9717TIP3   OH250565   0.977   0.654   3.264  0.3851 -0.3601  0.0911
 9717TIP3    H150566   0.931   0.672   3.346 -0.8004  0.2597 -0.6862
 9717TIP3    H250567   1.056   0.708   3.268  0.6039 -0.7408  1.0493
 9718TIP3   OH250568   2.690   4.367  10.860  0.1335 -0.1775 -0.3178
 9718TIP3    H150569   2.668   4.441  10.916 -1.7994 -0.9941  0.0769
 9718TIP3    H250570   2.688   4.403  10.771 -1.2953  0.1602 -0.1715
 9719TIP3   OH250571   2.592   3.684   6.274 -0.4633  0.3499 -0.1697
 9719TIP3    H150572   2.620   3.693   6.183 -0.2948  0.8579 -0.0675
 9719TIP3    H250573   2.629   3.760   6.319  1.2012 -0.9489  0.7663
 9720TIP3   OH250574   2.950   3.805   4.296  0.0857 -0.2728  0.5546
 9720TIP3    H150575   2.997   3.727   4.269  1.2659  1.3649 -2.7661
 9720TIP3    H250576   2.972   3.817   4.388  2.1348 -2.2855  0.4065
 9721TIP3   OH250577   0.783   3.587   5.154  0.0636  0.2129 -0.7136
 9721TIP3    H150578   0.734   3.657   5.197  1.6423  1.4428 -0.8197
 9721TIP3    H250579   0.842   3.555   5.223  0.0719 -0.3037 -0.9621
 9722TIP3   OH250580   3.810   3.459   0.625  0.4058  0.0797 -0.2058
 9722TIP3    H150581   3.842   3.547   0.605 -1.0714  0.2559 -1.9758
 9722TIP3    H250582   3.890   3.408   0.640  1.3125  1.5235  0.1052
 9723TIP3   OH250583   3.067   5.349   5.513  0.3986  0.4524 -0.0702
 9723TIP3    H150584   3.005   5.382   5.447 -0.6295  1.4952  1.3630
 9723TIP3    H250585   3.151   5.389   5.489  0.0672  0.7252 -0.8151
 9724TIP3   OH250586   0.400   0.192  17.046  0.2350  0.5091 -0.7188
 9724TIP3    H150587   0.457   0.169  17.120 -1.8608 -0.6966  0.6410
 9724TIP3    H250588   0.385   0.286  17.055  0.0576  0.3897  0.3920
 9725TIP3   OH250589   6.241   3.275  15.985  0.3688 -0.2313 -0.1240
 9725TIP3    H150590   6.187   3.256  15.908 -0.4986 -1.1206  0.6797
 9725TIP3    H250591   6.211   3.361  16.015 -0.4377 -0.6045  0.1658
 9726TIP3   OH250592   6.218   4.436   2.791 -0.6951  0.2932  0.0566
 9726TIP3    H150593   6.126   4.427   2.816 -0.7761 -1.6087 -0.7713
 9726TIP3    H250594   6.218   4.428   2.696  0.3862 -0.5885  0.1113
 9727TIP3   OH250595   4.393   6.770  13.571  0.3215  0.3234 -0.3892
 9727TIP3    H150596   4.304   6.741  13.588 -0.0495  0.6805 -1.6635
 9727TIP3    H250597   4.385   6.864  13.553  1.0383  0.4863  0.0963
 9728TIP3   OH250598   4.510   4.063  11.416  0.0538 -0.3320  0.0742
 9728TIP3    H150599   4.565   3.991  11.386  0.0616 -0.4204  0.3051
 9728TIP3    H250600   4.421   4.026  11.416  0.0125 -0.2364 -0.1469
 9729TIP3   OH250601   4.782   3.557  14.495  0.1563 -0.1448  0.2957
 9729TIP3    H150602   4.818   3.582  14.580 -1.1396 -1.3439  1.2577
 9729TIP3    H250603   4.849   3.501  14.455  0.8440  0.5676  0.4384
 9730TIP3   OH250604   3.135   6.502  10.922 -0.1374 -0.0323  0.0571
 9730TIP3    H150605   3.181   6.423  10.952 -0.6901 -0.6387 -0.6589
 9730TIP3    H250606   3.203   6.555  10.881  0.2729 -0.0573  0.7020
 9731TIP3   OH250607   0.735   5.373   4.845 -0.1310 -0.1733 -0.2406
 9731TIP3    H150608   0.820   5.390   4.805  0.1421  1.2698  0.8463
 9731TIP3    H250609   0.673   5.425   4.793  0.2656  1.9440  1.2482
 9732TIP3   OH250610   6.046   5.175  12.269  0.2131  0.0783  0.1866
 9732TIP3    H150611   5.961   5.205  12.237  1.0410 -1.4207 -3.9822
 9732TIP3    H250612   6.087   5.132  12.194  4.7311  0.7329  1.9258
 9733TIP3   OH250613   2.395   4.297  13.850  0.0746 -0.1642 -0.3241
 9733TIP3    H150614   2.351   4.315  13.767  1.4976 -1.3146 -1.3921
 9733TIP3    H250615   2.448   4.219  13.832  0.8473 -0.1089  1.5143
 9734TIP3   OH250616   3.576   1.203   0.651  0.2739 -0.6299  0.0868
 9734TIP3    H150617   3.619   1.288   0.658  1.1289 -1.2035  2.3760
 9734TIP3    H250618   3.492   1.223   0.608  0.4656  1.3515  0.5382
 9735TIP3   OH250619   0.246   6.505  10.844  0.4811 -0.5710  0.0139
 9735TIP3    H150620   0.160   6.504  10.886 -0.6399 -0.9689 -2.1536
 9735TIP3    H250621   0.245   6.430  10.785  2.2375 -0.4388 -0.2419
 9736TIP3   OH250622   6.436   5.494   4.674  0.0893  0.2035  0.2459
 9736TIP3    H150623   6.456   5.442   4.752 -1.1062 -1.4436 -0.4783
 9736TIP3    H250624   6.342   5.486   4.663  0.3009 -0.1328 -1.6871
 9737TIP3   OH250625   0.526   0.569  14.468  0.4712  0.0967 -0.2170
 9737TIP3    H150626   0.583   0.554  14.543  2.1693  0.1932 -1.4377
 9737TIP3    H250627   0.536   0.491  14.414  0.0825  0.4638 -0.8370
 9738TIP3   OH250628   3.804   4.660   1.489  0.4628  0.2456  0.0309
 9738TIP3    H150629   3.743   4.634   1.420 -0.6550  1.9496  0.3104
 9738TIP3    H250630   3.886   4.616   1.468 -1.3249 -3.8078  0.7418
 9739TIP3   OH250631   1.336   4.349   5.078  0.1580  1.0729 -0.2644
 9739TIP3    H150632   1.380   4.290   5.017  0.6641  2.0396 -0.8577
 9739TIP3    H250633   1.245   4.320   5.079  0.8492 -1.3748  1.4594
 9740TIP3   OH250634   2.411   6.156   1.941 -0.0276 -0.1466  0.3421
 9740TIP3    H150635   2.340   6.211   1.909 -1.4899 -1.1436  1.7163
 9740TIP3    H250636   2.481   6.217   1.964 -1.2726  1.0682  1.0399
 9741TIP3   OH250637   1.976   6.766  12.140  0.0766  0.6014  0.4585
 9741TIP3    H150638   2.031   6.843  12.155  1.3439  0.1322 -1.3907
 9741TIP3    H250639   2.020   6.719  12.069 -0.6397 -1.8387  1.5116
 9742TIP3   OH250640   6.143   3.633   4.763 -0.7979 -0.2456 -0.3142
 9742TIP3    H150641   6.221   3.587   4.732 -0.1046  0.6160  0.1139
 9742TIP3    H250642   6.130   3.703   4.700 -1.3378 -0.4858 -0.4771
 9743TIP3   OH250643   5.190   2.071  12.252  0.4790 -0.3161  0.1357
 9743TIP3    H150644   5.242   2.151  12.254  2.4818 -1.5098 -1.0730
 9743TIP3    H250645   5.246   2.007  12.209 -1.5823 -2.0151 -0.1838
 9744TIP3   OH250646   5.903   1.032  14.591  0.6679  0.1515 -0.1322
 9744TIP3    H150647   5.978   1.084  14.564  1.8409 -2.2758 -1.9877
 9744TIP3    H250648   5.839   1.043  14.520  0.9156 -0.8446 -0.5271
 9745TIP3   OH250649   0.129   2.638   0.777  0.6586 -0.1863 -0.0558
 9745TIP3    H150650   0.198   2.696   0.810  0.2752  0.0893  0.2579
 9745TIP3    H250651   0.100   2.588   0.853  0.1582  0.0592 -0.0816
 9746TIP3   OH250652   5.983   6.756  12.897 -0.8156 -0.2960 -0.4500
 9746TIP3    H150653   5.893   6.752  12.928 -0.9279 -1.4629 -0.8664
 9746TIP3    H250654   5.984   6.830  12.836 -0.3959  2.5368  2.7398
 9747TIP3   OH250655   6.530   3.900  12.618  0.1911 -0.9150  0.0649
 9747TIP3    H150656   6.439   3.927  12.605  0.2064  0.2110  1.9465
 9747TIP3    H250657   6.528   3.805  12.610 -0.3511 -0.7327 -4.0814
 9748TIP3   OH250658   5.810   5.178  14.969 -0.2322 -0.2370 -0.2131
 9748TIP3    H150659   5.823   5.262  14.924 -1.1147 -0.4874 -0.9652
 9748TIP3    H250660   5.894   5.133  14.960 -0.4663 -0.3941 -1.8843
 9749TIP3   OH250661   2.243   6.437   4.943 -0.1170 -0.6430 -0.1885
 9749TIP3    H150662   2.203   6.353   4.965  0.2122 -0.4242  1.3621
 9749TIP3    H250663   2.266   6.429   4.850 -0.3805 -2.1316 -0.1555
 9750TIP3   OH250664   0.677   2.665   6.346  0.1619 -0.1038  0.2554
 9750TIP3    H150665   0.709   2.585   6.302  2.1626  0.4823  0.5395
 9750TIP3    H250666   0.756   2.716   6.363 -1.0556  1.9056  0.2122
 9751TIP3   OH250667   1.048   2.535   4.936  0.5402 -0.3667  0.3669
 9751TIP3    H150668   0.976   2.481   4.903  0.3928  0.0398  0.0129
 9751TIP3    H250669   1.127   2.494   4.902  0.4350 -0.4387  0.2091
 9752TIP3   OH250670   0.005   6.216  14.050  0.4210 -0.1379  0.2091
 9752TIP3    H150671   0.097   6.203  14.027  0.3058 -1.2772  0.3131
 9752TIP3    H250672  -0.033   6.128  14.047 -0.9927  0.4628 -1.1968
 9753TIP3   OH250673   2.905   2.028   5.052 -0.2307 -0.1240 -0.1646
 9753TIP3    H150674   2.918   1.967   5.125  1.2530  0.1664 -0.1547
 9753TIP3    H250675   2.884   2.111   5.094  0.7744  0.0793 -0.0512
 9754TIP3   OH250676   1.278   5.868   2.276  0.2564  0.0719  0.3796
 9754TIP3    H150677   1.320   5.813   2.209  0.3910  1.7175 -0.9771
 9754TIP3    H250678   1.318   5.955   2.264  0.1023  0.4862  2.4739
 9755TIP3   OH250679   0.096   4.309   4.806 -0.1713  0.6039 -0.0537
 9755TIP3    H150680   0.146   4.390   4.812 -1.1115  1.5185 -2.7966
 9755TIP3    H250681   0.119   4.273   4.720 -0.8748 -1.2855  0.4964
 9756TIP3   OH250682   5.135   0.345  15.991 -0.0447  0.1157 -0.0953
 9756TIP3    H150683   5.100   0.303  16.069  3.1446  0.2585  1.5586
 9756TIP3    H250684   5.203   0.285  15.960  1.0867  1.6313 -0.6861
 9757TIP3   OH250685   5.115   5.710   5.238 -0.4326 -0.2741 -0.0578
 9757TIP3    H150686   5.181   5.640   5.236 -0.2044 -0.0398 -1.4738
 9757TIP3    H250687   5.143   5.772   5.171 -1.4323  0.4504  0.1704
 9758TIP3   OH250688   3.781   2.804  11.256 -0.2718 -0.5991 -0.3616
 9758TIP3    H150689   3.852   2.782  11.196  0.8554 -1.4858  1.2040
 9758TIP3    H250690   3.721   2.858  11.205  1.8792  0.7731 -1.5775
 9759TIP3   OH250691   4.283   0.248  17.085  0.6842 -0.0259  0.1584
 9759TIP3    H150692   4.280   0.243  16.989 -1.2911  0.8842  0.1195
 9759TIP3    H250693   4.374   0.271  17.105  1.0116  0.2675 -1.5248
 9760TIP3   OH250694   1.478   4.530  14.982 -0.6077 -0.0796 -0.0863
 9760TIP3    H150695   1.541   4.602  14.977 -0.9726  0.1872 -0.9296
 9760TIP3    H250696   1.406   4.565  15.036  0.1259 -0.5280  1.2367
 9761TIP3   OH250697   5.640   0.605   1.337  0.3078 -0.7649 -0.2392
 9761TIP3    H150698   5.604   0.570   1.419 -2.1903 -0.3642 -1.0998
 9761TIP3    H250699   5.615   0.541   1.271  1.3705 -0.5456 -0.8655
 9762TIP3   OH250700   4.003   5.768  12.902 -0.0899  0.7940  0.6694
 9762TIP3    H150701   4.055   5.690  12.882 -2.8131 -0.8509 -0.5712
 9762TIP3    H250702   3.991   5.811  12.817 -0.8245  1.0859  0.9181
 9763TIP3   OH250703   0.258   6.212  16.538  0.2447 -0.0587 -0.5044
 9763TIP3    H150704   0.269   6.130  16.488 -1.9513 -0.8458  0.1878
 9763TIP3    H250705   0.218   6.272  16.475  1.8394  0.5252 -1.0072
 9764TIP3   OH250706   1.348   6.387   3.620  0.3938 -0.1712  0.7570
 9764TIP3    H150707   1.383   6.467   3.582 -1.8126 -0.0653 -1.2967
 9764TIP3    H250708   1.423   6.346   3.663  1.8280  2.4122  0.9175
 9765TIP3   OH250709   5.861   2.612   2.450  0.3076 -0.4131  0.7480
 9765TIP3    H150710   5.950   2.625   2.484  0.2823 -1.0981  1.0828
 9765TIP3    H250711   5.818   2.697   2.464  0.4968 -0.4796  1.8299
 9766TIP3   OH250712   1.729   6.364  16.019 -0.1370  0.0188 -0.1860
 9766TIP3    H150713   1.714   6.275  16.050  0.5882  0.0744  0.3486
 9766TIP3    H250714   1.783   6.405  16.087  1.0527  0.3030 -1.2427
 9767TIP3   OH250715   4.586   2.247  14.472 -0.0670  0.7087 -0.7195
 9767TIP3    H150716   4.610   2.156  14.459 -1.4507  0.3920 -1.2277
 9767TIP3    H250717   4.618   2.268  14.560 -1.0497 -0.7373  0.0123
 9768TIP3   OH250718   5.794   2.489  16.663 -0.2087  0.3648  0.0271
 9768TIP3    H150719   5.820   2.464  16.751 -0.9938  0.3777  0.2683
 9768TIP3    H250720   5.776   2.406  16.619  0.6642  0.3290 -0.2857
 9769TIP3   OH250721   6.213   4.489   0.895 -0.2915 -0.3714 -0.3377
 9769TIP3    H150722   6.128   4.469   0.936 -0.0079  0.3152  0.6178
 9769TIP3    H250723   6.272   4.422   0.928 -0.3153 -0.4874 -0.5257
 9770TIP3   OH250724   0.134   5.930   0.233  0.6322  0.1824 -0.3616
 9770TIP3    H150725   0.113   5.861   0.171  0.4136  1.2399 -1.5155
 9770TIP3    H250726   0.196   5.986   0.186  0.0921  1.2698  0.1857
 9771TIP3   OH250727   3.307   2.945   2.454  0.1031  0.2295  0.2720
 9771TIP3    H150728   3.341   2.942   2.544  0.9331  0.9737 -0.0006
 9771TIP3    H250729   3.372   2.996   2.406 -0.7287  0.5130 -0.5807
 9772TIP3   OH250730   4.680   3.574   0.788  0.0434 -0.1627  0.1562
 9772TIP3    H150731   4.694   3.648   0.729 -0.6628  0.8037  1.1603
 9772TIP3    H250732   4.749   3.581   0.854 -0.6036  0.2147  0.8209
 9773TIP3   OH250733   4.219   2.914  16.543  0.0232 -0.2126 -0.5608
 9773TIP3    H150734   4.178   2.835  16.578  0.4600  0.3803  1.3931
 9773TIP3    H250735   4.150   2.981  16.548  0.8389  0.5350  1.7847
 9774TIP3   OH250736   4.807   6.520  11.750  0.3603 -0.0951  0.3829
 9774TIP3    H150737   4.824   6.427  11.734 -0.0960 -0.5657  2.3792
 9774TIP3    H250738   4.892   6.563  11.737  0.3795 -0.5992 -1.4881
 9775TIP3   OH250739   3.663   6.760  16.630 -0.4074  0.7298 -0.1005
 9775TIP3    H150740   3.705   6.705  16.696 -0.7832 -0.9575 -1.2287
 9775TIP3    H250741   3.582   6.790  16.671 -0.0735  0.6796  0.6121
 9776TIP3   OH250742   4.310   0.853  14.701 -0.7869 -0.4489 -0.6401
 9776TIP3    H150743   4.250   0.898  14.760 -1.1127  0.7483 -1.8359
 9776TIP3    H250744   4.396   0.889  14.723 -0.9521  0.2467 -1.1051
 9777TIP3   OH250745   5.982   0.099  15.423  0.1127  0.7582 -0.4990
 9777TIP3    H150746   6.068   0.110  15.464 -0.7241  0.6025  1.4045
 9777TIP3    H250747   5.958   0.186  15.394  0.6459  0.9127 -0.4919
 9778TIP3   OH250748   3.344   1.987   3.056  0.4537 -0.0944  0.1508
 9778TIP3    H150749   3.382   2.072   3.079 -1.2140  0.5769  0.5962
 9778TIP3    H250750   3.389   1.924   3.114  0.3035  0.7736  1.2516
 9779TIP3   OH250751   5.313   3.077   5.104 -1.0225  0.2883  0.1035
 9779TIP3    H150752   5.359   3.161   5.097  0.4630 -0.5280 -0.4573
 9779TIP3    H250753   5.241   3.094   5.165  0.4810  1.4617  1.6530
 9780TIP3   OH250754   0.952   0.950   0.878 -0.2723  0.3712 -0.0183
 9780TIP3    H150755   1.030   0.997   0.847 -0.0291  1.4584  2.0357
 9780TIP3    H250756   0.986   0.864   0.904 -0.0391  0.3330 -0.4257
 9781TIP3   OH250757   5.198   6.703  12.323  0.5169  0.3906 -0.4297
 9781TIP3    H150758   5.203   6.792  12.358  2.1676  0.6954 -1.3036
 9781TIP3    H250759   5.283   6.664  12.344  0.1353 -0.6975 -0.7939
 9782TIP3   OH250760   6.145   2.619   6.520 -0.3448 -0.2562 -0.4332
 9782TIP3    H150761   6.087   2.545   6.535 -0.4484 -0.8294 -3.1712
 9782TIP3    H250762   6.212   2.586   6.460 -0.4758  1.8554 -1.8708
 9783TIP3   OH250763   5.155   0.755   0.605 -0.0744  0.8168 -0.6174
 9783TIP3    H150764   5.234   0.802   0.631  0.0204  0.1831  0.2852
 9783TIP3    H250765   5.083   0.806   0.642  0.1011 -0.8957  2.4812
 9784TIP3   OH250766   0.752   3.814  14.658 -0.5389 -0.2537  0.0039
 9784TIP3    H150767   0.724   3.723  14.673  0.5579 -0.5567  0.2618
 9784TIP3    H250768   0.699   3.843  14.584 -3.0501 -0.1034  1.7270
 9785TIP3   OH250769   6.074   3.759   4.011 -0.2404 -0.1998  0.3292
 9785TIP3    H150770   6.064   3.679   4.063 -0.8564 -0.5715 -0.3350
 9785TIP3    H250771   6.141   3.738   3.947 -1.6678 -0.8334 -1.0098
 9786TIP3   OH250772   3.352   6.265  14.202  0.0955 -0.2444  0.1179
 9786TIP3    H150773   3.398   6.348  14.186 -2.4998  1.2668 -0.0063
 9786TIP3    H250774   3.341   6.227  14.115  0.6349 -0.3776  0.1021
 9787TIP3   OH250775   1.738   3.313   1.930 -0.0603  0.2069 -0.0943
 9787TIP3    H150776   1.651   3.340   1.903  0.5683  0.0369 -2.4916
 9787TIP3    H250777   1.783   3.395   1.953 -1.1372  0.2016  2.3101
 9788TIP3   OH250778   1.392   6.649   6.585  0.4413 -0.8578  0.3393
 9788TIP3    H150779   1.372   6.735   6.621 -0.1261 -1.4856  1.5720
 9788TIP3    H250780   1.307   6.614   6.559  0.7224 -0.8740 -0.5995
 9789TIP3   OH250781   0.185   1.259  15.789  0.1805 -0.5034  0.5130
 9789TIP3    H150782   0.167   1.204  15.712  1.8976  0.6230 -0.7620
 9789TIP3    H250783   0.099   1.287  15.819 -0.5328  0.4060 -2.0790
 9790TIP3   OH250784   5.105   0.072   0.043 -0.3388  0.2261  0.2819
 9790TIP3    H150785   5.151   0.011  -0.014 -0.2092  1.1081 -0.5786
 9790TIP3    H250786   5.106   0.030   0.129  2.6297  0.4710  0.4569
 9791TIP3   OH250787   6.463   3.243   4.069  0.4655 -0.0353  0.6770
 9791TIP3    H150788   6.552   3.276   4.082  0.3727 -0.0859  1.4730
 9791TIP3    H250789   6.412   3.320   4.045  0.6887  0.0225  0.3812
 9792TIP3   OH250790   1.541   6.542  15.927 -0.4386 -0.3720 -0.4462
 9792TIP3    H150791   1.467   6.520  15.984  0.3879  0.6837  1.0915
 9792TIP3    H250792   1.609   6.479  15.951  0.5133  1.1576  1.0303
 9793TIP3   OH250793   1.038   1.304   3.879 -0.0408  0.2846 -0.0324
 9793TIP3    H150794   1.073   1.253   3.952 -0.5024  0.5444  0.3876
 9793TIP3    H250795   1.017   1.240   3.812  0.6341  0.0686 -0.0333
 9794TIP3   OH250796   6.603   1.940  11.626  0.0354  0.2523  0.2933
 9794TIP3    H150797   6.580   1.889  11.548  0.2463 -0.0808  0.4502
 9794TIP3    H250798   6.541   1.911  11.693  2.2280 -2.2752  1.3873
 9795TIP3   OH250799   5.673   6.697  13.751 -0.3673 -0.2875  0.1588
 9795TIP3    H150800   5.748   6.730  13.702 -0.3870 -0.7664 -0.1989
 9795TIP3    H250801   5.664   6.758  13.824  0.2905 -0.1527  0.1353
 9796TIP3   OH250802   5.347   5.119  10.418 -0.2489 -0.5607  0.5778
 9796TIP3    H150803   5.391   5.037  10.440  0.5872  0.1686  1.7371
 9796TIP3    H250804   5.263   5.092  10.379 -0.3247 -1.9636  1.6564
 9797TIP3   OH250805   4.074   4.374  14.847  0.3886 -0.2850  0.6626
 9797TIP3    H150806   4.066   4.435  14.773  1.1848 -0.8626  0.0843
 9797TIP3    H250807   4.094   4.290  14.806  1.5920 -0.4678  1.5763
 9798TIP3   OH250808   3.274   4.512  11.403  0.2457  0.0271 -0.4012
 9798TIP3    H150809   3.354   4.542  11.446 -1.8997  1.0470  3.3206
 9798TIP3    H250810   3.230   4.592  11.375  0.3805 -0.5221 -2.3327
 9799TIP3   OH250811   5.303   1.179  12.974 -0.4516  0.2276 -0.2226
 9799TIP3    H150812   5.241   1.249  12.950 -0.8940 -0.4832 -1.1904
 9799TIP3    H250813   5.347   1.156  12.892 -0.6677 -0.9681 -0.0198
 9800TIP3   OH250814   2.087   3.166   3.619  0.0762 -0.4349  0.2248
 9800TIP3    H150815   2.052   3.231   3.557  1.4362  1.5455  1.4119
 9800TIP3    H250816   2.174   3.146   3.584  0.1103 -0.7540  0.4954
 9801TIP3   OH250817   6.193   4.298   1.456 -0.7489  0.0575  0.0216
 9801TIP3    H150818   6.267   4.344   1.493 -0.4995  0.2000 -0.6386
 9801TIP3    H250819   6.117   4.353   1.478 -0.6956 -0.1984  0.8805
 9802TIP3   OH250820   1.228   1.298   5.900 -0.2876  0.6036 -0.2796
 9802TIP3    H150821   1.176   1.351   5.961  0.9041  1.1046  0.3265
 9802TIP3    H250822   1.172   1.222   5.882 -0.4238  0.0705  2.0006
 9803TIP3   OH250823   3.880   1.305  13.255  0.2592 -0.4107 -0.1067
 9803TIP3    H150824   3.854   1.380  13.308 -1.5690 -1.0816  0.0232
 9803TIP3    H250825   3.841   1.229  13.299 -1.7117 -0.9660 -2.5228
 9804TIP3   OH250826   3.299   4.565  13.441  0.2352  0.3612  0.3946
 9804TIP3    H150827   3.351   4.487  13.425 -1.3117 -1.0937  2.0777
 9804TIP3    H250828   3.363   4.636  13.448  1.9373 -1.2269  1.6430
 9805TIP3   OH250829   3.270   1.145  14.888 -0.0132 -0.0880 -0.3258
 9805TIP3    H150830   3.232   1.057  14.877 -0.2683 -0.1228  0.7092
 9805TIP3    H250831   3.363   1.129  14.902  0.0510 -0.1465 -0.8088
 9806TIP3   OH250832   2.047   4.791  14.875 -0.0111  0.4315  0.1181
 9806TIP3    H150833   1.983   4.727  14.907 -0.0948 -0.2590 -1.3641
 9806TIP3    H250834   2.131   4.759  14.909 -0.2335  0.4283  0.6865
 9807TIP3   OH250835   5.943   3.977  12.463 -0.0031  0.3047  0.1673
 9807TIP3    H150836   5.921   3.914  12.532 -0.2145 -1.3310 -1.3108
 9807TIP3    H250837   6.010   4.033  12.501 -1.6643  0.8952  2.4247
 9808TIP3   OH250838   6.745   4.206   3.799 -0.6926 -0.0614  0.6391
 9808TIP3    H150839   6.800   4.262   3.745 -1.8398 -1.2504 -1.9290
 9808TIP3    H250840   6.797   4.127   3.814 -1.1311 -0.6408 -0.6873
 9809TIP3   OH250841   6.598   3.966  15.773  0.4725  0.2613  0.4465
 9809TIP3    H150842   6.565   3.885  15.735 -1.3045  0.2739  1.8502
 9809TIP3    H250843   6.622   3.942  15.863  0.0234  1.2601  0.8441
 9810TIP3   OH250844   3.972   3.929  10.925 -0.7649 -0.2692  0.2881
 9810TIP3    H150845   3.978   3.834  10.913  0.5125 -0.0622 -0.9725
 9810TIP3    H250846   3.879   3.949  10.918 -1.0167 -1.3965  0.3396
 9811TIP3   OH250847   3.885   6.290   5.149 -0.2379 -0.4185  0.2595
 9811TIP3    H150848   3.818   6.224   5.164  0.4189 -1.8355 -2.3511
 9811TIP3    H250849   3.859   6.332   5.067  2.3851 -1.6156 -1.3287
 9812TIP3   OH250850   3.212   5.138  14.382  0.5220 -0.5682  0.7613
 9812TIP3    H150851   3.176   5.177  14.462 -0.4477  0.8890 -0.3410
 9812TIP3    H250852   3.301   5.172  14.376 -0.0163  0.8320  0.2863
 9813TIP3   OH250853   4.520   2.862  12.181 -0.1726  0.0132 -0.4555
 9813TIP3    H150854   4.452   2.822  12.236 -1.2150  0.2452 -1.5285
 9813TIP3    H250855   4.597   2.869  12.238 -1.0396 -0.2860  0.7822
 9814TIP3   OH250856   6.241   5.453  12.411 -0.1884 -0.9456 -0.1111
 9814TIP3    H150857   6.245   5.454  12.315  0.0224  0.1507 -0.1053
 9814TIP3    H250858   6.184   5.527  12.433  2.9826  1.4327  0.7036
 9815TIP3   OH250859   6.032   6.046   0.016  0.0735  0.2350 -0.5959
 9815TIP3    H150860   5.974   6.094  -0.043 -1.2275 -0.5757 -0.0273
 9815TIP3    H250861   6.120   6.069  -0.013 -0.5203  1.4831 -1.5118
 9816TIP3   OH250862   3.093   2.663  14.580  0.3568  0.4969 -0.4884
 9816TIP3    H150863   3.125   2.739  14.532  0.8041 -0.6830 -2.1500
 9816TIP3    H250864   3.025   2.626  14.523 -1.7848  1.1189  1.5011
 9817TIP3   OH250865   0.333   2.939   5.037  0.0743 -0.0520 -0.3792
 9817TIP3    H150866   0.255   2.894   5.069 -0.5021  1.5590  0.5617
 9817TIP3    H250867   0.301   3.022   5.002  1.1554 -0.1733 -1.7500
 9818TIP3   OH250868   4.693   5.838   0.335  0.1473  0.2659 -0.5413
 9818TIP3    H150869   4.705   5.927   0.302 -0.3275 -0.2257 -2.1432
 9818TIP3    H250870   4.671   5.787   0.257  1.5575 -1.4892  0.1518
 9819TIP3   OH250871   1.368   1.156  16.825 -0.3016 -0.0489 -0.0482
 9819TIP3    H150872   1.275   1.176  16.826 -0.3730 -0.3465 -0.4964
 9819TIP3    H250873   1.374   1.066  16.858 -0.1403  0.0861  0.3010
 9820TIP3   OH250874   0.088   0.441  13.380 -0.0451 -0.3692  0.3017
 9820TIP3    H150875   0.145   0.374  13.417  1.3240 -1.4774 -3.3276
 9820TIP3    H250876   0.130   0.464  13.297 -2.3195  2.5135 -0.2025
 9821TIP3   OH250877   0.724   6.592  13.794 -0.0223 -0.1060  0.3148
 9821TIP3    H150878   0.679   6.677  13.796 -1.2769 -0.6852 -1.0497
 9821TIP3    H250879   0.690   6.545  13.869 -0.5221  0.0310  0.1777
 9822TIP3   OH250880   1.192   6.465  11.338 -0.7562  0.9517 -0.4486
 9822TIP3    H150881   1.203   6.534  11.403  1.3955  0.4499 -0.2329
 9822TIP3    H250882   1.153   6.392  11.386 -1.9627  1.5923 -0.4234
 9823TIP3   OH250883   0.349   6.409  14.299  0.5512 -0.0899  0.4832
 9823TIP3    H150884   0.441   6.389  14.313  0.4229  0.4814  2.5855
 9823TIP3    H250885   0.331   6.481  14.361 -1.6280 -1.1826  1.2154
 9824TIP3   OH250886   6.620   3.338  11.956 -0.5928  0.3359  0.1483
 9824TIP3    H150887   6.603   3.256  11.909 -1.8192  1.2546 -1.1287
 9824TIP3    H250888   6.567   3.403  11.910 -0.0994  1.7505  1.4759
 9825TIP3   OH250889   2.766   1.282  13.829  0.0432 -0.1027  0.0830
 9825TIP3    H150890   2.765   1.376  13.809 -1.0953  0.4253  2.3106
 9825TIP3    H250891   2.676   1.262  13.855  0.4049 -1.6854  0.2132
 9826TIP3   OH250892   4.043   2.515  15.816  0.1837 -0.0283 -0.1113
 9826TIP3    H150893   4.112   2.485  15.875 -0.9784 -0.1168  1.2835
 9826TIP3    H250894   3.978   2.554  15.875 -0.1832  1.5881 -1.5291
 9827TIP3   OH250895   5.344   5.275  12.129 -0.4789  0.0834  0.6147
 9827TIP3    H150896   5.260   5.258  12.171 -0.1914 -0.0231  1.1670
 9827TIP3    H250897   5.330   5.355  12.078 -0.4882  1.0141  2.0073
 9828TIP3   OH250898   6.732   6.417   4.252 -0.2907 -0.2666  0.7056
 9828TIP3    H150899   6.723   6.378   4.339 -0.6646  0.1689  0.8677
 9828TIP3    H250900   6.823   6.445   4.247  0.2905 -2.0827  0.1824
 9829TIP3   OH250901   0.892   2.750   4.579  0.1357  0.1678  0.3888
 9829TIP3    H150902   0.823   2.719   4.638  1.3282  0.8511  2.2445
 9829TIP3    H250903   0.928   2.827   4.622  2.4972 -0.5409 -0.1433
 9830TIP3   OH250904   2.254   5.325   2.812 -0.5178  0.2064 -0.8461
 9830TIP3    H150905   2.268   5.395   2.748 -1.5689 -0.6422 -2.0748
 9830TIP3    H250906   2.159   5.311   2.811 -0.6459  0.4898  1.3163
 9831TIP3   OH250907   2.143   1.537  17.006  0.2718 -0.3015  0.3282
 9831TIP3    H150908   2.167   1.447  16.983  1.0991 -0.3003  1.1610
 9831TIP3    H250909   2.157   1.543  17.100  0.3870  0.7466  0.2580
 9832TIP3   OH250910   2.181   5.818   5.827 -0.5910  0.1984 -0.5265
 9832TIP3    H150911   2.164   5.874   5.902  1.0019  0.4110 -0.2804
 9832TIP3    H250912   2.162   5.872   5.751 -0.0241  0.7497 -0.2804
 9833TIP3   OH250913   4.910   1.303   2.040  0.1970  0.6238 -0.6136
 9833TIP3    H150914   4.834   1.269   1.991  0.7936 -0.4132 -0.8396
 9833TIP3    H250915   4.953   1.362   1.978  1.6853 -1.6512 -1.9192
 9834TIP3   OH250916   3.384   5.731  13.632 -0.4983  0.0207 -0.1035
 9834TIP3    H150917   3.408   5.800  13.570 -1.1210 -0.7153 -1.2011
 9834TIP3    H250918   3.326   5.773  13.695  0.1140  0.7681 -0.0258
 9835TIP3   OH250919   2.895   1.114   1.921  0.6985  0.5144  0.4995
 9835TIP3    H150920   2.932   1.086   1.837  0.5977 -0.2881  0.7125
 9835TIP3    H250921   2.931   1.052   1.985  0.2083  0.6756  0.9426
 9836TIP3   OH250922   3.729   2.200   3.068 -0.1252 -0.2822  0.1686
 9836TIP3    H150923   3.741   2.242   3.154 -0.7688 -1.9598  1.1313
 9836TIP3    H250924   3.752   2.108   3.083  0.0422 -0.5547 -1.5576
 9837TIP3   OH250925   4.748   4.024   0.762  0.0098 -0.3439 -0.5042
 9837TIP3    H150926   4.704   3.969   0.697 -2.8644 -1.0162  1.7780
 9837TIP3    H250927   4.732   4.114   0.731  0.3361 -0.6656 -1.6706
 9838TIP3   OH250928   3.639   0.411  11.608 -0.1483 -0.2432  0.2389
 9838TIP3    H150929   3.628   0.421  11.513 -0.2512  0.3720  0.3096
 9838TIP3    H250930   3.734   0.409  11.620 -0.1273 -1.6376  0.0054
 9839TIP3   OH250931   4.535   3.052   4.424  0.0645 -0.2324  0.3497
 9839TIP3    H150932   4.531   3.147   4.423 -1.5841 -0.2587 -1.0366
 9839TIP3    H250933   4.613   3.031   4.475 -0.6170  1.8164  2.3927
 9840TIP3   OH250934   4.044   5.775   3.852  0.0745 -0.1288  0.5470
 9840TIP3    H150935   3.978   5.824   3.901 -1.4611 -1.0690 -0.4738
 9840TIP3    H250936   4.114   5.758   3.915 -0.2430  1.6619  1.4300
 9841TIP3   OH250937   4.952   5.163   5.405 -0.4390  0.1863 -0.0328
 9841TIP3    H150938   4.896   5.109   5.460 -0.2856  0.2410  0.1786
 9841TIP3    H250939   5.005   5.213   5.467  0.3521 -0.3901 -0.2382
 9842TIP3   OH250940   2.281   2.030  16.284 -0.2374  0.4650  0.0998
 9842TIP3    H150941   2.334   1.953  16.304 -0.0373  0.7065  0.5313
 9842TIP3    H250942   2.327   2.073  16.212 -1.7439 -1.1955 -1.9809
 9843TIP3   OH250943   2.700   2.831   6.648 -0.3715 -0.9213 -0.1506
 9843TIP3    H150944   2.655   2.893   6.705  1.1369 -1.2446  1.4915
 9843TIP3    H250945   2.640   2.818   6.574 -1.0918  1.8532 -0.1885
 9844TIP3   OH250946   5.217   1.348   3.778  0.1265 -0.1364  0.1186
 9844TIP3    H150947   5.221   1.292   3.856 -0.1135 -0.7626 -0.3168
 9844TIP3    H250948   5.305   1.342   3.739 -0.0929 -0.7426 -0.2934
 9845TIP3   OH250949   1.123   2.986   4.431  0.3167  0.6572  0.2640
 9845TIP3    H150950   1.085   2.999   4.518  1.0035  1.2329  0.4937
 9845TIP3    H250951   1.166   2.901   4.437  2.5891  1.7867  1.3762
 9846TIP3   OH250952   3.730   3.838   5.266 -0.2726  0.0806  0.6018
 9846TIP3    H150953   3.743   3.843   5.171  1.9520  0.4058  0.8734
 9846TIP3    H250954   3.688   3.921   5.288  1.0478  0.9057  0.1308
 9847TIP3   OH250955   0.496   6.297   2.230  0.1072 -0.0686 -0.4404
 9847TIP3    H150956   0.464   6.385   2.214 -0.5814 -0.0041  1.1452
 9847TIP3    H250957   0.495   6.287   2.325 -0.9926 -2.1821 -0.6054
 9848TIP3   OH250958   0.988   2.920  16.415 -0.1586  0.1666  0.4549
 9848TIP3    H150959   1.024   2.889  16.331  1.2657 -0.7258  1.3560
 9848TIP3    H250960   0.921   2.855  16.437  2.0729 -1.8097  1.8056
 9849TIP3   OH250961   5.257   5.720  15.479 -0.0420  0.0727  0.3168
 9849TIP3    H150962   5.165   5.700  15.498 -0.0928 -0.0496 -0.0575
 9849TIP3    H250963   5.254   5.771  15.398  0.2033  0.2808  0.4388
 9850TIP3   OH250964   5.291   6.307   2.313  0.0563 -0.1470 -0.1860
 9850TIP3    H150965   5.338   6.292   2.231 -0.7133  1.5290 -0.9747
 9850TIP3    H250966   5.348   6.271   2.381  0.6919 -1.5954 -1.4376
 9851TIP3   OH250967   6.477   1.075  14.405 -0.0804  0.3501  0.0016
 9851TIP3    H150968   6.469   1.163  14.443 -1.6485 -0.5261  1.9034
 9851TIP3    H250969   6.560   1.042  14.439 -1.2780 -0.2706  2.5609
 9852TIP3   OH250970   2.517   3.391   4.924 -0.0941  0.1371 -0.0287
 9852TIP3    H150971   2.539   3.452   4.994 -0.6952  2.4502 -1.7380
 9852TIP3    H250972   2.433   3.354   4.950  0.7750 -0.8205  1.5316
 9853TIP3   OH250973   3.989   3.101   0.042  0.4526 -1.0461  0.1169
 9853TIP3    H150974   4.004   3.191   0.069 -0.6446 -0.9736  0.5421
 9853TIP3    H250975   4.074   3.058   0.054  1.4191  0.2505 -1.5461
 9854TIP3   OH250976   1.056   0.872   1.997 -0.1509 -0.1559  0.2334
 9854TIP3    H150977   1.148   0.888   2.018 -0.9334  1.5581  2.9155
 9854TIP3    H250978   1.053   0.781   1.968  2.0805 -1.0576  2.4793
 9855TIP3   OH250979   2.875   5.290  11.868  0.7844  0.8410  0.4032
 9855TIP3    H150980   2.866   5.329  11.955  1.9663 -1.9809  1.9398
 9855TIP3    H250981   2.931   5.351  11.820 -0.8905  3.0882  1.1162
 9856TIP3   OH250982   1.095   0.451   1.249  0.4921  0.0144  0.3395
 9856TIP3    H150983   1.181   0.461   1.210 -0.0973 -3.8772 -2.4869
 9856TIP3    H250984   1.098   0.368   1.296 -1.7916 -0.5533 -0.3537
 9857TIP3   OH250985   1.724   3.078   3.501 -0.2391  0.2117  0.6478
 9857TIP3    H150986   1.647   3.115   3.544  0.0248  1.3949  0.1503
 9857TIP3    H250987   1.756   3.012   3.562 -0.5979  0.9779  1.7063
 9858TIP3   OH250988   4.655   0.224  16.041 -0.0614  0.0199  0.2910
 9858TIP3    H150989   4.664   0.161  16.113  1.6324  0.4582  0.5220
 9858TIP3    H250990   4.667   0.309  16.083 -0.5992  0.3855 -0.2848
 9859TIP3   OH250991   5.517   2.607  16.246 -0.4135 -0.0519 -0.1668
 9859TIP3    H150992   5.457   2.631  16.316  0.9746  2.0433  0.3892
 9859TIP3    H250993   5.576   2.543  16.285 -2.7411 -2.9535 -1.0054
 9860TIP3   OH250994   3.719   2.399   2.145  0.4881 -0.3156  0.0593
 9860TIP3    H150995   3.707   2.474   2.203 -0.8340 -2.2781  2.5286
 9860TIP3    H250996   3.638   2.349   2.152  1.4436 -2.1960 -1.1796
 9861TIP3   OH250997   6.057   4.561  11.783  0.1532  0.2677  0.8302
 9861TIP3    H150998   6.074   4.515  11.865  3.3958 -0.1030  0.0875
 9861TIP3    H250999   6.143   4.591  11.754 -0.1925 -2.5391 -4.1459
 9862TIP3   OH251000   2.287   2.328  11.720  0.1711 -0.0117  0.4497
 9862TIP3    H151001   2.260   2.326  11.812 -1.0063  0.9543  0.1472
 9862TIP3    H251002   2.301   2.421  11.701 -0.0594 -0.1567 -0.4796
 9863TIP3   OH251003   3.514   4.910   2.130 -0.3275 -0.0355 -0.6505
 9863TIP3    H151004   3.492   4.842   2.195 -1.3420 -0.3037 -1.2544
 9863TIP3    H251005   3.595   4.949   2.164  0.1447 -1.3560 -0.1439
 9864TIP3   OH251006   5.967   0.371   3.325  0.1466 -0.4358 -0.3058
 9864TIP3    H151007   5.936   0.461   3.320  0.1496 -0.3543  0.7961
 9864TIP3    H251008   5.954   0.336   3.237 -0.5553  0.4063 -0.5539
 9865TIP3   OH251009   4.993   1.938   3.542 -0.4856 -0.4189 -0.4123
 9865TIP3    H151010   4.972   1.845   3.528 -0.4268 -0.4716 -0.1551
 9865TIP3    H251011   5.070   1.937   3.600 -1.2561 -0.1958  0.6368
 9866TIP3   OH251012   4.193   1.658  13.340  0.4268  0.1403 -0.6122
 9866TIP3    H151013   4.109   1.622  13.369 -0.2057 -0.0218 -2.5114
 9866TIP3    H251014   4.243   1.581  13.311  0.8016  0.3582 -0.5527
 9867TIP3   OH251015   4.548   1.063  11.685  0.1715  0.0674 -0.4488
 9867TIP3    H151016   4.483   1.129  11.711  0.8428  0.4894  0.1951
 9867TIP3    H251017   4.572   1.089  11.596 -0.7261 -0.2501 -0.7980
 9868TIP3   OH251018   4.527   2.680  11.148 -0.8206 -0.3114 -0.2662
 9868TIP3    H151019   4.467   2.611  11.178 -0.0938 -1.1584 -0.7025
 9868TIP3    H251020   4.590   2.634  11.093  0.5955  0.4642  0.6668
 9869TIP3   OH251021   1.964   0.084   3.143 -0.1889  0.0124 -0.3837
 9869TIP3    H151022   2.031   0.078   3.075 -0.4990 -1.7889 -0.5684
 9869TIP3    H251023   1.941   0.177   3.145  0.4578  0.2495 -2.1264
 9870TIP3   OH251024   2.061   1.380  13.310 -0.6690  0.1075 -0.6592
 9870TIP3    H151025   2.080   1.312  13.245  0.2987 -1.5127  1.2097
 9870TIP3    H251026   2.079   1.462  13.264  2.2842 -1.0261 -1.7926
 9871TIP3   OH251027   2.914   1.341  11.398 -0.5251 -0.0714  0.6397
 9871TIP3    H151028   2.925   1.246  11.391 -0.8137 -0.0356 -0.4452
 9871TIP3    H251029   2.846   1.362  11.335  1.3121  1.1811 -1.0506
 9872TIP3   OH251030   5.936   4.164  11.976  0.0147  0.2217  0.4624
 9872TIP3    H151031   5.988   4.221  12.032  0.2583 -0.6016  1.0848
 9872TIP3    H251032   5.845   4.192  11.990  0.2196  1.2313 -0.1358
 9873TIP3   OH251033   5.361   5.737  11.697  0.3266 -0.1186  0.2304
 9873TIP3    H151034   5.374   5.771  11.608 -1.3028  0.4858  0.1917
 9873TIP3    H251035   5.362   5.642  11.687 -0.6483 -0.0575 -0.5824
 9874TIP3   OH251036   0.112   6.696   1.107 -0.1869 -0.1638 -0.6881
 9874TIP3    H151037   0.089   6.604   1.091 -0.1680 -0.0337 -1.5476
 9874TIP3    H251038   0.062   6.744   1.041  1.5845  0.2350 -1.8283
 9875TIP3   OH251039   1.185   3.766  15.430  0.8928  0.4711  0.4890
 9875TIP3    H151040   1.275   3.738  15.416  1.2681  1.5952  0.5528
 9875TIP3    H251041   1.182   3.855  15.397 -0.1243  0.5451  0.7484
 9876TIP3   OH251042   4.661   3.543   5.085 -0.6999  0.5792  0.2346
 9876TIP3    H151043   4.741   3.554   5.137 -0.6591  0.5888  0.1704
 9876TIP3    H251044   4.590   3.548   5.148 -0.7465  2.2230  0.0842
 9877TIP3   OH251045   3.295   4.531   3.267  0.0437  0.4847  0.1150
 9877TIP3    H151046   3.203   4.506   3.265  0.3853 -0.7938 -1.1375
 9877TIP3    H251047   3.311   4.575   3.184  0.3993  1.4234  0.6579
 9878TIP3   OH251048   0.120   5.705   1.118  0.1738  0.1437  0.1229
 9878TIP3    H151049   0.037   5.720   1.162 -0.3437 -0.9049 -0.4410
 9878TIP3    H251050   0.134   5.611   1.126  2.7184  0.6290  2.6338
 9879TIP3   OH251051   5.301   4.495   1.021  0.1925  0.1570  0.4962
 9879TIP3    H151052   5.298   4.429   1.091 -2.2056  0.3670  0.6808
 9879TIP3    H251053   5.237   4.464   0.956  0.2005  1.4862 -0.1840
 9880TIP3   OH251054   3.646   2.816   6.398 -0.3945 -0.2375  0.6146
 9880TIP3    H151055   3.711   2.886   6.401 -0.3947 -0.2694  1.6101
 9880TIP3    H251056   3.583   2.837   6.467  0.5968 -2.1310  2.2076
 9881TIP3   OH251057   5.007   3.742  10.496  0.3844  0.1306 -0.1868
 9881TIP3    H151058   4.941   3.740  10.565  0.7771  0.6485  0.2150
 9881TIP3    H251059   5.062   3.817  10.518  0.8383 -0.0246 -0.7673
 9882TIP3   OH251060   2.220   0.491  11.769  0.2509 -1.1147 -0.8277
 9882TIP3    H151061   2.180   0.575  11.747  0.0606 -0.6932  0.9178
 9882TIP3    H251062   2.287   0.478  11.702  1.1417  1.0551 -0.4721
 9883TIP3   OH251063   4.926   2.735  12.902  0.5463 -0.3388 -0.1715
 9883TIP3    H151064   4.986   2.673  12.944 -1.3394 -2.3050 -0.2230
 9883TIP3    H251065   4.913   2.701  12.813  1.7745  1.8557 -1.2957
 9884TIP3   OH251066   0.365   5.724  15.000  0.3829 -0.2957  0.2147
 9884TIP3    H151067   0.285   5.678  15.028 -0.1297 -0.0779 -0.8556
 9884TIP3    H251068   0.400   5.762  15.081 -1.3100  0.6920  0.5367
 9885TIP3   OH251069   5.420   5.538  17.238 -0.0331 -0.2516 -0.0149
 9885TIP3    H151070   5.417   5.452  17.194  0.8617  0.1200 -0.8442
 9885TIP3    H251071   5.460   5.520  17.323 -2.4711 -1.1101  1.0443
 9886TIP3   OH251072   6.341   1.801  16.113 -0.5133 -0.4015 -0.1985
 9886TIP3    H151073   6.262   1.807  16.058 -0.7914 -1.7971  0.0308
 9886TIP3    H251074   6.407   1.851  16.065 -1.2596 -0.0496 -0.8863
 9887TIP3   OH251075   6.102   2.035  15.539 -0.4315 -0.0353 -0.6603
 9887TIP3    H151076   6.078   2.121  15.506  1.3977  1.3392  1.3175
 9887TIP3    H251077   6.081   2.038  15.632  1.3130 -1.0282 -0.1911
 9888TIP3   OH251078   4.552   2.346  13.864 -0.5945 -0.3881  0.6580
 9888TIP3    H151079   4.581   2.390  13.784  1.3564  1.0771  2.0505
 9888TIP3    H251080   4.481   2.401  13.897  1.0264  1.1669  1.7521
 9889TIP3   OH251081   5.178   2.505  12.766 -0.0145  0.3880 -0.1211
 9889TIP3    H151082   5.126   2.583  12.746  1.1777  1.2883  0.1921
 9889TIP3    H251083   5.212   2.476  12.681 -0.3521  0.2853 -0.2218
 9890TIP3   OH251084   3.925   0.634  14.724  0.6406  0.1621 -0.0592
 9890TIP3    H151085   3.985   0.567  14.756 -0.4102 -0.6069  0.3179
 9890TIP3    H251086   3.886   0.595  14.646 -0.3283  0.1346  0.4318
 9891TIP3   OH251087   0.570   0.907   5.135 -0.1058 -0.0566  0.5821
 9891TIP3    H151088   0.489   0.872   5.171  0.9084 -1.1130  1.9703
 9891TIP3    H251089   0.627   0.830   5.125  1.1316  0.7993  0.8039
 9892TIP3   OH251090   3.305   4.416  10.945  0.0455  0.3262  0.0749
 9892TIP3    H151091   3.214   4.409  10.973  0.1816  1.1313  0.7489
 9892TIP3    H251092   3.310   4.359  10.868 -0.1866 -2.4943  1.9835
 9893TIP3   OH251093   1.404   2.560   5.848  0.1020 -0.7243  0.2048
 9893TIP3    H151094   1.473   2.508   5.889  0.6840 -0.2767 -0.1893
 9893TIP3    H251095   1.384   2.629   5.911  0.1945 -0.6996  0.2060
 9894TIP3   OH251096   0.813   0.448  12.725  0.1991  0.3934  0.0031
 9894TIP3    H151097   0.810   0.540  12.696 -2.4812  0.3507 -0.1276
 9894TIP3    H251098   0.804   0.398  12.644 -1.3668  0.1369  0.3019
 9895TIP3   OH251099   3.379   3.375   0.465 -0.7746 -0.8587  0.5568
 9895TIP3    H151100   3.409   3.440   0.402 -0.9364 -1.2793  0.0405
 9895TIP3    H251101   3.459   3.327   0.490 -0.6978 -0.6377  0.7376
 9896TIP3   OH251102   0.853   3.738  13.569 -0.2220  0.1961  0.3987
 9896TIP3    H151103   0.937   3.707  13.536  0.3785  0.7446  1.3636
 9896TIP3    H251104   0.802   3.659  13.584 -0.8320 -0.0592 -2.5481
 9897TIP3   OH251105   6.354   1.006  12.458 -0.1423 -0.1796 -0.0184
 9897TIP3    H151106   6.442   1.044  12.455  0.5949 -1.7905  0.3470
 9897TIP3    H251107   6.339   0.975  12.369 -0.2865 -0.0389 -0.0437
 9898TIP3   OH251108   5.189   5.075  13.747  0.8680  0.2978  0.0081
 9898TIP3    H151109   5.210   5.154  13.696 -0.3808  0.0747 -0.8942
 9898TIP3    H251110   5.104   5.047  13.713  1.9790 -2.3591 -0.8195
 9899TIP3   OH251111   5.407   3.044   3.542  0.1253 -0.8405  0.0800
 9899TIP3    H151112   5.466   2.977   3.576  1.0231 -0.5399 -0.8450
 9899TIP3    H251113   5.320   3.006   3.553  0.5435 -1.6861  0.6067
 9900TIP3   OH251114   6.743   6.329  16.446  0.2635 -0.2837  0.2029
 9900TIP3    H151115   6.698   6.245  16.448  1.3669 -0.8832  0.5428
 9900TIP3    H251116   6.686   6.388  16.496 -1.3391 -0.3749 -1.3861
 9901TIP3   OH251117   6.026   5.589   5.859  0.2087  0.3428 -0.0681
 9901TIP3    H151118   6.064   5.649   5.794 -0.2462  1.1820  0.4190
 9901TIP3    H251119   6.057   5.623   5.943  0.8978 -0.8072  0.1670
 9902TIP3   OH251120   2.938   3.718   1.074 -0.0109 -0.5469 -0.6494
 9902TIP3    H151121   2.943   3.791   1.135 -2.1602 -2.8559  2.5734
 9902TIP3    H251122   3.016   3.665   1.093 -0.0501 -0.6564 -0.7922
 9903TIP3   OH251123   3.447   5.600  12.209 -0.2055  0.0985  0.0668
 9903TIP3    H151124   3.524   5.592  12.151 -0.0663 -0.0569  0.2701
 9903TIP3    H251125   3.372   5.592  12.150 -0.0809  1.2468 -0.2780
 9904TIP3   OH251126   2.274   5.665  12.668 -0.8308 -0.7364  0.1889
 9904TIP3    H151127   2.348   5.710  12.709 -1.5477  3.8846 -2.9243
 9904TIP3    H251128   2.206   5.665  12.735 -0.0461  0.8452  1.0474
 9905TIP3   OH251129   3.090   5.495   4.416  0.3544  0.5803  0.4001
 9905TIP3    H151130   3.004   5.500   4.375  1.0173  1.1280 -1.0082
 9905TIP3    H251131   3.127   5.413   4.383  1.6818  1.9778 -1.8395
 9906TIP3   OH251132   3.515   6.375   4.218  0.4250 -0.2994  0.1679
 9906TIP3    H151133   3.497   6.282   4.204 -3.3364 -0.0108  2.0032
 9906TIP3    H251134   3.504   6.415   4.132  1.8375 -1.4464 -0.5929
 9907TIP3   OH251135   3.195   5.992   2.193  0.2271  0.5140 -0.2792
 9907TIP3    H151136   3.288   5.986   2.213  0.1629 -0.3390 -0.2012
 9907TIP3    H251137   3.166   6.071   2.238  0.8257  0.5364  0.0725
 9908TIP3   OH251138   5.608   3.853   5.170 -0.7254  0.1249 -0.2797
 9908TIP3    H151139   5.557   3.782   5.131  0.8025 -0.5966 -1.0621
 9908TIP3    H251140   5.621   3.915   5.098  0.9479 -0.5568 -0.6244
 9909TIP3   OH251141   5.190   5.109  14.010 -0.3312 -0.1127  0.2810
 9909TIP3    H151142   5.238   5.099  13.927 -1.6889 -0.2379 -0.5295
 9909TIP3    H251143   5.168   5.202  14.014  0.9194  0.1662  1.2191
 9910TIP3   OH251144   0.321   3.053   6.347  0.3055  0.1559  0.4205
 9910TIP3    H151145   0.392   3.001   6.309  2.3499  0.8872  2.9411
 9910TIP3    H251146   0.270   2.990   6.398 -0.7637 -0.3271 -1.1898
 9911TIP3   OH251147   6.584   6.028   0.452 -0.0018 -0.0209 -0.4340
 9911TIP3    H151148   6.547   5.981   0.378 -1.2724 -0.6172  0.5430
 9911TIP3    H251149   6.508   6.051   0.506  0.9260 -0.0131  0.9109
 9912TIP3   OH251150   0.995   6.195   6.112 -0.2714  0.1459 -0.6324
 9912TIP3    H151151   0.944   6.262   6.157 -1.2864  0.2366 -1.8454
 9912TIP3    H251152   1.054   6.245   6.054  0.2672  0.0124 -0.2076
 9913TIP3   OH251153   0.252   3.464   1.437  0.7294  0.7397 -0.1581
 9913TIP3    H151154   0.166   3.432   1.411  0.3782  0.9504  0.7289
 9913TIP3    H251155   0.235   3.531   1.503  1.5332  1.5874 -0.7864
 9914TIP3   OH251156   4.786   5.422  14.480 -0.0036 -0.6720  0.0550
 9914TIP3    H151157   4.705   5.467  14.456  0.9144 -0.0918 -2.3740
 9914TIP3    H251158   4.843   5.492  14.512 -0.1465 -0.9256  0.8758
 9915TIP3   OH251159   0.807   1.755  12.915  0.6212  0.6240 -0.1964
 9915TIP3    H151160   0.847   1.834  12.877 -0.2724  0.7996 -0.7978
 9915TIP3    H251161   0.873   1.723  12.977  1.1682  1.6127 -0.2355
 9916TIP3   OH251162   3.362   0.548   4.008 -0.0624  0.3009 -0.4220
 9916TIP3    H151163   3.354   0.508   3.921  0.6244 -0.2524 -0.2343
 9916TIP3    H251164   3.424   0.492   4.055  0.1363  1.0142  0.1806
 9917TIP3   OH251165   3.460   6.688   4.392  0.0311 -0.1006  0.6535
 9917TIP3    H151166   3.543   6.711   4.433  0.1394 -0.4813  0.6577
 9917TIP3    H251167   3.480   6.680   4.299 -0.0355 -0.0381  0.6334
 9918TIP3   OH251168   3.575   0.650  10.518  0.3176  0.1237  0.3571
 9918TIP3    H151169   3.485   0.685  10.522  0.6847  1.2198 -0.4441
 9918TIP3    H251170   3.573   0.591  10.443  0.6003  1.2235 -0.5425
 9919TIP3   OH251171   0.878   1.264   3.636 -0.0944  0.3690 -0.4468
 9919TIP3    H151172   0.810   1.332   3.643 -1.0563 -0.6898  1.1495
 9919TIP3    H251173   0.836   1.186   3.671  2.1585 -0.1883  1.1672
 9920TIP3   OH251174   0.012   5.268   6.370 -0.3311  0.0429  0.6126
 9920TIP3    H151175  -0.082   5.289   6.368 -0.1912  0.6251 -0.9551
 9920TIP3    H251176   0.018   5.183   6.328 -0.1392  0.0787  0.5677
 9921TIP3   OH251177   3.197   3.587  12.519 -0.0829 -0.2208 -0.0487
 9921TIP3    H151178   3.213   3.585  12.424  0.2308 -0.1462  0.0015
 9921TIP3    H251179   3.151   3.505  12.537 -0.0899 -0.2632 -0.2560
 9922TIP3   OH251180   4.497   4.578   3.779  0.2276 -0.3900 -0.0176
 9922TIP3    H151181   4.562   4.555   3.712 -0.6987  1.9934 -1.8516
 9922TIP3    H251182   4.547   4.624   3.846  0.5458  1.4003 -1.3995
 9923TIP3   OH251183   2.213   6.022  14.017 -0.2823 -0.1993  0.0523
 9923TIP3    H151184   2.122   6.049  14.007  0.2137  1.3078 -1.0331
 9923TIP3    H251185   2.263   6.097  13.982  1.3078 -1.6795 -1.0424
 9924TIP3   OH251186   2.090   6.351   2.437  0.3496 -0.4277 -0.2600
 9924TIP3    H151187   2.011   6.359   2.489  1.2888  0.1857  1.1257
 9924TIP3    H251188   2.059   6.323   2.350 -1.4030  0.2634  0.1067
 9925TIP3   OH251189   6.011   3.403  12.688 -0.4087  0.5312  0.4591
 9925TIP3    H151190   5.999   3.410  12.593  0.2954  2.2007  0.4739
 9925TIP3    H251191   5.990   3.311  12.707 -2.8666  0.6792 -0.9695
 9926TIP3   OH251192   5.822   1.505   5.837 -0.2007  0.6816 -0.0882
 9926TIP3    H151193   5.898   1.449   5.857 -0.6458 -1.1313 -2.8575
 9926TIP3    H251194   5.774   1.510   5.919  1.4543 -0.4952  1.0335
 9927TIP3   OH251195   3.783   5.569  13.242 -0.2135  0.5585  0.1383
 9927TIP3    H151196   3.820   5.646  13.199 -1.3981  1.3543  0.5051
 9927TIP3    H251197   3.849   5.544  13.307 -0.5630  2.3404  1.2366
 9928TIP3   OH251198   4.136   0.898   3.690  0.2715 -0.1992  0.6790
 9928TIP3    H151199   4.180   0.972   3.731  0.1177 -0.5688  1.5277
 9928TIP3    H251200   4.048   0.931   3.670  0.8074  0.4454 -0.7475
 9929TIP3   OH251201   2.563   0.897   3.918 -0.4377 -0.0657 -0.1303
 9929TIP3    H151202   2.629   0.940   3.863  0.4984 -0.4011  0.7082
 9929TIP3    H251203   2.487   0.888   3.861  0.2322  0.3409 -1.1180
 9930TIP3   OH251204   2.894   1.682  12.847  0.6089 -0.0909 -0.3448
 9930TIP3    H151205   2.832   1.754  12.845  0.4813 -0.1710  0.3957
 9930TIP3    H251206   2.980   1.725  12.841  0.5728  0.2059  0.9049
 9931TIP3   OH251207   0.412   3.312   5.300 -0.4982 -0.1693 -0.0868
 9931TIP3    H151208   0.500   3.292   5.268  0.5002 -0.4253  2.5655
 9931TIP3    H251209   0.367   3.228   5.302 -0.5299 -0.1720 -0.5832
 9932TIP3   OH251210   0.924   4.665   2.812  0.1420  0.0188 -0.5075
 9932TIP3    H151211   1.015   4.638   2.805 -0.3335 -1.4596 -1.4696
 9932TIP3    H251212   0.899   4.644   2.902  1.0214  1.4783  0.1192
 9933TIP3   OH251213   2.203   0.486   0.213 -0.2556 -0.2419  0.2325
 9933TIP3    H151214   2.292   0.451   0.222 -0.9168 -1.8309  0.9505
 9933TIP3    H251215   2.186   0.485   0.119  0.1583 -0.7921  0.1635
 9934TIP3   OH251216   0.726   6.147   2.796 -0.4210 -0.2407 -0.3691
 9934TIP3    H151217   0.643   6.132   2.750 -1.1874  0.0984  0.8656
 9934TIP3    H251218   0.716   6.103   2.880  0.0042  1.1532  0.4585
 9935TIP3   OH251219   1.169   5.726   3.432 -0.3639  0.2152  0.2571
 9935TIP3    H151220   1.089   5.750   3.477  0.4479  2.0545  0.7994
 9935TIP3    H251221   1.143   5.717   3.340 -1.0285  1.7836  0.2616
 9936TIP3   OH251222   3.908   5.435  11.488  0.1858 -0.1867  0.4536
 9936TIP3    H151223   3.937   5.488  11.563 -1.3740  1.8549 -0.2654
 9936TIP3    H251224   3.819   5.407  11.512 -0.4976  0.8577 -0.7543
 9937TIP3   OH251225   1.270   1.830   1.740 -0.3891 -0.0681  0.0566
 9937TIP3    H151226   1.261   1.883   1.660  0.7622 -0.0323 -0.0681
 9937TIP3    H251227   1.363   1.835   1.760 -0.5061 -0.9493  0.8146
 9938TIP3   OH251228   3.124   4.866   0.598  0.6799 -0.1629  0.0225
 9938TIP3    H151229   3.173   4.946   0.580  0.3043  0.2020  0.6036
 9938TIP3    H251230   3.185   4.812   0.648  0.5470  0.2356  0.6290
 9939TIP3   OH251231   5.787   6.592  10.826  0.2828 -0.1851  0.2681
 9939TIP3    H151232   5.730   6.531  10.873  1.4683 -0.9280  0.8073
 9939TIP3    H251233   5.737   6.673  10.820 -1.4159 -1.2275 -0.6139
 9940TIP3   OH251234   2.147   5.091   0.480 -0.2174  0.3778 -0.2585
 9940TIP3    H151235   2.185   5.085   0.568  1.1187 -0.8349 -0.8731
 9940TIP3    H251236   2.094   5.012   0.471 -0.4321  0.5512 -0.5126
 9941TIP3   OH251237   3.955   0.816   2.487  0.1365 -0.0089  0.2338
 9941TIP3    H151238   3.968   0.856   2.573 -0.4096 -0.9007  0.7422
 9941TIP3    H251239   3.916   0.731   2.505 -0.1217 -0.1540 -0.9070
 9942TIP3   OH251240   3.822   5.601   2.009  0.8694  0.4085 -0.4677
 9942TIP3    H151241   3.762   5.579   2.080  2.8566  1.3818  1.6025
 9942TIP3    H251242   3.820   5.525   1.951 -0.0157 -0.8409  1.1425
 9943TIP3   OH251243   0.955   0.699  13.180 -0.2878  0.7264 -0.1685
 9943TIP3    H151244   1.004   0.631  13.133  1.5091  1.5150  0.4905
 9943TIP3    H251245   0.896   0.650  13.237 -0.5856 -0.2463 -1.2613
 9944TIP3   OH251246   0.418   1.862   4.798 -0.1543  0.4734  0.0733
 9944TIP3    H151247   0.496   1.810   4.783  0.2834  0.6428  1.6343
 9944TIP3    H251248   0.444   1.927   4.863 -1.1786  1.5094 -0.5046
 9945TIP3   OH251249   6.593   5.099  14.489 -0.2498 -0.1064 -0.8807
 9945TIP3    H151250   6.501   5.095  14.516 -0.2290 -1.1379 -0.9246
 9945TIP3    H251251   6.640   5.051  14.558  0.3258  0.8824 -0.5741
 9946TIP3   OH251252   0.927   3.607  11.813  0.0507 -0.3110 -0.2771
 9946TIP3    H151253   0.890   3.683  11.858  0.0413 -1.5189  1.8776
 9946TIP3    H251254   1.021   3.626  11.806 -0.2664  0.8737 -1.8844
 9947TIP3   OH251255   2.896   0.285  11.019 -1.0835  0.2975  0.8416
 9947TIP3    H151256   2.932   0.337  11.090  0.4147 -0.2455  0.5152
 9947TIP3    H251257   2.945   0.313  10.941 -1.4559 -0.3834  0.3482
 9948TIP3   OH251258   1.614   4.216   0.153 -0.4173 -0.4025 -0.8857
 9948TIP3    H151259   1.559   4.228   0.076  0.0081  0.0792 -1.1231
 9948TIP3    H251260   1.622   4.121   0.163 -1.3185 -0.4765 -0.8209
 9949TIP3   OH251261   4.331   1.652  15.820 -0.5020 -0.6145 -0.0035
 9949TIP3    H151262   4.368   1.650  15.908  1.6099 -0.4573 -0.8186
 9949TIP3    H251263   4.287   1.568  15.810 -0.1686 -0.9196  0.9795
 9950TIP3   OH251264   0.367   4.873  11.124 -0.7003  0.0499 -0.3346
 9950TIP3    H151265   0.405   4.787  11.104 -0.4794  0.2263 -0.6924
 9950TIP3    H251266   0.282   4.872  11.081 -0.9532 -0.2086  0.1613
 9951TIP3   OH251267   2.727   3.306  10.660 -0.0854  0.0330 -0.2229
 9951TIP3    H151268   2.677   3.325  10.739 -0.0094  1.5552 -0.5114
 9951TIP3    H251269   2.714   3.212  10.645 -1.3258  0.0319  0.7351
 9952TIP3   OH251270   2.523   0.340   5.104 -0.0649 -0.0880  0.5255
 9952TIP3    H151271   2.521   0.428   5.143 -0.8590 -0.1823  0.7056
 9952TIP3    H251272   2.511   0.355   5.010  0.5547  0.0441  0.4613
 9953TIP3   OH251273   5.598   6.154  14.344 -0.4797  0.2680  0.0228
 9953TIP3    H151274   5.629   6.245  14.344 -1.7143  0.7138  0.3410
 9953TIP3    H251275   5.589   6.131  14.436  2.2133 -1.0883  0.0428
 9954TIP3   OH251276   0.770   4.659   4.562 -0.1003  0.1521  0.1433
 9954TIP3    H151277   0.844   4.601   4.578  0.0551  0.5891  1.0665
 9954TIP3    H251278   0.761   4.660   4.466  0.2364 -0.9454  0.0848
 9955TIP3   OH251279   0.129   2.507   5.494  0.1858 -0.3654 -0.5859
 9955TIP3    H151280   0.175   2.522   5.411  0.7994 -0.4716 -0.2729
 9955TIP3    H251281   0.050   2.560   5.488  1.0292  0.9482 -0.5581
 9956TIP3   OH251282   0.265   6.564   3.427 -0.0060  0.0969  0.6708
 9956TIP3    H151283   0.272   6.601   3.515 -1.9431 -2.7894  2.2171
 9956TIP3    H251284   0.313   6.481   3.432 -1.4137 -0.8358 -0.4662
 9957TIP3   OH251285   4.979   1.571   5.853 -0.0176  0.3565 -0.5455
 9957TIP3    H151286   4.940   1.655   5.832 -2.0277 -0.5263 -0.6254
 9957TIP3    H251287   5.049   1.559   5.788  0.8873  2.2833  0.0001
 9958TIP3   OH251288   3.231   1.579   6.596  0.5697 -0.1343  0.0282
 9958TIP3    H151289   3.258   1.649   6.537  0.6152  0.9340  1.2676
 9958TIP3    H251290   3.135   1.579   6.590  0.5087  0.6973  0.7116
 9959TIP3   OH251291   3.702   3.781  15.133  0.4395 -0.0484  0.2247
 9959TIP3    H151292   3.700   3.754  15.042 -0.9043 -0.4356  0.3473
 9959TIP3    H251293   3.659   3.867  15.134 -1.5309 -0.9866  0.7514
 9960TIP3   OH251294   4.411   3.887  15.147 -0.2419 -0.4856 -0.2812
 9960TIP3    H151295   4.354   3.963  15.154 -1.4989 -1.3613 -0.5889
 9960TIP3    H251296   4.424   3.875  15.053  0.9579  0.0638 -0.1911
 9961TIP3   OH251297   5.888   2.013  11.356 -0.5809  0.1288 -0.4422
 9961TIP3    H151298   5.796   2.006  11.383 -0.3372 -0.2324  0.3235
 9961TIP3    H251299   5.932   2.053  11.431  0.0416 -0.4852 -0.4701
 9962TIP3   OH251300   6.367   6.301  16.280 -0.0445  0.0512  0.3181
 9962TIP3    H151301   6.415   6.293  16.198 -1.8068 -0.5761 -0.7070
 9962TIP3    H251302   6.403   6.232  16.336 -1.0408 -1.7262 -1.1264
 9963TIP3   OH251303   1.581   5.229  13.710  0.1713  0.3437 -0.1787
 9963TIP3    H151304   1.623   5.150  13.743 -2.3766 -0.6876  0.8501
 9963TIP3    H251305   1.573   5.286  13.786 -0.2978  0.5164 -0.3558
 9964TIP3   OH251306   0.866   1.803   1.756 -0.1374 -0.4738 -0.0934
 9964TIP3    H151307   0.849   1.843   1.670  2.1179  0.7196 -0.0531
 9964TIP3    H251308   0.949   1.758   1.745  0.8255  0.7399  1.7670
 9965TIP3   OH251309   3.419   5.834   2.533  0.2817 -0.4870 -0.2075
 9965TIP3    H151310   3.468   5.809   2.612 -0.3997 -1.2046  0.0038
 9965TIP3    H251311   3.342   5.881   2.566  0.3063 -0.2531 -0.4795
 9966TIP3   OH251312   2.205   5.435  14.231 -0.3098 -0.4170  0.6055
 9966TIP3    H151313   2.122   5.427  14.278  0.4734 -1.6562  1.8732
 9966TIP3    H251314   2.257   5.361  14.263  1.0498 -0.0385 -0.6453
 9967TIP3   OH251315   1.016   4.658  14.562 -0.1489  0.2412 -0.1954
 9967TIP3    H151316   0.932   4.660  14.608 -0.3594  1.2283 -0.6170
 9967TIP3    H251317   0.993   4.670  14.470  0.4121 -0.0595 -0.3753
 9968TIP3   OH251318   2.688   1.088  11.532  0.4241 -0.5759  0.2604
 9968TIP3    H151319   2.782   1.107  11.537  0.5586 -1.1920  0.1304
 9968TIP3    H251320   2.672   1.073  11.439  0.5120 -2.0062  0.4528
 9969TIP3   OH251321   6.480   1.602  15.961  0.0525  0.2908 -0.1132
 9969TIP3    H151322   6.503   1.661  15.889  1.1354 -0.8715 -0.7636
 9969TIP3    H251323   6.467   1.660  16.036  0.2471  1.4195 -0.9228
 9970TIP3   OH251324   0.807   1.178   2.880 -0.8886 -0.1852  0.1513
 9970TIP3    H151325   0.832   1.125   2.803 -3.0901  0.6210 -1.2181
 9970TIP3    H251326   0.815   1.117   2.954 -2.8589 -2.3990 -1.2916
 9971TIP3   OH251327   0.161   5.827  16.224 -0.0306 -0.2777  0.4599
 9971TIP3    H151328   0.235   5.845  16.165  1.2936  0.8314  2.3175
 9971TIP3    H251329   0.174   5.736  16.251 -1.5836 -1.3665 -2.0772
 9972TIP3   OH251330   0.378   6.001   5.313 -0.0229  0.1688  0.5583
 9972TIP3    H151331   0.415   6.048   5.387  0.5671  1.2448 -0.3748
 9972TIP3    H251332   0.289   6.036   5.305 -0.3907 -0.5859  1.2778
 9973TIP3   OH251333   4.045   2.693   5.614 -0.3837  0.0880 -0.1780
 9973TIP3    H151334   4.046   2.613   5.667 -3.1883  1.1016  1.6458
 9973TIP3    H251335   4.099   2.755   5.662  2.5825 -0.8123 -2.0710
 9974TIP3   OH251336   0.244   3.054  15.154  0.4835 -0.0592  0.0219
 9974TIP3    H151337   0.291   2.981  15.194  0.0119 -0.1369  0.4453
 9974TIP3    H251338   0.226   3.026  15.065 -1.0761 -1.1191  0.6332
 9975TIP3   OH251339   2.705   4.164  13.976 -0.5014 -0.0099  0.0294
 9975TIP3    H151340   2.767   4.115  14.031  1.9668  1.6509 -1.1099
 9975TIP3    H251341   2.732   4.145  13.887 -1.8745  0.5228 -0.5176
 9976TIP3   OH251342   3.728   2.928  16.380 -0.3705 -0.0288  0.0449
 9976TIP3    H151343   3.749   2.842  16.415 -0.1616 -0.3240 -0.7717
 9976TIP3    H251344   3.798   2.945  16.316 -1.5114 -0.1561 -1.2894
 9977TIP3   OH251345   2.648   5.774  13.863  0.0371  0.2100  0.0232
 9977TIP3    H151346   2.578   5.776  13.798 -0.2451 -0.9986  0.2626
 9977TIP3    H251347   2.604   5.758  13.947  0.6479 -1.9612  0.0017
 9978TIP3   OH251348   4.981   4.049  13.738 -0.3568  0.6602  0.0457
 9978TIP3    H151349   5.029   3.966  13.732 -0.6313  0.5493 -0.6900
 9978TIP3    H251350   4.915   4.044  13.670 -0.9639  1.1152  0.5850
 9979TIP3   OH251351   4.464   3.871   2.953  0.4276 -0.3073 -0.0114
 9979TIP3    H151352   4.465   3.861   2.858  0.3898 -1.1281  0.0676
 9979TIP3    H251353   4.382   3.919   2.970  0.6439  0.2254 -0.4152
 9980TIP3   OH251354   4.019   2.729   0.195 -0.0133  0.4577  0.3923
 9980TIP3    H151355   3.932   2.748   0.160 -0.5355 -0.7430  0.9839
 9980TIP3    H251356   4.049   2.652   0.146  0.5415  0.6079  0.4859
 9981TIP3   OH251357   2.477   2.049  13.115  0.3747 -0.0238  0.1640
 9981TIP3    H151358   2.410   2.040  13.047  0.5125 -0.8396  0.1293
 9981TIP3    H251359   2.445   1.998  13.189  1.0707 -0.6447  0.0531
 9982TIP3   OH251360   0.035   6.418  14.559 -0.0890 -0.2295 -0.3039
 9982TIP3    H151361   0.093   6.480  14.603 -1.0893 -0.1786  1.0243
 9982TIP3    H251362   0.056   6.427  14.466  1.1330  0.6849  0.0359
 9983TIP3   OH251363   2.992   1.807  16.996  0.2531 -0.0856  0.2613
 9983TIP3    H151364   3.059   1.843  17.055 -0.0572 -0.5229  0.8904
 9983TIP3    H251365   2.909   1.827  17.039 -0.0213  0.2925 -0.4314
 9984TIP3   OH251366   5.830   2.897  15.677  0.0234 -0.3307  0.4496
 9984TIP3    H151367   5.911   2.858  15.709  0.8699  0.9948  0.0229
 9984TIP3    H251368   5.842   2.902  15.582 -0.2344  0.5313  0.4475
 9985TIP3   OH251369   2.352   5.110   0.700 -0.4071  0.1878 -0.2704
 9985TIP3    H151370   2.350   5.015   0.714  0.0801 -0.0980 -1.9065
 9985TIP3    H251371   2.443   5.130   0.679 -0.5295  1.0043 -0.0658
 9986TIP3   OH251372   1.211   4.044   0.962 -0.2393 -0.2959 -0.3259
 9986TIP3    H151373   1.275   4.105   0.998 -0.1294 -0.9932  0.6926
 9986TIP3    H251374   1.175   3.999   1.038 -1.0209 -0.8214 -0.9851
 9987TIP3   OH251375   5.000   4.371   1.770 -0.1884 -0.2246 -0.2350
 9987TIP3    H151376   4.994   4.438   1.701  1.8780  0.4398  0.1726
 9987TIP3    H251377   4.939   4.302   1.741  1.3308 -0.4711 -3.2970
 9988TIP3   OH251378   5.816   5.387  16.317 -0.2025  0.2139  0.2233
 9988TIP3    H151379   5.783   5.474  16.295 -0.4640  0.3936  1.2339
 9988TIP3    H251380   5.791   5.376  16.409  2.0012  0.0911  0.8551
 9989TIP3   OH251381   3.861   5.745  10.281  0.1572 -0.0339 -0.1399
 9989TIP3    H151382   3.778   5.783  10.252 -0.6511 -0.6441  1.2800
 9989TIP3    H251383   3.909   5.817  10.321 -0.3779 -0.0033  0.4573
 9990TIP3   OH251384   0.877   1.694  14.659 -0.7934  0.0529 -0.7936
 9990TIP3    H151385   0.792   1.673  14.620 -1.1060 -0.0869 -0.0494
 9990TIP3    H251386   0.894   1.622  14.720 -0.4969  0.4687 -0.3795
 9991TIP3   OH251387   5.764   4.150   1.477 -0.1500 -0.3623 -0.2618
 9991TIP3    H151388   5.758   4.116   1.388  0.9309 -1.9083  0.2282
 9991TIP3    H251389   5.673   4.161   1.504 -0.4971 -0.3214 -1.3678
 9992TIP3   OH251390   6.484   5.133   2.778  0.4822  0.3812  0.0072
 9992TIP3    H151391   6.511   5.198   2.714  0.7145  2.3168  1.9431
 9992TIP3    H251392   6.564   5.088   2.803  0.3303 -0.6582 -1.2938
 9993TIP3   OH251393   1.053   3.624   0.863 -0.0350  0.6922 -0.9367
 9993TIP3    H151394   1.129   3.665   0.822  0.5690  0.3868 -0.1632
 9993TIP3    H251395   1.053   3.534   0.830  1.0143  0.1594  0.3988
 9994TIP3   OH251396   2.409   2.426   5.031  0.1137  0.2143 -0.7813
 9994TIP3    H151397   2.365   2.423   4.946  0.3922  0.4067 -0.9338
 9994TIP3    H251398   2.337   2.428   5.095 -0.0972 -0.2679 -0.9959
 9995TIP3   OH251399   4.006   0.903  14.697  0.0947 -0.2991  0.2083
 9995TIP3    H151400   3.979   0.812  14.706  0.2887 -0.3118  0.7162
 9995TIP3    H251401   4.059   0.920  14.775 -0.9535  0.6157  0.7525
 9996TIP3   OH251402   3.822   3.241   5.820 -0.1092 -0.0060 -0.9695
 9996TIP3    H151403   3.894   3.217   5.761 -0.7416 -0.7734 -1.4441
 9996TIP3    H251404   3.863   3.296   5.887  0.6634  0.6927 -1.9935
 9997TIP3   OH251405   2.938   3.786  16.756 -0.1981  0.3085  0.2439
 9997TIP3    H151406   2.947   3.691  16.768 -0.4132  0.4200  1.4287
 9997TIP3    H251407   2.880   3.795  16.679  0.1221 -0.5073 -0.1025
 9998TIP3   OH251408   1.130   6.165   3.182 -0.5100  0.1776  0.6846
 9998TIP3    H151409   1.096   6.124   3.261  1.2500 -1.6534  0.5688
 9998TIP3    H251410   1.212   6.206   3.209 -1.4592  2.3493  0.4478
 9999TIP3   OH251411   5.198   1.356  14.223 -0.0360 -0.0202  0.4556
 9999TIP3    H151412   5.167   1.302  14.295 -0.2685  2.2640  2.1982
 9999TIP3    H251413   5.256   1.420  14.264  0.5600  0.7971 -1.5316
10000TIP3   OH251414   4.311   0.285   5.743 -0.6403  1.0962 -0.2073
10000TIP3    H151415   4.344   0.369   5.775  1.4491  0.6974 -1.1067
10000TIP3    H251416   4.216   0.292   5.750 -0.4738  3.0978  0.7850
10001TIP3   OH251417   3.909   1.147  15.107  0.3167 -0.5570  0.6282
10001TIP3    H151418   3.847   1.173  15.039  0.5070  1.0883  1.0637
10001TIP3    H251419   3.983   1.207  15.098  0.9699 -1.2142  1.3937
10002TIP3   OH251420   4.005   2.015  12.250 -0.4634 -0.3620  0.4578
10002TIP3    H151421   4.031   1.948  12.186  1.7684  0.6998  0.1485
10002TIP3    H251422   3.944   1.970  12.309 -0.3231 -2.1794 -0.7091
10003TIP3   OH251423   5.374   3.078  15.029  0.1410 -0.0712  0.0314
10003TIP3    H151424   5.415   3.120  14.953  0.2083 -1.1316 -0.5440
10003TIP3    H251425   5.389   2.984  15.015 -0.8628 -0.3573  0.7653
10004TIP3   OH251426   2.625   0.391  13.339 -0.3917 -0.0498 -0.2596
10004TIP3    H151427   2.663   0.477  13.358  1.0824 -1.1710  2.3886
10004TIP3    H251428   2.534   0.410  13.314 -0.5126  2.2341  1.5444
10005TIP3   OH251429   1.513   4.525   5.737 -0.9651 -0.4600  0.1442
10005TIP3    H151430   1.495   4.575   5.817  0.2355 -0.9815  0.7591
10005TIP3    H251431   1.464   4.571   5.669 -1.5832  0.3052  1.0827
10006TIP3   OH251432   6.527   3.145   6.059 -0.3556 -0.4074 -0.5295
10006TIP3    H151433   6.588   3.072   6.046 -0.3745 -0.3832 -0.7647
10006TIP3    H251434   6.503   3.140   6.151  1.4354  0.6722  0.0588
10007TIP3   OH251435   2.525   3.513   4.339  0.1192 -0.6021 -0.0877
10007TIP3    H151436   2.529   3.602   4.374  0.6361 -0.9409  0.7536
10007TIP3    H251437   2.615   3.494   4.314 -0.1244 -0.6237 -0.9769
10008TIP3   OH251438   4.803   6.278   1.775 -0.0631  0.3134  0.4162
10008TIP3    H151439   4.846   6.223   1.841  0.3157  1.8229  1.4875
10008TIP3    H251440   4.729   6.225   1.745  0.7312 -1.0922  0.8118
10009TIP3   OH251441   6.294   2.709   0.021 -0.4300  0.1438 -0.0649
10009TIP3    H151442   6.329   2.740  -0.063 -1.1163 -0.2563 -0.5083
10009TIP3    H251443   6.321   2.776   0.084  2.1809 -0.7134 -0.1400
10010TIP3   OH251444   6.629   5.142   4.761 -0.0938  0.0477 -0.4850
10010TIP3    H151445   6.547   5.185   4.787  0.6550  0.7441  0.8562
10010TIP3    H251446   6.694   5.175   4.823  0.7494 -2.2175 -0.0372
10011TIP3   OH251447   0.884   3.268   1.318 -0.0501 -0.0236 -0.1358
10011TIP3    H151448   0.819   3.338   1.325 -2.6516 -2.2882  0.4461
10011TIP3    H251449   0.876   3.236   1.227  0.5074 -0.1162 -0.1588
10012TIP3   OH251450   2.053   3.024  10.815  0.4492  0.2421  0.3329
10012TIP3    H151451   2.085   2.935  10.797  0.4773  0.1552  0.8094
10012TIP3    H251452   2.107   3.055  10.887 -1.5176 -0.5019  2.2589
10013TIP3   OH251453   5.812   5.583  15.375  0.5446 -0.5629 -0.0778
10013TIP3    H151454   5.729   5.554  15.335  0.3451 -0.0136 -0.0644
10013TIP3    H251455   5.876   5.576  15.304  0.2878 -0.0526 -0.3639
10014TIP3   OH251456   1.718   4.277  17.106 -0.3188  0.7401 -0.0540
10014TIP3    H151457   1.627   4.297  17.127 -0.8525 -0.2530 -1.2930
10014TIP3    H251458   1.713   4.219  17.031  1.3522  0.6408 -0.1246
10015TIP3   OH251459   2.208   2.145  12.333  0.3982  0.3844  0.1822
10015TIP3    H151460   2.273   2.207  12.365 -1.6045  2.2868  0.8009
10015TIP3    H251461   2.184   2.093  12.410  0.9867 -0.1675  0.0028
10016TIP3   OH251462   3.778   2.748  13.170  0.6504 -0.4081 -0.3090
10016TIP3    H151463   3.718   2.674  13.161  0.8297 -0.5641 -0.2227
10016TIP3    H251464   3.863   2.713  13.145  0.4543  0.2221 -2.0325
10017TIP3   OH251465   5.152   0.373   1.796  0.3821  0.0315  0.4923
10017TIP3    H151466   5.206   0.334   1.727 -1.4884 -1.0162 -0.4635
10017TIP3    H251467   5.138   0.302   1.859 -2.2392 -0.7025 -0.7700
10018TIP3   OH251468   2.012   3.513   2.888  0.0748 -0.2523 -0.2339
10018TIP3    H151469   2.058   3.429   2.890 -0.5323 -0.5795  0.9868
10018TIP3    H251470   2.035   3.556   2.970  0.6681  0.9595 -1.0068
10019TIP3   OH251471   3.089   3.397  12.940 -0.0720  0.1436 -0.3888
10019TIP3    H151472   2.993   3.400  12.944 -0.0498  1.0215 -0.3335
10019TIP3    H251473   3.116   3.489  12.937  0.8390  0.0077  1.5832
10020TIP3   OH251474   4.976   5.132  15.678 -0.7101  0.8452 -0.2121
10020TIP3    H151475   5.026   5.127  15.597 -0.4622 -1.3426  0.0018
10020TIP3    H251476   5.014   5.205  15.726  2.6693 -0.9045  0.1025
10021TIP3   OH251477   2.480   4.876  16.911  0.0991  0.1639 -0.4725
10021TIP3    H151478   2.387   4.892  16.924  0.2907  1.9705 -1.0913
10021TIP3    H251479   2.487   4.781  16.900 -1.8760  0.1527 -2.0719
10022TIP3   OH251480   1.166   5.385   5.305 -0.1117 -0.0400  0.0261
10022TIP3    H151481   1.217   5.321   5.256 -1.8927 -0.7530 -1.0064
10022TIP3    H251482   1.087   5.398   5.252 -1.2417  0.6203  1.7722
10023TIP3   OH251483   1.455   1.041   0.429 -0.0419 -0.3639  0.2086
10023TIP3    H151484   1.397   0.965   0.434  0.8609 -1.0094  1.0696
10023TIP3    H251485   1.533   1.015   0.477  0.9841  0.4888 -0.9589
10024TIP3   OH251486   2.597   0.340  10.585  0.7152  0.6427 -0.5081
10024TIP3    H151487   2.687   0.370  10.599  0.5180 -0.0656  3.5927
10024TIP3    H251488   2.599   0.247  10.610 -1.3124  0.8988  0.8511
10025TIP3   OH251489   1.067   0.813   1.653  0.0112  0.2404 -0.2616
10025TIP3    H151490   1.034   0.775   1.734 -0.0645  1.0755  0.1016
10025TIP3    H251491   1.093   0.737   1.600  0.5104 -0.2942  0.7250
10026TIP3   OH251492   2.091   2.092  16.884 -0.1901 -0.0474  0.4361
10026TIP3    H151493   2.074   2.007  16.924 -0.1068 -0.9318 -1.3027
10026TIP3    H251494   2.023   2.101  16.816  0.4365  0.7778 -0.1090
10027TIP3   OH251495   2.208   1.214  11.914 -0.2962 -0.7246  0.1077
10027TIP3    H151496   2.198   1.143  11.977  0.2933 -0.5494  0.4063
10027TIP3    H251497   2.225   1.170  11.831 -0.9137 -0.9525  0.0987
10028TIP3   OH251498   2.576   2.923   6.072  0.1285  0.0704  0.6032
10028TIP3    H151499   2.640   2.879   6.127  1.0095 -0.0891 -0.5080
10028TIP3    H251500   2.572   3.013   6.107 -0.3500 -0.3750  1.7478
10029TIP3   OH251501   2.805   2.303  13.765  0.0044  0.0792 -0.9980
10029TIP3    H151502   2.890   2.311  13.722  0.3723 -0.4554 -0.3807
10029TIP3    H251503   2.759   2.384  13.743  2.2689  2.4437  2.1059
10030TIP3   OH251504   5.899   5.474  14.355 -0.3863 -0.1799  0.6756
10030TIP3    H151505   5.833   5.411  14.384 -0.7709 -0.1700 -0.1541
10030TIP3    H251506   5.952   5.490  14.433  1.2335 -3.3384  0.3653
10031TIP3   OH251507   3.955   6.035  11.279  0.1549 -0.0983  0.1595
10031TIP3    H151508   3.961   5.953  11.230  2.3447  0.2694 -0.3137
10031TIP3    H251509   3.887   6.085  11.234 -0.6644 -1.3297 -0.0126
10032TIP3   OH251510   3.255   4.626  13.142  0.2873  0.3857 -0.0930
10032TIP3    H151511   3.309   4.693  13.101  0.6074  0.0907 -0.1584
10032TIP3    H251512   3.307   4.597  13.217 -0.0438  0.5228  0.1903
10033TIP3   OH251513   1.818   1.797  16.819  0.1151  0.7975 -0.2523
10033TIP3    H151514   1.732   1.754  16.815 -0.1135  1.3223 -1.3333
10033TIP3    H251515   1.880   1.725  16.826 -0.4254  0.4277  1.1180
10034TIP3   OH251516   2.651   3.304  14.243 -0.1387 -0.4431  0.6921
10034TIP3    H151517   2.582   3.260  14.294 -1.0409 -1.1241 -1.0047
10034TIP3    H251518   2.612   3.315  14.156  1.7843 -0.5254 -0.2301
10035TIP3   OH251519   5.028   4.103  14.399 -0.3353  0.5161 -0.3857
10035TIP3    H151520   5.080   4.111  14.319 -1.2378 -0.2516 -1.0723
10035TIP3    H251521   5.085   4.059  14.461 -0.2776 -0.6742 -1.2597
10036TIP3   OH251522   0.129   2.909  12.981 -0.1460 -0.0410  0.0914
10036TIP3    H151523   0.107   2.964  12.905 -0.3390  0.1908  0.3089
10036TIP3    H251524   0.191   2.962  13.031 -1.0191  0.3833  0.7711
10037TIP3   OH251525   2.576   5.933  14.714 -0.7033 -0.1408  0.2312
10037TIP3    H151526   2.544   6.019  14.685  0.0687 -0.3252 -1.2698
10037TIP3    H251527   2.510   5.903  14.777 -1.2532  1.3157  0.3925
10038TIP3   OH251528   5.251   3.395  12.139  0.2457 -0.8457 -0.2165
10038TIP3    H151529   5.287   3.308  12.158  1.3633 -0.3913 -0.1736
10038TIP3    H251530   5.201   3.417  12.218  0.4558 -1.2000  0.0210
10039TIP3   OH251531   1.413   5.692  11.816 -0.2541  0.3004 -0.6848
10039TIP3    H151532   1.489   5.750  11.823 -0.8049  1.0330 -0.6490
10039TIP3    H251533   1.444   5.618  11.763  0.5687  0.4368 -0.4104
10040TIP3   OH251534   6.772   3.156   3.422 -0.0629 -0.6265  0.5695
10040TIP3    H151535   6.711   3.191   3.486  0.1863 -1.3309  1.2154
10040TIP3    H251536   6.837   3.108   3.474  0.9463 -0.0404 -0.1091
10041TIP3   OH251537   4.657   6.129   2.840 -0.1441 -0.2149 -0.0163
10041TIP3    H151538   4.637   6.195   2.907 -0.3044  0.0960 -0.3728
10041TIP3    H251539   4.700   6.059   2.889 -0.4612 -0.0875  0.4551
10042TIP3   OH251540   3.186   6.724  15.819  0.2412 -0.5463  0.2192
10042TIP3    H151541   3.093   6.744  15.805  0.5821  1.7022  0.8285
10042TIP3    H251542   3.186   6.638  15.861 -1.5794 -0.5222  0.3460
10043TIP3   OH251543   6.031   3.230   3.217  0.4175  0.0526  0.1244
10043TIP3    H151544   6.003   3.166   3.282  1.9361 -1.4769 -0.6424
10043TIP3    H251545   6.106   3.273   3.257  0.3665  0.2521  0.0077
10044TIP3   OH251546   4.196   1.886   2.772  0.2895  0.4836 -0.0768
10044TIP3    H151547   4.133   1.853   2.708  1.9749 -0.7882 -1.1538
10044TIP3    H251548   4.173   1.978   2.784 -0.7666  0.4563 -1.6361
10045TIP3   OH251549   2.919   0.823   2.111  0.3043 -0.5717  0.1051
10045TIP3    H151550   2.941   0.883   2.183  1.5639  0.6126 -1.1869
10045TIP3    H251551   2.939   0.736   2.145  0.2944 -0.0980  1.3880
10046TIP3   OH251552   4.493   0.850   4.640  0.0553 -0.3104 -0.2035
10046TIP3    H151553   4.500   0.929   4.587  1.0832  0.5505  1.1666
10046TIP3    H251554   4.434   0.874   4.712 -0.3625 -1.0853 -0.2669
10047TIP3   OH251555   6.148   6.505  14.621  0.4300  0.3479  0.4174
10047TIP3    H151556   6.116   6.429  14.573  1.0497  0.5975 -0.4081
10047TIP3    H251557   6.097   6.578  14.587 -0.0397  0.3325  1.0815
10048TIP3   OH251558   6.018   1.679  13.613 -0.1818 -0.1087 -0.0503
10048TIP3    H151559   5.971   1.711  13.690 -0.0041  0.9156 -0.3642
10048TIP3    H251560   6.004   1.584  13.615 -2.4318  0.1711 -0.2315
10049TIP3   OH251561   0.961   3.384   6.551  0.0116 -0.1600  0.3750
10049TIP3    H151562   1.025   3.330   6.597 -1.0406 -1.1974  0.6762
10049TIP3    H251563   0.930   3.446   6.617  0.0593 -0.2471  0.4805
10050TIP3   OH251564   4.079   2.446  14.443  0.5721 -0.3552  0.6691
10050TIP3    H151565   4.086   2.434  14.348  0.5172 -1.2197  0.7682
10050TIP3    H251566   4.167   2.426  14.475  0.5503 -0.2128  0.8139
10051TIP3   OH251567   6.565   6.429  11.795  0.3113  0.6271  0.0351
10051TIP3    H151568   6.627   6.502  11.794 -1.1527  1.9083 -0.1136
10051TIP3    H251569   6.575   6.388  11.709  0.9730  0.7780  0.0327
10052TIP3   OH251570   4.182   3.093   4.683 -0.2225 -0.3186  0.3505
10052TIP3    H151571   4.219   3.050   4.760  1.7198 -0.1931 -0.4616
10052TIP3    H251572   4.224   3.179   4.680  0.4635 -0.6707 -1.3460
10053TIP3   OH251573   5.327   1.189  16.921  0.0305 -0.2621 -0.3019
10053TIP3    H151574   5.305   1.150  16.836  0.0286  0.2289 -0.5260
10053TIP3    H251575   5.416   1.224  16.910  1.0642 -2.3811  0.6473
10054TIP3   OH251576   5.978   3.460   2.261 -0.4680  0.6767  0.3382
10054TIP3    H151577   6.010   3.370   2.272 -2.7065 -0.2865 -0.3529
10054TIP3    H251578   6.019   3.509   2.332  1.5937 -0.6511  0.1413
10055TIP3   OH251579   1.165   4.730   5.101  0.2602  0.0844  0.0953
10055TIP3    H151580   1.259   4.716   5.116  0.5321  1.8100  0.1862
10055TIP3    H251581   1.140   4.798   5.164 -0.6294  0.9189 -1.1078
10056TIP3   OH251582   1.657   2.664  15.380  0.1457 -0.4448  0.2903
10056TIP3    H151583   1.643   2.725  15.452 -0.4683 -0.2113 -0.0162
10056TIP3    H251584   1.650   2.718  15.301  1.7608 -0.5153  0.0640
10057TIP3   OH251585   1.513   6.507  14.046  0.0487 -0.5571 -0.5285
10057TIP3    H151586   1.449   6.518  13.976 -0.2709 -3.0667 -0.7152
10057TIP3    H251587   1.479   6.560  14.118 -1.7739 -1.1356 -0.9101
10058TIP3   OH251588   5.017   3.897  12.076 -0.2366 -0.4726  0.3430
10058TIP3    H151589   4.973   3.817  12.048 -1.7919  0.4768 -0.0859
10058TIP3    H251590   4.968   3.967  12.034  0.2207  0.7863  1.7990
10059TIP3   OH251591   1.516   0.615  15.313 -0.7441 -0.0363 -0.1291
10059TIP3    H151592   1.511   0.534  15.363  0.0305  0.6100  1.0431
10059TIP3    H251593   1.521   0.684  15.380 -1.6845  1.0037 -1.0922
10060TIP3   OH251594   0.667   1.450  15.442  0.4468  0.2684  0.1143
10060TIP3    H151595   0.585   1.489  15.411  1.7686  1.8808 -1.5775
10060TIP3    H251596   0.650   1.428  15.534 -0.7855  3.9632  0.9504
10061TIP3   OH251597   6.462   4.737   1.107  0.2715 -0.7080 -0.1421
10061TIP3    H151598   6.375   4.771   1.126  0.0959 -1.2542  0.0408
10061TIP3    H251599   6.521   4.810   1.128 -0.1936 -0.0514 -1.0687
10062TIP3   OH251600   1.387   2.732  12.677  0.0763  0.2256  0.2881
10062TIP3    H151601   1.346   2.648  12.660  1.6716 -0.8660  1.5770
10062TIP3    H251602   1.412   2.765  12.590  0.0925 -0.9867 -0.1863
10063TIP3   OH251603   6.319   4.177  17.260  0.0320 -0.6914  0.3462
10063TIP3    H151604   6.323   4.209  17.170 -0.2226  4.7190  1.8755
10063TIP3    H251605   6.225   4.173  17.280  0.0977 -0.4125  0.7347
10064TIP3   OH251606   2.489   4.313  15.057  0.0093  0.4174  0.1538
10064TIP3    H151607   2.429   4.282  15.125  1.3672  1.3163  1.8457
10064TIP3    H251608   2.484   4.409  15.064 -1.0020  0.5901 -2.1347
10065TIP3   OH251609   5.683   2.970  12.361  0.3206 -0.2162  0.1078
10065TIP3    H151610   5.703   3.063  12.372 -4.1627  0.6631  3.8087
10065TIP3    H251611   5.714   2.929  12.442  2.2351 -2.1350 -1.4674
10066TIP3   OH251612   4.427   1.440  10.590 -0.4638  0.5041 -0.1000
10066TIP3    H151613   4.385   1.510  10.540 -2.2104 -0.8149 -0.5803
10066TIP3    H251614   4.354   1.388  10.625  0.7147 -2.0189 -1.1469
10067TIP3   OH251615   3.715   0.512   5.659  0.3223 -0.0290 -0.8699
10067TIP3    H151616   3.624   0.488   5.677  0.2365  0.3838 -0.7561
10067TIP3    H251617   3.767   0.448   5.708  0.0995 -0.4350 -1.1504
10068TIP3   OH251618   5.574   6.236   3.144  0.2804 -0.0548  0.0600
10068TIP3    H151619   5.617   6.151   3.141 -0.2981 -0.3351 -0.6168
10068TIP3    H251620   5.591   6.275   3.058  1.2698  0.8962  0.6580
10069TIP3   OH251621   2.011   0.692  11.723 -0.1932  0.2648 -0.6087
10069TIP3    H151622   2.027   0.771  11.774  2.0813 -1.1365  1.0443
10069TIP3    H251623   1.936   0.650  11.766 -0.9432  1.1345 -1.0474
10070TIP3   OH251624   0.836   3.923  14.004  0.5187  0.4470  0.1912
10070TIP3    H151625   0.863   3.945  14.093  0.7087 -0.0777  0.2627
10070TIP3    H251626   0.830   3.828  14.002  0.6013  0.4451 -0.3773
10071TIP3   OH251627   2.943   1.400   2.821 -0.0225  0.2025  0.7915
10071TIP3    H151628   2.914   1.310   2.810 -1.2319  0.5777  0.6912
10071TIP3    H251629   2.967   1.428   2.733 -0.2676  0.1713  0.7131
10072TIP3   OH251630   6.106   0.783  15.668  0.6165 -0.1972  0.3271
10072TIP3    H151631   6.115   0.693  15.699  0.2397 -0.7223 -1.0019
10072TIP3    H251632   6.174   0.793  15.601  0.5300  0.4424  0.3202
10073TIP3   OH251633   4.685   0.287   4.600  0.2805 -0.1032  0.0781
10073TIP3    H151634   4.745   0.216   4.623  0.2414  0.2203  1.2430
10073TIP3    H251635   4.742   0.364   4.592  0.1588 -0.0174  0.0391
10074TIP3   OH251636   2.693   5.314  11.613 -0.4141  0.2426  0.4633
10074TIP3    H151637   2.735   5.264  11.683 -0.3440 -1.7291 -0.9074
10074TIP3    H251638   2.679   5.401  11.651  0.5111 -0.4558  2.5689
10075TIP3   OH251639   4.154   1.227  17.239  0.1693 -0.1637 -0.0609
10075TIP3    H151640   4.130   1.155  17.298 -1.3157  0.2259 -0.1374
10075TIP3    H251641   4.072   1.251  17.197  0.5978  1.6705  0.0656
10076TIP3   OH251642   4.320   6.399   3.727  0.1011 -0.0873  0.2199
10076TIP3    H151643   4.360   6.314   3.712 -1.4158 -0.3586 -2.9249
10076TIP3    H251644   4.230   6.390   3.696 -0.4177  2.3716  0.7597
10077TIP3   OH251645   4.058   2.566  11.383  0.3066  0.4636 -0.0073
10077TIP3    H151646   4.095   2.577  11.296  0.2583 -0.0665 -0.0965
10077TIP3    H251647   4.037   2.473  11.389  1.0586  0.3360  0.8715
10078TIP3   OH251648   6.492   4.299  14.596  0.0938  0.0491  0.0714
10078TIP3    H151649   6.543   4.249  14.533 -0.8634 -0.5230 -0.2674
10078TIP3    H251650   6.447   4.233  14.648  0.4071  0.5281  0.9728
10079TIP3   OH251651   2.951   1.890  15.668  0.1505 -0.0494  0.1739
10079TIP3    H151652   2.921   1.814  15.718 -0.9085  0.1450 -0.1361
10079TIP3    H251653   2.918   1.875  15.579 -1.0318  1.2636  0.3462
10080TIP3   OH251654   6.323   0.923   4.427  0.5368  0.2026  0.0352
10080TIP3    H151655   6.253   0.982   4.400  1.6323  1.0536 -1.0655
10080TIP3    H251656   6.301   0.839   4.389 -0.6641  0.0465  1.0005
10081TIP3   OH251657   1.025   5.699   4.244 -0.1908  0.3699 -0.4915
10081TIP3    H151658   1.115   5.720   4.220 -0.8436  0.4090 -3.2474
10081TIP3    H251659   1.018   5.605   4.230 -0.9013  0.5711 -1.6091
10082TIP3   OH251660   3.876   1.568   1.937  0.2783 -0.3689  0.1277
10082TIP3    H151661   3.815   1.560   2.010  0.4579  1.4678  0.5400
10082TIP3    H251662   3.963   1.565   1.976  0.3744  0.8452  0.0752
10083TIP3   OH251663   1.539   3.843   5.743 -0.5226  0.3249  0.2598
10083TIP3    H151664   1.579   3.842   5.656 -1.4765  0.8329 -0.2017
10083TIP3    H251665   1.595   3.901   5.794 -0.3383  0.5680 -0.2079
10084TIP3   OH251666   3.457   4.979  14.536 -0.4957 -0.5522 -0.3147
10084TIP3    H151667   3.475   4.891  14.504  1.4784 -0.5028  0.5400
10084TIP3    H251668   3.472   5.037  14.461  0.9635 -0.7147 -0.1655
10085TIP3   OH251669   6.078   2.625  13.873  0.0035 -0.2837  0.1071
10085TIP3    H151670   6.172   2.607  13.866 -0.0852 -0.5132 -0.6165
10085TIP3    H251671   6.051   2.578  13.952  0.6537  0.4850  0.8016
10086TIP3   OH251672   0.097   0.058   1.626 -0.3480  0.2155  0.0123
10086TIP3    H151673   0.191   0.053   1.611 -0.2069 -1.1883  1.1531
10086TIP3    H251674   0.060   0.081   1.540  1.0260  0.9128 -0.4141
10087TIP3   OH251675   1.780   6.405   5.057 -0.0987  0.1902  0.5157
10087TIP3    H151676   1.817   6.324   5.020  0.1907  0.2477  0.6799
10087TIP3    H251677   1.849   6.439   5.113 -1.0019 -0.5621  2.1369
10088TIP3   OH251678   4.109   2.771   6.048 -0.0226 -0.0069 -0.2011
10088TIP3    H151679   4.138   2.686   6.016  0.2240  0.7108 -1.9461
10088TIP3    H251680   4.040   2.749   6.112  0.0753 -1.5003 -0.5584
10089TIP3   OH251681   0.356   0.212   2.230  1.3993  0.0752  0.0723
10089TIP3    H151682   0.406   0.255   2.161 -1.8824  2.9943 -0.8123
10089TIP3    H251683   0.351   0.277   2.301 -2.1344  0.6709 -0.5075
10090TIP3   OH251684   3.675   1.288   4.663  0.7512 -0.0487 -0.1568
10090TIP3    H151685   3.659   1.240   4.581 -1.6796  1.8561 -0.9063
10090TIP3    H251686   3.620   1.244   4.728  0.6218  0.0495 -0.1985
10091TIP3   OH251687   6.669   2.724  10.602 -0.0679  0.3009  0.3336
10091TIP3    H151688   6.639   2.642  10.562  0.2337 -0.4787  1.6579
10091TIP3    H251689   6.688   2.701  10.693  0.1299  1.8250  0.7027
10092TIP3   OH251690   1.398   5.435   4.933 -0.4486  0.0429 -0.0716
10092TIP3    H151691   1.448   5.509   4.969  0.1958 -0.4210  0.0018
10092TIP3    H251692   1.435   5.422   4.845  0.0724 -0.7712  0.2592
10093TIP3   OH251693   3.770   0.665  11.404  0.5048 -0.5049 -0.2774
10093TIP3    H151694   3.738   0.590  11.353 -0.4237 -0.4620  0.2239
10093TIP3    H251695   3.698   0.728  11.400  1.2538  0.3380 -0.6382
10094TIP3   OH251696   0.662   0.830   0.215 -0.5591  0.2037 -0.3129
10094TIP3    H151697   0.714   0.780   0.278 -1.2225  0.0918  0.1571
10094TIP3    H251698   0.587   0.862   0.266 -2.2508 -1.6757 -1.4912
10095TIP3   OH251699   2.123   4.755   5.250  0.2295 -0.0774 -0.0351
10095TIP3    H151700   2.109   4.695   5.324 -0.6252 -1.4640 -1.2668
10095TIP3    H251701   2.209   4.794   5.267  1.1613 -2.1831  0.4878
10096TIP3   OH251702   3.471   1.579   2.917 -0.0447 -0.0737  0.4787
10096TIP3    H151703   3.475   1.544   3.006  1.3293 -1.2356 -0.0029
10096TIP3    H251704   3.399   1.643   2.920 -0.3856 -0.4727  2.2653
10097TIP3   OH251705   3.660   2.505   4.617 -0.3747  0.4003  0.3415
10097TIP3    H151706   3.633   2.553   4.696 -0.1477  0.2803  0.4919
10097TIP3    H251707   3.600   2.430   4.614  1.4174 -1.1938  1.9985
10098TIP3   OH251708   2.542   4.077  14.220  0.5389 -0.0245 -0.0656
10098TIP3    H151709   2.583   4.073  14.133 -1.2698  0.9899 -1.0224
10098TIP3    H251710   2.574   3.998  14.264  0.5738 -1.2360 -2.0895
10099TIP3   OH251711   5.081   2.416   0.032 -0.2394  0.1433  0.0437
10099TIP3    H151712   5.026   2.348   0.072  1.1472  0.2169  2.2610
10099TIP3    H251713   5.081   2.395  -0.061 -1.5030 -1.6864  0.4046
10100TIP3   OH251714   2.449   0.667  13.207 -0.2503 -0.0357  0.5474
10100TIP3    H151715   2.451   0.658  13.302 -0.0803  2.9357  0.9193
10100TIP3    H251716   2.382   0.733  13.190  2.5322  2.7096 -0.9254
10101TIP3   OH251717   2.387   3.617  16.144 -0.0211 -0.7298  0.3398
10101TIP3    H151718   2.371   3.531  16.105 -0.1849 -0.3908 -0.3452
10101TIP3    H251719   2.481   3.618  16.160 -0.1283 -1.3351  1.0771
10102TIP3   OH251720   1.737   1.565  15.070  0.6190 -0.3880  0.0145
10102TIP3    H151721   1.642   1.575  15.071  0.4116 -1.3094 -2.4871
10102TIP3    H251722   1.751   1.471  15.064  1.8202 -0.4406  2.5283
10103TIP3   OH251723   1.066   1.378  16.277  0.1111 -0.1880 -0.3279
10103TIP3    H151724   1.155   1.402  16.249  0.0451  0.3077 -0.1222
10103TIP3    H251725   1.014   1.457  16.259 -0.3723 -0.6130 -0.8223
10104TIP3   OH251726   1.641   3.955   0.262  0.3361  0.1719  0.5225
10104TIP3    H151727   1.687   3.907   0.331 -0.4996 -0.5724  0.5880
10104TIP3    H251728   1.611   3.887   0.202 -0.4222  0.6579  0.3426
10105TIP3   OH251729   1.396   3.113  13.057  0.0394  0.3338 -0.1725
10105TIP3    H151730   1.351   3.152  13.131 -1.5813  2.5187 -2.1592
10105TIP3    H251731   1.350   3.031  13.040 -1.1610  1.0017 -0.2101
10106TIP3   OH251732   4.683   1.595   1.766  0.0089  0.4861 -0.3652
10106TIP3    H151733   4.611   1.560   1.818  0.0956 -0.0956 -0.6240
10106TIP3    H251734   4.678   1.690   1.778  1.2414  0.3075  2.3164
10107TIP3   OH251735   5.028   0.010  13.118  0.1335  0.0616 -0.3071
10107TIP3    H151736   5.004   0.053  13.200  1.0885  0.5719 -0.2846
10107TIP3    H251737   5.043   0.082  13.057  0.8202 -0.2681 -0.5343
10108TIP3   OH251738   0.424   3.260  15.164 -0.6129 -0.1105 -0.4374
10108TIP3    H151739   0.342   3.218  15.140 -0.4245 -0.4303 -0.5230
10108TIP3    H251740   0.442   3.229  15.252 -0.0515 -0.8719 -0.8052
10109TIP3   OH251741   6.188   0.855  13.708 -0.3908 -0.5261  0.5440
10109TIP3    H151742   6.241   0.857  13.628 -1.2949  1.0211 -0.0512
10109TIP3    H251743   6.178   0.947  13.732 -0.5922 -0.9469  2.1430
10110TIP3   OH251744   1.038   3.408  10.918 -0.2035 -0.0203 -0.5934
10110TIP3    H151745   1.034   3.453  10.833  0.7891 -0.1572 -0.7194
10110TIP3    H251746   0.946   3.402  10.945 -0.3701  2.0764 -0.5591
10111TIP3   OH251747   6.397   1.545   3.017 -0.0062 -0.3974 -0.2190
10111TIP3    H151748   6.450   1.465   3.013 -0.3938 -0.9358  2.6411
10111TIP3    H251749   6.459   1.614   3.038  0.0534 -0.3527 -0.5474
10112TIP3   OH251750   3.758   4.819  15.048  0.6453  0.0572 -0.3735
10112TIP3    H151751   3.832   4.878  15.034  0.7763  0.1962  0.8057
10112TIP3    H251752   3.710   4.858  15.121 -0.9646  0.3176 -1.4877
10113TIP3   OH251753   2.156   6.021   0.477  0.4439 -0.0364 -0.3293
10113TIP3    H151754   2.076   6.066   0.504  0.1240 -0.0765 -1.1848
10113TIP3    H251755   2.200   6.000   0.559  0.0248  0.7981  0.1252
10114TIP3   OH251756   5.776   0.806   0.715  0.0935  0.1247  0.1549
10114TIP3    H151757   5.722   0.777   0.788  0.6825  1.7251  1.2715
10114TIP3    H251758   5.794   0.898   0.732  0.8252  0.3763 -1.6634
10115TIP3   OH251759   0.021   2.489   6.829  0.1159 -0.5070  0.3180
10115TIP3    H151760   0.110   2.518   6.850  0.7777 -1.6724 -0.7598
10115TIP3    H251761  -0.014   2.557   6.772  1.0297 -0.9297 -0.7882
10116TIP3   OH251762   5.463   5.526   5.799  0.3515 -0.2614 -0.1725
10116TIP3    H151763   5.461   5.577   5.880 -0.5654 -1.1114  0.3618
10116TIP3    H251764   5.379   5.481   5.797  0.7201 -0.9387 -1.1499
10117TIP3   OH251765   0.730   5.716   5.168  0.3029  0.6415 -0.3398
10117TIP3    H151766   0.705   5.624   5.163 -1.4638  1.0666 -0.0135
10117TIP3    H251767   0.825   5.715   5.175  0.2796 -1.1659  0.0728
10118TIP3   OH251768   1.886   2.791   2.602  0.7199  0.5425 -0.3698
10118TIP3    H151769   1.815   2.840   2.644 -1.7350  0.4193 -3.9537
10118TIP3    H251770   1.859   2.700   2.609  1.3714  0.3444 -0.3910
10119TIP3   OH251771   3.613   6.360  15.345 -0.1594 -0.1222 -0.3280
10119TIP3    H151772   3.578   6.274  15.325  1.5532 -0.9135 -0.1789
10119TIP3    H251773   3.624   6.403  15.260 -2.3442  0.5437 -0.3115
10120TIP3   OH251774   4.806   6.527   5.836 -0.0255  0.1078  0.6283
10120TIP3    H151775   4.769   6.583   5.768  0.5876  1.8261  1.6372
10120TIP3    H251776   4.841   6.588   5.900  1.8207 -1.4562  1.1893
10121TIP3   OH251777   3.939   3.634   4.157 -0.3471  0.0790 -0.1290
10121TIP3    H151778   3.936   3.655   4.063  0.9830  0.8820 -0.0061
10121TIP3    H251779   3.859   3.583   4.172 -1.4877  1.4070 -1.3339
10122TIP3   OH251780   2.059   5.390   5.896  0.0342  0.2784 -0.3188
10122TIP3    H151781   1.980   5.372   5.844 -0.5730 -0.3480  0.7848
10122TIP3    H251782   2.063   5.318   5.959  1.8299 -0.0252 -0.7328
10123TIP3   OH251783   0.242   5.001   2.877 -0.5169  0.4472 -0.1963
10123TIP3    H151784   0.246   4.909   2.852  0.7833  1.1886 -3.1909
10123TIP3    H251785   0.333   5.030   2.877 -0.9222  1.8207  0.4492
10124TIP3   OH251786   1.716   1.434   0.928 -0.0595 -0.1552  0.8307
10124TIP3    H151787   1.798   1.386   0.942 -0.2260 -0.2967  1.3477
10124TIP3    H251788   1.702   1.432   0.833  1.9484  2.1848  0.3910
10125TIP3   OH251789   5.892   1.941  15.346 -0.4559  0.0370 -0.2574
10125TIP3    H151790   5.892   1.926  15.440  1.1629 -0.2520 -0.2644
10125TIP3    H251791   5.855   2.028  15.335 -0.5313  0.1283  0.6593
10126TIP3   OH251792   5.180   1.413   0.741  0.2857  0.4414  0.0852
10126TIP3    H151793   5.136   1.381   0.663 -0.0801  0.0301  0.4530
10126TIP3    H251794   5.240   1.481   0.709  0.3541  0.0782 -0.5830
10127TIP3   OH251795   4.915   1.498   4.929  0.1024 -0.5423  0.2816
10127TIP3    H151796   4.999   1.475   4.969 -0.1181 -0.4696  0.8084
10127TIP3    H251797   4.934   1.574   4.875  0.3058 -0.2820  0.7089
10128TIP3   OH251798   4.006   6.491  15.285  0.1663 -0.0763  0.3238
10128TIP3    H151799   3.994   6.578  15.248  2.5464  0.5362  0.8480
10128TIP3    H251800   4.087   6.458  15.246  1.0160 -0.7189  2.4795
10129TIP3   OH251801   5.491   1.342  15.553  0.4059 -1.2018 -0.2723
10129TIP3    H151802   5.480   1.367  15.461 -0.3948 -0.8106 -0.0838
10129TIP3    H251803   5.586   1.347  15.568  0.4430 -0.0085 -0.7429
10130TIP3   OH251804   6.168   1.360  13.060  0.8963 -0.7937 -0.2798
10130TIP3    H151805   6.250   1.409  13.060  0.9008 -0.7998 -0.5616
10130TIP3    H251806   6.136   1.365  12.970  0.0848  0.0381  0.0355
10131TIP3   OH251807   2.451   0.986  15.506 -0.3134 -0.0402 -0.1680
10131TIP3    H151808   2.388   1.008  15.575  3.2434 -1.9285  4.1887
10131TIP3    H251809   2.448   0.891  15.501  0.4449  0.0005 -1.7544
10132TIP3   OH251810   3.080   4.303  15.559  0.7754  0.4171 -0.0789
10132TIP3    H151811   3.134   4.295  15.637 -0.1623  1.4152  0.6998
10132TIP3    H251812   3.058   4.396  15.553  0.1017  0.2245 -1.0264
10133TIP3   OH251813   4.440   2.003  14.623  0.7373 -0.6950 -0.3383
10133TIP3    H151814   4.391   2.016  14.542  0.1700 -0.9087 -0.0356
10133TIP3    H251815   4.521   1.959  14.596  0.3608 -1.1460 -0.7417
10134TIP3   OH251816   5.664   2.608  14.422 -0.0660 -0.1468  0.3157
10134TIP3    H151817   5.571   2.603  14.442  0.2041  0.3438  1.8222
10134TIP3    H251818   5.669   2.602  14.327 -1.7411  1.1144  0.1123
10135TIP3   OH251819   2.642   2.664  17.167 -0.1142  0.5254  0.3139
10135TIP3    H151820   2.671   2.739  17.115 -0.5735 -0.1606 -0.9707
10135TIP3    H251821   2.562   2.634  17.123  0.2901 -0.9690  0.5532
10136TIP3   OH251822   3.438   3.939   3.844 -0.0235 -0.3164  0.0293
10136TIP3    H151823   3.500   3.993   3.892  1.5820 -0.1086 -2.0923
10136TIP3    H251824   3.472   3.850   3.852  1.1701 -0.0963 -1.8575
10137TIP3   OH251825   6.488   2.051   4.574 -0.2163  0.2092  0.2380
10137TIP3    H151826   6.464   1.960   4.560 -0.6129  0.3827 -0.1984
10137TIP3    H251827   6.575   2.059   4.535 -0.4048  0.1492 -0.2000
10138TIP3   OH251828   1.781   4.345  11.653  0.0138 -0.2687 -0.0693
10138TIP3    H151829   1.774   4.271  11.712  0.3745 -1.7319 -1.7660
10138TIP3    H251830   1.826   4.310  11.576  1.5853  2.0915 -0.3426
10139TIP3   OH251831   1.727   6.597  13.554  0.1004 -0.5061  0.0623
10139TIP3    H151832   1.678   6.523  13.588 -0.8025  0.3333  0.6533
10139TIP3    H251833   1.690   6.614  13.468  1.3552 -1.6771 -0.7499
10140TIP3   OH251834   1.038   1.549   3.682  0.4092  0.2548 -0.2103
10140TIP3    H151835   1.066   1.464   3.716  1.4005 -0.2701 -2.2238
10140TIP3    H251836   0.974   1.527   3.615  0.2990  1.1380 -0.3984
10141TIP3   OH251837   4.269   0.614   4.727 -0.7143  0.0459 -0.0166
10141TIP3    H151838   4.327   0.542   4.706 -0.3608 -0.5883  2.7146
10141TIP3    H251839   4.327   0.688   4.747 -0.9004 -0.0293  0.8410
10142TIP3   OH251840   0.728   4.671  17.016  0.2115 -0.2936 -0.3612
10142TIP3    H151841   0.731   4.765  17.028  1.7318 -0.2754 -0.6916
10142TIP3    H251842   0.635   4.649  17.018 -0.3311  1.5104 -2.4609
10143TIP3   OH251843   5.664   2.915   6.611  0.7053 -0.2628  0.0176
10143TIP3    H151844   5.754   2.937   6.585  0.4088 -1.1045 -1.9568
10143TIP3    H251845   5.669   2.901   6.705  2.9160 -1.4202 -0.1935
10144TIP3   OH251846   0.564   6.295  11.390 -0.0667  0.1790  0.2649
10144TIP3    H151847   0.538   6.269  11.478 -2.5563  0.4962 -0.2865
10144TIP3    H251848   0.584   6.388  11.397 -1.3036  0.4614  0.3451
10145TIP3   OH251849   4.201   2.143   3.007  0.2501 -0.2647  0.6071
10145TIP3    H151850   4.159   2.226   2.985  0.6862  0.0399  0.8901
10145TIP3    H251851   4.140   2.099   3.066  0.9801  0.8645  2.2826
10146TIP3   OH251852   1.466   5.079  15.180 -0.2811  0.1312  0.5688
10146TIP3    H151853   1.489   5.000  15.132 -0.7792  0.3199 -0.0059
10146TIP3    H251854   1.440   5.048  15.266 -0.0076 -0.2824  0.5051
10147TIP3   OH251855   6.462   0.080  13.650 -0.4801  0.6977 -0.1562
10147TIP3    H151856   6.481   0.000  13.700 -1.5962  1.1251  1.0182
10147TIP3    H251857   6.495   0.062  13.562  0.3034 -0.6170  0.3719
10148TIP3   OH251858   0.321   6.227  16.788  0.5743  0.2956 -0.3122
10148TIP3    H151859   0.290   6.223  16.698  1.2829  3.1253 -0.7692
10148TIP3    H251860   0.416   6.234  16.781  0.7612 -0.7549  0.7516
10149TIP3   OH251861   5.692   6.738   5.681  0.5698  0.3867 -0.4074
10149TIP3    H151862   5.718   6.687   5.757  0.9349  0.6628 -0.3441
10149TIP3    H251863   5.713   6.829   5.705  0.4612  0.5009 -0.7407
10150TIP3   OH251864   4.706   4.942  14.768  0.2681 -0.0699 -0.4265
10150TIP3    H151865   4.686   4.993  14.689  2.0840 -0.3011 -1.0993
10150TIP3    H251866   4.802   4.943  14.773  0.2242 -0.7297  1.3551
10151TIP3   OH251867   3.047   3.619   3.068  0.0382  0.0439  0.5971
10151TIP3    H151868   3.085   3.536   3.098 -2.4669 -0.0421  4.3161
10151TIP3    H251869   3.115   3.684   3.085  1.0680 -0.9153  0.2524
10152TIP3   OH251870   2.618   6.086  14.181 -0.6485  0.7725 -0.3274
10152TIP3    H151871   2.624   5.991  14.174  1.3554  0.4751  2.9819
10152TIP3    H251872   2.532   6.102  14.221 -0.3256  0.1332  0.6722
10153TIP3   OH251873   2.284   1.185   1.161 -0.1046 -0.1630 -0.9602
10153TIP3    H151874   2.256   1.152   1.076 -2.4517  0.1651 -0.3679
10153TIP3    H251875   2.265   1.279   1.158  0.4010 -0.0317 -0.2999
10154TIP3   OH251876   1.636   4.410  13.300  0.1033  0.3887 -0.0128
10154TIP3    H151877   1.628   4.399  13.205 -1.4276  0.2400  0.1089
10154TIP3    H251878   1.659   4.323  13.333 -1.3828 -0.0540 -0.0750
10155TIP3   OH251879   2.641   2.524  12.932  0.5763  0.2072  0.5691
10155TIP3    H151880   2.685   2.439  12.933  0.2369  0.0320  0.7080
10155TIP3    H251881   2.550   2.504  12.913  0.2916  0.4354  1.6158
10156TIP3   OH251882   5.893   1.912  13.472 -0.3204 -0.0112  0.2372
10156TIP3    H151883   5.888   1.968  13.550  0.5491 -0.6287  0.7459
10156TIP3    H251884   5.943   1.836  13.500 -0.3340 -0.4263 -0.8271
10157TIP3   OH251885   3.124   1.625  17.278  0.3935 -0.5257 -0.5217
10157TIP3    H151886   3.111   1.597  17.368 -0.3689 -2.7770 -1.2594
10157TIP3    H251887   3.173   1.707  17.285  0.2422 -0.5747  1.9139
10158TIP3   OH251888   4.405   2.174  15.177  0.6648  0.0729  0.1178
10158TIP3    H151889   4.456   2.142  15.252 -0.2248 -1.6360  0.0557
10158TIP3    H251890   4.466   2.167  15.103  1.2137  0.7599  0.4928
10159TIP3   OH251891   4.732   1.231   5.556 -0.2971  0.1425 -0.0950
10159TIP3    H151892   4.827   1.241   5.558 -0.2220 -0.5268  1.3822
10159TIP3    H251893   4.699   1.316   5.583 -0.0691  0.0562  0.4752
10160TIP3   OH251894   5.167   5.189   3.183 -0.0583  0.0771 -0.8062
10160TIP3    H151895   5.134   5.109   3.142  0.0838 -0.6332  0.4273
10160TIP3    H251896   5.193   5.244   3.109 -1.0211 -0.6333 -1.7057
10161TIP3   OH251897   2.394   2.183   3.614 -0.3543  0.3683  0.1227
10161TIP3    H151898   2.321   2.210   3.560  0.0802  0.4352 -0.4407
10161TIP3    H251899   2.455   2.141   3.553 -0.1405 -0.1254  0.6604
10162TIP3   OH251900   6.273   6.175  13.706 -0.2549 -0.0703 -0.1884
10162TIP3    H151901   6.342   6.181  13.639  0.9780 -0.4350  1.0016
10162TIP3    H251902   6.192   6.173  13.656  0.6435 -0.7269 -1.7026
10163TIP3   OH251903   1.805   1.633   3.052 -0.2088  0.5781  0.4013
10163TIP3    H151904   1.721   1.664   3.085 -0.3329  0.8495 -0.1532
10163TIP3    H251905   1.867   1.704   3.070 -0.6397  1.5143 -1.5213
10164TIP3   OH251906   0.956   1.830  16.113 -0.1109  0.1564 -0.2941
10164TIP3    H151907   0.904   1.805  16.036 -1.8210  0.1825  0.8033
10164TIP3    H251908   0.898   1.886  16.164  0.9773  0.1133  1.0370
10165TIP3   OH251909   2.677   3.218   1.343  0.1787 -0.1717 -0.0271
10165TIP3    H151910   2.624   3.254   1.271 -0.3648  0.2222  0.5578
10165TIP3    H251911   2.723   3.294   1.379 -0.4158 -0.1604  0.7463
10166TIP3   OH251912   3.025   1.306   0.933  0.0177  0.3803 -0.3431
10166TIP3    H151913   3.042   1.331   1.024  0.9974 -0.2631 -0.3394
10166TIP3    H251914   3.106   1.326   0.886 -0.5585  0.9208 -1.1319
10167TIP3   OH251915   4.045   1.620  11.101 -0.1802  0.2388  0.1248
10167TIP3    H151916   3.953   1.594  11.098 -0.0494 -0.2463  0.1198
10167TIP3    H251917   4.076   1.610  11.011 -0.0037 -0.0623  0.2168
10168TIP3   OH251918   1.565   3.313   3.538 -0.0913  0.0376  0.0159
10168TIP3    H151919   1.556   3.393   3.589  1.3225 -1.5802  3.1005
10168TIP3    H251920   1.636   3.330   3.477  0.3584  1.0680  0.8084
10169TIP3   OH251921   0.926   5.305   5.179 -0.1971  0.2339  0.5087
10169TIP3    H151922   0.963   5.297   5.091 -0.7652 -0.4296  0.3232
10169TIP3    H251923   0.841   5.346   5.166 -0.1004  0.5307  0.7986
10170TIP3   OH251924   4.341   5.400  14.026  0.1311 -0.4815  0.3015
10170TIP3    H151925   4.261   5.418  14.075 -0.1419  0.2854 -0.4127
10170TIP3    H251926   4.325   5.436  13.939  1.5761  0.4510  0.3913
10171TIP3   OH251927   2.979   0.905   0.265  0.4059  0.4302 -0.1357
10171TIP3    H151928   2.986   0.910   0.361 -0.3839  0.4561 -0.0702
10171TIP3    H251929   3.036   0.833   0.240 -0.8708 -0.8541  0.5522
10172TIP3   OH251930   2.576   5.843  15.388 -0.1266  0.1129  0.3329
10172TIP3    H151931   2.653   5.791  15.412 -1.2264 -1.3120  0.8250
10172TIP3    H251932   2.581   5.920  15.445  1.0250  0.1484  0.2163
10173TIP3   OH251933   2.227   4.040   0.761 -0.4710  0.2331 -0.0929
10173TIP3    H151934   2.264   4.083   0.838  1.2306 -0.9089 -0.2042
10173TIP3    H251935   2.242   4.101   0.689 -1.6022  1.0806  0.3571
10174TIP3   OH251936   6.646   1.236   2.105  0.0756  0.2120 -0.1626
10174TIP3    H151937   6.662   1.245   2.199  0.1411  0.4066 -0.1920
10174TIP3    H251938   6.674   1.147   2.084 -1.6270 -0.4862  0.3555
10175TIP3   OH251939   0.660   1.309   2.644  0.2024  0.0838  0.3972
10175TIP3    H151940   0.642   1.400   2.622  0.5085  0.2964  1.0038
10175TIP3    H251941   0.755   1.304   2.649  0.1769 -0.2173  0.5805
10176TIP3   OH251942   6.486   3.325   0.338 -0.2560  0.0947 -0.3218
10176TIP3    H151943   6.406   3.351   0.292 -0.7793 -2.0063 -0.7231
10176TIP3    H251944   6.513   3.403   0.386 -4.1549  0.1920  2.1588
10177TIP3   OH251945   2.875   3.100  16.919  0.3734  0.2059  0.2788
10177TIP3    H151946   2.832   3.024  16.957  1.0813 -0.0344  0.6198
10177TIP3    H251947   2.937   3.064  16.856 -1.2430  0.6260 -1.6273
10178TIP3   OH251948   6.693   6.472   5.218 -0.2155 -0.2453 -0.3431
10178TIP3    H151949   6.704   6.536   5.288 -4.1365 -0.0308  0.3065
10178TIP3    H251950   6.689   6.524   5.138  1.2046 -0.1880 -0.3926
10179TIP3   OH251951   5.407   2.172  14.115 -0.1652 -0.4887  0.2529
10179TIP3    H151952   5.486   2.225  14.126 -0.8404  0.4333  0.8074
10179TIP3    H251953   5.425   2.092  14.165 -0.0339  0.2245  1.3988
10180TIP3   OH251954   3.895   2.434   1.396  0.2081  0.0205  0.1362
10180TIP3    H151955   3.809   2.412   1.360  0.8052 -0.5933 -0.9796
10180TIP3    H251956   3.957   2.407   1.328  1.3523 -0.5291  1.3503
10181TIP3   OH251957   2.943   2.725   6.571 -0.3025  0.1338  0.4909
10181TIP3    H151958   2.914   2.722   6.480 -2.5217  1.0173  1.0912
10181TIP3    H251959   2.866   2.755   6.619  1.4504  1.8664  2.3888
10182TIP3   OH251960   5.733   3.613  11.983 -0.0615 -0.3546  0.7636
10182TIP3    H151961   5.796   3.684  11.980  1.4340 -1.6593  0.0511
10182TIP3    H251962   5.662   3.641  11.925  1.7229 -0.5126 -1.6075
10183TIP3   OH251963   1.210   2.780  13.548 -0.3235  0.5313  0.0101
10183TIP3    H151964   1.192   2.701  13.600 -0.6704  0.5411 -0.0905
10183TIP3    H251965   1.290   2.816  13.586 -1.5924  1.5994  1.8207
10184TIP3   OH251966   2.744   4.509  16.358  0.2077  0.4966 -0.2907
10184TIP3    H151967   2.809   4.526  16.426 -0.2341 -0.2329  0.3322
10184TIP3    H251968   2.709   4.596  16.335  0.0552  0.7157  0.7303
10185TIP3   OH251969   6.101   5.339  13.613  0.1068 -0.0105  0.0960
10185TIP3    H151970   6.107   5.423  13.659  0.4196  0.1027 -0.1502
10185TIP3    H251971   6.126   5.274  13.679 -1.7204 -0.0811  0.7835
10186TIP3   OH251972   2.448   4.128  13.286 -0.7498  0.6287 -0.1774
10186TIP3    H151973   2.356   4.111  13.268 -0.6326  0.9518 -1.1537
10186TIP3    H251974   2.490   4.126  13.200  0.2745 -0.2098  0.3092
10187TIP3   OH251975   2.901   6.177   4.345 -0.1341  0.0688  0.4422
10187TIP3    H151976   2.909   6.184   4.250 -0.4962  2.6854  0.5129
10187TIP3    H251977   2.980   6.131   4.373 -0.1114 -0.9019 -1.1176
10188TIP3   OH251978   4.274   1.885   0.967 -0.2754  0.0558 -0.2299
10188TIP3    H151979   4.343   1.821   0.982 -0.3645 -0.1690 -0.7592
10188TIP3    H251980   4.193   1.839   0.990 -0.2589  0.3029  0.3429
10189TIP3   OH251981   0.672   0.992   5.686 -0.3178  0.1199  0.2140
10189TIP3    H151982   0.714   1.033   5.762 -0.0386  0.0380  0.1056
10189TIP3    H251983   0.693   1.050   5.613 -0.8746  0.3786  0.2590
10190TIP3   OH251984   4.140   0.677   5.946  0.5842 -0.2176 -0.6587
10190TIP3    H151985   4.093   0.663   5.864  0.0609  2.0566 -0.8362
10190TIP3    H251986   4.074   0.664   6.014  1.0136 -2.0844 -0.5577
10191TIP3   OH251987   4.910   1.540   6.234 -0.4007  0.1004  0.3248
10191TIP3    H151988   4.872   1.622   6.266 -1.2783 -0.5571  1.0088
10191TIP3    H251989   4.868   1.472   6.286 -0.1037 -0.8356 -0.6220
10192TIP3   OH251990   5.916   3.857  13.582  0.4074 -0.1113 -0.1771
10192TIP3    H151991   5.988   3.841  13.642  0.5597  1.5157  0.1234
10192TIP3    H251992   5.933   3.944  13.546 -1.1026  0.0679 -0.5426
10193TIP3   OH251993   3.140   6.238  15.852 -0.2616  0.1334  0.6769
10193TIP3    H151994   3.147   6.236  15.757 -0.7667 -0.6868  0.6529
10193TIP3    H251995   3.159   6.329  15.875 -0.1523  0.3410 -0.2034
10194TIP3   OH251996   2.576   5.471  13.966 -0.3308 -0.1757  0.6536
10194TIP3    H151997   2.607   5.448  13.878  0.3010 -0.9848  1.0691
10194TIP3    H251998   2.485   5.444  13.968 -0.5394  0.4472  0.0417
10195TIP3   OH251999   4.704   2.899   4.913  0.7578 -0.0557 -0.0026
10195TIP3    H152000   4.633   2.906   4.976  0.9976  0.3313  0.2245
10195TIP3    H252001   4.782   2.931   4.959  1.1776 -0.8920 -0.1017
10196TIP3   OH252002   0.602   5.931  16.441  0.2976  0.2476  0.5617
10196TIP3    H152003   0.567   5.847  16.471 -0.9095  0.1108 -1.0813
10196TIP3    H252004   0.529   5.972  16.394  1.2724  1.6259  0.1834
10197TIP3   OH252005   0.944   0.177   0.433 -0.4123  0.2531 -0.1441
10197TIP3    H152006   0.989   0.094   0.423  0.7133  0.9879 -1.7126
10197TIP3    H252007   0.859   0.164   0.390  0.0514  0.1106 -1.0450
10198TIP3   OH252008   5.947   0.794   2.560 -0.0328  0.2250 -0.1756
10198TIP3    H152009   5.892   0.807   2.638 -1.8006  1.3725 -1.5277
10198TIP3    H252010   5.988   0.879   2.545  0.2005  0.0490 -0.5522
10199TIP3   OH252011   4.082   3.824  12.210  0.0922 -0.5326  0.2464
10199TIP3    H152012   4.108   3.740  12.248  0.1547 -1.1836 -1.1813
10199TIP3    H252013   4.114   3.820  12.120 -0.2833  0.8588  0.0353
10200TIP3   OH252014   3.084   1.821   5.655  0.3846  0.4677  0.4022
10200TIP3    H152015   2.996   1.840   5.621  0.4949  1.0065  0.4088
10200TIP3    H252016   3.068   1.764   5.730 -0.0397  1.4465  1.0779
10201TIP3   OH252017   5.146   4.111  14.148  0.1913  0.5539 -0.4407
10201TIP3    H152018   5.166   4.196  14.109  1.1818 -1.2488 -4.4108
10201TIP3    H252019   5.229   4.062  14.143 -0.8036 -1.2632 -0.1048
10202TIP3   OH252020   4.639   4.239   0.618 -0.5175 -0.3458  0.6229
10202TIP3    H152021   4.684   4.223   0.535  1.6507 -1.3387  1.9082
10202TIP3    H252022   4.565   4.179   0.617 -0.8712  0.0820 -0.8233
10203TIP3   OH252023   6.322   4.503  15.200  0.0658 -0.5973 -0.2174
10203TIP3    H152024   6.362   4.431  15.248  1.2747 -0.8300 -1.5173
10203TIP3    H252025   6.330   4.478  15.108 -2.0700 -0.1094 -0.5933
10204TIP3   OH252026   6.206   5.279   5.639  0.2376  0.3006 -0.1533
10204TIP3    H152027   6.228   5.372   5.630  0.4089  0.5684  2.1843
10204TIP3    H252028   6.118   5.271   5.604  0.0130  1.4819  0.1013
10205TIP3   OH252029   2.449   5.604  14.305  0.4881  0.6774  0.2329
10205TIP3    H152030   2.440   5.557  14.388 -2.1985  1.5499  0.5169
10205TIP3    H252031   2.431   5.538  14.238 -1.5067  0.8355  0.5576
10206TIP3   OH252032   4.601   1.111   2.240  0.4499  0.4211 -0.7782
10206TIP3    H152033   4.514   1.073   2.250  0.5723  0.5362  0.9615
10206TIP3    H252034   4.659   1.052   2.290  0.7972  2.2887  1.1487
10207TIP3   OH252035   6.385   6.727  17.212 -0.3094 -0.1406 -0.3829
10207TIP3    H152036   6.371   6.794  17.279  0.3058  0.1657 -0.5432
10207TIP3    H252037   6.298   6.709  17.177 -0.4259  1.0507 -0.7700
10208TIP3   OH252038   0.601   0.633   5.013  0.0195  0.1860 -0.1940
10208TIP3    H152039   0.655   0.586   4.949  1.1656 -0.4698  1.1778
10208TIP3    H252040   0.518   0.649   4.968  0.4085 -1.1557 -1.4823
10209TIP3   OH252041   3.764   0.771  13.147  1.2217  0.1050  0.1229
10209TIP3    H152042   3.838   0.813  13.191  2.5724 -0.3374 -1.6442
10209TIP3    H252043   3.726   0.839  13.092  0.1771  0.3684  1.1209
10210TIP3   OH252044   3.707   4.197  16.875 -0.3289  0.4283 -0.0510
10210TIP3    H152045   3.690   4.274  16.820  2.3131  0.6164 -0.7248
10210TIP3    H252046   3.758   4.138  16.819 -0.2352 -0.7526  1.2257
10211TIP3   OH252047   5.493   4.582   4.068 -0.3373 -0.2868 -0.0016
10211TIP3    H152048   5.569   4.551   4.019 -0.8764  0.9967 -1.7662
10211TIP3    H252049   5.441   4.503   4.085  0.2618 -0.8786 -0.8491
10212TIP3   OH252050   3.279   4.047  12.920  0.7347  0.4931  0.1592
10212TIP3    H152051   3.307   3.963  12.956 -1.4144  0.1213  1.1020
10212TIP3    H252052   3.184   4.044  12.922  0.5643  2.0172 -2.0515
10213TIP3   OH252053   2.493   4.940   3.665 -0.2404 -0.5402  0.2227
10213TIP3    H152054   2.432   4.896   3.724 -0.8985 -1.0180 -0.7854
10213TIP3    H252055   2.567   4.880   3.657 -0.5841 -0.9141 -0.1839
10214TIP3   OH252056   4.427   6.169   2.668  0.9068  0.7146 -0.1138
10214TIP3    H152057   4.509   6.137   2.632  0.0377 -2.4026  0.3702
10214TIP3    H252058   4.447   6.188   2.760  1.5629  2.1517 -0.5336
10215TIP3   OH252059   2.896   2.172  15.336  0.1174 -0.2688 -0.1264
10215TIP3    H152060   2.912   2.222  15.416  1.0477 -1.2406  0.3133
10215TIP3    H252061   2.963   2.204  15.275 -0.2843  0.1280 -0.3618
10216TIP3   OH252062   1.638   1.141  12.328 -0.2469 -0.0426 -0.0954
10216TIP3    H152063   1.564   1.202  12.340 -0.5078 -0.6396  1.7935
10216TIP3    H252064   1.679   1.138  12.415  0.2852 -1.8766 -0.3845
10217TIP3   OH252065   2.556   5.585   5.701  0.1490 -0.2439 -0.1089
10217TIP3    H152066   2.651   5.575   5.697  0.1902 -0.1256  0.5577
10217TIP3    H252067   2.542   5.668   5.746 -0.2797 -1.0628  1.3119
10218TIP3   OH252068   0.736   5.518   3.056  0.2502  0.0864  0.2330
10218TIP3    H152069   0.675   5.535   2.984 -0.7830 -3.8638 -0.0624
10218TIP3    H252070   0.684   5.530   3.135  0.2142  0.4575  0.1555
10219TIP3   OH252071   2.489   0.367   1.891 -0.1954  0.1630 -0.0408
10219TIP3    H152072   2.581   0.343   1.876 -0.6004 -0.8247 -1.0011
10219TIP3    H252073   2.466   0.321   1.972  0.5330  1.5179  0.9810
10220TIP3   OH252074   0.619   6.290  16.460 -0.5304  0.0281 -0.4802
10220TIP3    H152075   0.548   6.255  16.407 -0.5447  0.2478 -0.6019
10220TIP3    H252076   0.590   6.278  16.550  0.6385 -2.9077 -0.3769
10221TIP3   OH252077   4.714   6.768  11.685  0.2471 -0.4104  0.0476
10221TIP3    H152078   4.717   6.674  11.699 -0.6521 -0.5915 -0.7964
10221TIP3    H252079   4.761   6.781  11.602 -1.9253 -0.5070 -1.2955
10222TIP3   OH252080   4.467   4.444  13.978 -0.3627 -0.0714  0.6244
10222TIP3    H152081   4.489   4.352  13.993 -0.0184  0.0016  0.5825
10222TIP3    H252082   4.448   4.479  14.065 -1.2729 -0.3760  0.5511
10223TIP3   OH252083   4.264   1.803   0.595  0.0999 -0.1473 -0.0786
10223TIP3    H152084   4.260   1.891   0.631 -0.5467 -0.5621  0.9131
10223TIP3    H252085   4.270   1.746   0.672 -1.7336 -1.0930 -0.5793
10224TIP3   OH252086   5.474   3.746  13.628  0.2929  0.6574 -0.4055
10224TIP3    H152087   5.555   3.787  13.655  0.1780  2.9133 -3.1266
10224TIP3    H252088   5.442   3.799  13.555 -3.7035 -0.0376  0.5708
10225TIP3   OH252089   0.992   0.557   2.852 -0.0323 -0.4519 -0.4232
10225TIP3    H152090   1.087   0.573   2.846 -0.2694  0.6042 -1.6391
10225TIP3    H252091   0.956   0.641   2.881 -0.6050 -0.8749  0.1087
10226TIP3   OH252092   1.292   3.949   0.083 -0.3248  0.0796  0.0768
10226TIP3    H152093   1.325   3.996   0.159 -0.1806  1.0646 -0.5807
10226TIP3    H252094   1.369   3.907   0.045 -0.5150 -1.0637  0.8921
10227TIP3   OH252095   3.664   5.877   3.705 -0.0583 -0.6641 -0.3366
10227TIP3    H152096   3.664   5.969   3.679  1.3252 -0.5178  0.1235
10227TIP3    H252097   3.669   5.829   3.622 -0.7277 -0.3389 -0.5742
10228TIP3   OH252098   2.865   1.013  14.795 -0.1689  0.2976 -0.5324
10228TIP3    H152099   2.831   0.960  14.867 -2.0891 -0.5374 -1.9589
10228TIP3    H252100   2.815   1.094  14.799  0.6009  0.7540 -0.1788
10229TIP3   OH252101   0.605   6.595   1.203 -0.4806  0.1677  0.5865
10229TIP3    H152102   0.658   6.590   1.282  0.7367  0.4227 -0.1789
10229TIP3    H252103   0.523   6.551   1.225  0.3332 -0.8961  1.5772
10230TIP3   OH252104   3.017   1.879  11.181  0.4183 -0.0282 -0.5473
10230TIP3    H152105   3.085   1.819  11.154  1.4127 -0.3426  2.2994
10230TIP3    H252106   2.955   1.825  11.230  0.2676  0.9092  0.3384
10231TIP3   OH252107   3.535   1.757  12.777 -0.7614 -0.1452 -0.4936
10231TIP3    H152108   3.468   1.703  12.735 -0.9920 -0.3293  0.1004
10231TIP3    H252109   3.555   1.825  12.713 -1.1156 -0.4133 -0.8928
10232TIP3   OH252110   6.411   5.409  13.536  0.0140  0.0649  0.1805
10232TIP3    H152111   6.486   5.372  13.490  0.3571  0.4685  0.4030
10232TIP3    H252112   6.339   5.349  13.518 -0.0342  0.5653 -1.4305
10233TIP3   OH252113   2.815   0.422  16.354  0.0329 -0.0070  0.3377
10233TIP3    H152114   2.760   0.448  16.280  0.1827 -2.4949 -0.7496
10233TIP3    H252115   2.905   0.435  16.322  0.0977 -1.0511  0.0678
10234TIP3   OH252116   2.430   5.038  14.347 -0.3280 -0.2908  0.3841
10234TIP3    H152117   2.436   4.994  14.262 -2.0685  0.5028 -0.2002
10234TIP3    H252118   2.343   5.017  14.379  0.0175  0.0737  1.6364
10235TIP3   OH252119   1.192   3.000  12.160  0.1937 -0.9312  1.0921
10235TIP3    H152120   1.163   3.076  12.111 -1.9745 -0.9011  2.3114
10235TIP3    H252121   1.248   3.035  12.230  1.7750 -0.8128 -0.1773
10236TIP3   OH252122   1.876   4.866   1.133  0.7599 -0.1588  0.3106
10236TIP3    H152123   1.849   4.792   1.078  1.4297 -1.1345  1.2512
10236TIP3    H252124   1.862   4.834   1.223  2.0523  0.4686  0.7438
10237TIP3   OH252125   4.106   3.805   2.531  0.2868  0.6972  0.0892
10237TIP3    H152126   4.154   3.755   2.465 -2.0561 -1.5989 -0.0239
10237TIP3    H252127   4.017   3.812   2.496 -0.1305  2.6135  1.3980
10238TIP3   OH252128   2.207   2.783  15.771  0.1645 -0.1757  0.3897
10238TIP3    H152129   2.136   2.806  15.710 -0.4393 -1.3667  0.6162
10238TIP3    H252130   2.286   2.819  15.730 -0.1784 -1.1841 -1.2487
10239TIP3   OH252131   5.592   5.042   5.767  0.5455 -0.0996 -0.1441
10239TIP3    H152132   5.647   5.107   5.810  2.7938 -2.1473  0.3555
10239TIP3    H252133   5.505   5.054   5.805  1.1008  1.9296  0.6152
10240TIP3   OH252134   6.482   6.590  13.751 -0.4673 -0.1601 -0.3288
10240TIP3    H152135   6.409   6.529  13.762  0.6575 -1.4075  0.5238
10240TIP3    H252136   6.531   6.583  13.833  0.0985  1.3702 -0.5035
10241TIP3   OH252137   3.074   4.784   4.195  0.0076  0.2643  0.3196
10241TIP3    H152138   3.068   4.742   4.281 -0.1339 -1.1012 -0.3329
10241TIP3    H252139   3.013   4.734   4.140 -0.6697  1.7490 -0.3423
10242TIP3   OH252140   0.144   3.350  13.953  0.4657  0.1667 -0.0045
10242TIP3    H152141   0.217   3.348  13.891  0.4941  0.5342  0.0147
10242TIP3    H252142   0.183   3.325  14.037  0.6377  0.6836  0.0713
10243TIP3   OH252143   2.567   2.316   6.324  0.1342 -0.0333 -0.3369
10243TIP3    H152144   2.530   2.240   6.280 -0.8883  0.4171 -0.2907
10243TIP3    H252145   2.515   2.325   6.405 -1.1583  1.8739 -1.2899
10244TIP3   OH252146   1.193   0.897  13.345 -0.5638  0.2209  0.4707
10244TIP3    H152147   1.212   0.983  13.382 -0.7271  1.1359 -1.4361
10244TIP3    H252148   1.266   0.880  13.285 -2.0709  0.5428 -1.5714
10245TIP3   OH252149   5.794   2.666   6.360  0.3543  0.1035 -0.5638
10245TIP3    H152150   5.711   2.678   6.406 -0.4495 -0.0957 -1.9313
10245TIP3    H252151   5.805   2.572   6.353 -0.1745  0.1201 -1.8791
10246TIP3   OH252152   2.212   5.874   3.034  0.1038  0.1636 -0.2561
10246TIP3    H152153   2.259   5.791   3.043 -0.7327 -0.2103  0.9482
10246TIP3    H252154   2.266   5.937   3.083  0.2257  0.1152 -0.3277
10247TIP3   OH252155   5.892   3.892   0.157  0.4406  0.2286 -0.3014
10247TIP3    H152156   5.891   3.837   0.235  2.2704 -0.2060 -0.5398
10247TIP3    H252157   5.851   3.839   0.089  1.7611 -0.6822 -0.4107
10248TIP3   OH252158   3.343   0.497  12.364  0.3902 -0.2648 -0.1836
10248TIP3    H152159   3.420   0.510  12.308  0.9140 -1.9722  0.0791
10248TIP3    H252160   3.321   0.585  12.394 -0.4386  0.8954 -3.6852
10249TIP3   OH252161   1.416   5.814   3.346 -0.0987 -0.5653 -0.6085
10249TIP3    H152162   1.463   5.737   3.313  0.6864 -1.6281  2.6299
10249TIP3    H252163   1.353   5.779   3.409 -0.2898  1.4004  0.3704
10250TIP3   OH252164   3.753   2.465  12.569  0.5756  0.7866 -0.2377
10250TIP3    H152165   3.761   2.389  12.511  2.1014  1.4986 -1.0313
10250TIP3    H252166   3.809   2.444  12.644  0.6307  0.9285 -0.2391
10251TIP3   OH252167   2.970   4.142  15.305 -0.0560 -0.2480  0.6122
10251TIP3    H152168   3.051   4.173  15.346  0.7734  0.8715 -1.6765
10251TIP3    H252169   2.906   4.211  15.324  0.1019 -0.1174  0.6721
10252TIP3   OH252170   0.114   0.632   2.973 -0.2517  0.1806  0.0910
10252TIP3    H152171   0.158   0.702   3.020  0.0602  1.3248 -1.8133
10252TIP3    H252172   0.182   0.591   2.920 -1.2047  1.4923 -2.3206
10253TIP3   OH252173   1.521   4.927  14.244  0.4752 -0.2380 -0.3811
10253TIP3    H152174   1.568   4.888  14.319  0.8587 -0.6326 -0.8214
10253TIP3    H252175   1.433   4.890  14.249  0.1608  0.5816  0.5124
10254TIP3   OH252176   4.491   3.438   0.068 -0.3641  0.0598 -0.2801
10254TIP3    H152177   4.413   3.467   0.021  0.4132  0.6731 -1.2310
10254TIP3    H252178   4.476   3.345   0.086 -1.8703  0.4482  0.7237
10255TIP3   OH252179   2.275   1.602   4.635 -0.1015  0.9689  0.2242
10255TIP3    H152180   2.358   1.649   4.636 -0.0340  0.8876  1.9370
10255TIP3    H252181   2.213   1.661   4.680 -1.3525  1.6114 -2.1869
10256TIP3   OH252182   1.674   5.844  12.124 -0.0419  0.0446  0.1232
10256TIP3    H152183   1.764   5.830  12.096 -0.5668 -1.2251 -1.1203
10256TIP3    H252184   1.646   5.758  12.156 -1.2805 -0.0372 -1.0725
10257TIP3   OH252185   5.873   6.331   3.759  0.0772  0.5936  0.3503
10257TIP3    H152186   5.901   6.341   3.668 -0.6209  0.3042  0.0969
10257TIP3    H252187   5.953   6.309   3.807  0.7795  2.4200  0.1026
10258TIP3   OH252188   2.661   6.042   5.759  0.1574  0.0029 -0.0270
10258TIP3    H152189   2.723   6.023   5.829  0.5247  0.0550 -0.3348
10258TIP3    H252190   2.592   5.976   5.770 -0.3266  0.6658  1.0176
10259TIP3   OH252191   3.238   2.081  16.836 -0.2642 -0.2973 -0.2271
10259TIP3    H152192   3.236   2.004  16.781 -0.1413 -1.0126  0.7377
10259TIP3    H252193   3.173   2.140  16.798 -1.3741 -1.4454 -0.1715
10260TIP3   OH252194   3.368   4.750  12.027 -0.5877 -0.3743  0.1034
10260TIP3    H152195   3.341   4.798  12.105 -0.0577 -0.3240  0.2536
10260TIP3    H252196   3.457   4.720  12.045 -0.2258  0.1534 -0.7141
10261TIP3   OH252197   6.281   6.550  16.679 -0.0681  0.4370 -0.1812
10261TIP3    H152198   6.215   6.556  16.610 -0.9616 -1.9778  0.3764
10261TIP3    H252199   6.234   6.574  16.759 -1.3308 -4.1667  0.7186
10262TIP3   OH252200   6.731   2.314   3.847  0.3922  0.1356 -0.5265
10262TIP3    H152201   6.751   2.355   3.931  1.2945 -0.0833 -0.6251
10262TIP3    H252202   6.637   2.298   3.849 -0.0943  2.6244 -0.6556
10263TIP3   OH252203   0.257   5.499  10.534 -0.2714  0.2270  0.2156
10263TIP3    H152204   0.299   5.519  10.618 -3.3612  1.6170  1.5813
10263TIP3    H252205   0.254   5.404  10.531  0.9072  0.1317  1.0939
10264TIP3   OH252206   6.212   0.872  14.982 -0.6689 -0.5228  0.4825
10264TIP3    H152207   6.150   0.920  15.036  1.1312  1.3972  0.9977
10264TIP3    H252208   6.171   0.867  14.896 -1.1586  1.5621  0.5559
10265TIP3   OH252209   4.156   4.246   5.138  0.0538 -0.0525 -0.2123
10265TIP3    H152210   4.171   4.310   5.068  0.6863 -0.2248 -0.2355
10265TIP3    H252211   4.094   4.290   5.196  0.1999  0.4413 -0.4204
10266TIP3   OH252212   2.201   3.591   3.117  0.1176  0.2987 -0.1963
10266TIP3    H152213   2.142   3.649   3.165 -0.9735  0.3199 -1.4959
10266TIP3    H252214   2.273   3.648   3.088 -0.4799  0.8154 -0.6861
10267TIP3   OH252215   2.748   5.298   6.001 -0.1055  0.3040  0.3801
10267TIP3    H152216   2.781   5.387   5.991 -0.4325  0.5131  1.0429
10267TIP3    H252217   2.784   5.268   6.085  1.1016 -0.6985 -0.4661
10268TIP3   OH252218   0.165   1.121  11.866  0.3717  0.3228  1.1264
10268TIP3    H152219   0.094   1.078  11.912 -0.5206 -0.2715 -0.7322
10268TIP3    H252220   0.123   1.190  11.815  1.2672  0.6971  0.8615
10269TIP3   OH252221   2.547   4.018  11.570  0.1911  0.0824  0.2501
10269TIP3    H152222   2.550   4.046  11.479  0.3275 -1.1610 -0.1437
10269TIP3    H252223   2.455   4.000  11.587  0.5473 -3.4539 -0.8814
10270TIP3   OH252224   5.640   4.406  16.430  0.3172  0.0268 -0.1119
10270TIP3    H152225   5.604   4.401  16.342  1.1066 -0.1452 -0.4387
10270TIP3    H252226   5.726   4.448  16.418  1.0713 -1.3193  0.3731
10271TIP3   OH252227   5.190   0.096  10.700 -0.4600  0.6743  0.6207
10271TIP3    H152228   5.247   0.058  10.767  3.7385  1.6069 -2.0201
10271TIP3    H252229   5.214   0.189  10.698 -2.0884  1.1148 -0.6951
10272TIP3   OH252230   6.047   6.469  14.892  0.2383 -0.3606  0.7133
10272TIP3    H152231   6.064   6.378  14.915  0.2104 -0.2988  0.9890
10272TIP3    H252232   6.103   6.486  14.816  0.8612 -0.3698  1.1647
10273TIP3   OH252233   2.011   2.020  15.183 -0.1823  0.3557 -0.2632
10273TIP3    H152234   2.065   1.945  15.207  3.0212  2.1508 -1.2503
10273TIP3    H252235   1.937   2.017  15.243  0.4437 -2.8778  0.4924
10274TIP3   OH252236   5.775   1.946   3.738  0.0333  0.3334  0.5318
10274TIP3    H152237   5.800   1.856   3.718  0.1607  0.2445  1.0713
10274TIP3    H252238   5.823   1.968   3.818 -0.4406  0.6810  0.7314
10275TIP3   OH252239   4.691   3.131   3.028  0.5884 -0.0313  0.5848
10275TIP3    H152240   4.636   3.123   2.949  1.9570  1.5156 -0.5855
10275TIP3    H252241   4.728   3.044   3.040  1.0153 -0.1037 -1.0148
10276TIP3   OH252242   4.944   6.268  11.142  0.6775 -0.0480  0.3186
10276TIP3    H152243   4.903   6.260  11.056  0.4738  1.1427  0.2854
10276TIP3    H252244   4.962   6.178  11.169  1.2967 -0.4194 -1.2387
10277TIP3   OH252245   2.461   5.534   1.425 -0.2053 -0.1409  0.3314
10277TIP3    H152246   2.401   5.487   1.483  0.3044 -0.9080  0.2442
10277TIP3    H252247   2.435   5.626   1.434 -0.1816 -0.2475  1.7164
10278TIP3   OH252248   2.394   4.595   3.172 -0.3306  0.0085 -0.4501
10278TIP3    H152249   2.347   4.629   3.248 -3.0877  0.9997 -2.4190
10278TIP3    H252250   2.482   4.629   3.181  0.2472 -1.9591  3.4921
10279TIP3   OH252251   4.829   0.258   1.987  0.5236 -0.0427  0.2700
10279TIP3    H152252   4.921   0.234   1.974  0.5782 -0.3532  1.1681
10279TIP3    H252253   4.789   0.181   2.026 -0.7066 -0.8060 -2.2924
10280TIP3   OH252254   3.374   5.759   4.152 -0.4353  0.2427  0.5082
10280TIP3    H152255   3.391   5.792   4.064  0.3614  0.6124  0.7864
10280TIP3    H252256   3.414   5.825   4.210 -2.4032  0.8841  1.2070
10281TIP3   OH252257   2.722   3.154   0.464 -0.4657 -0.1108 -0.0792
10281TIP3    H152258   2.760   3.193   0.543  2.1335 -3.0508  0.3442
10281TIP3    H252259   2.660   3.089   0.497 -0.5330 -0.2667 -0.5151
10282TIP3   OH252260   5.621   3.645  11.204 -0.0463  0.2875 -0.6861
10282TIP3    H152261   5.577   3.562  11.186  0.6457  0.2372 -2.2788
10282TIP3    H252262   5.616   3.694  11.122  1.5344  0.9037 -0.4571
10283TIP3   OH252263   3.430   5.361  10.639 -0.0100  0.1105  0.5044
10283TIP3    H152264   3.491   5.363  10.712  0.9843  0.3307 -0.3216
10283TIP3    H252265   3.415   5.453  10.617  0.2227  0.0344  0.0079
10284TIP3   OH252266   3.034   0.446  17.228  0.5121 -0.0855  0.1772
10284TIP3    H152267   2.979   0.425  17.304 -3.0308  0.6302 -1.9768
10284TIP3    H252268   3.021   0.373  17.168  0.5019  0.9553 -1.1180
10285TIP3   OH252269   4.918   6.687   3.791 -0.6176 -0.8044  0.4886
10285TIP3    H152270   4.982   6.753   3.763 -1.4649  0.1615  0.8081
10285TIP3    H252271   4.915   6.696   3.887 -0.9006 -1.1608  0.5137
10286TIP3   OH252272   4.910   5.296  12.650  0.5559 -0.4148  0.0146
10286TIP3    H152273   4.907   5.387  12.620  0.0941 -0.6368 -0.6421
10286TIP3    H252274   4.867   5.247  12.580  1.4793 -1.2360 -0.0017
10287TIP3   OH252275   3.948   2.018  15.075  0.0640 -0.0664 -0.2563
10287TIP3    H152276   3.889   2.088  15.104 -0.1981 -0.3089 -0.1997
10287TIP3    H252277   3.933   1.947  15.138  0.9307  0.1234  0.1937
10288TIP3   OH252278   0.415   4.151   5.080 -0.5540 -0.0402  0.0675
10288TIP3    H152279   0.422   4.215   5.010  0.5770 -1.5975 -1.3320
10288TIP3    H252280   0.504   4.141   5.113 -0.7744 -0.6080  0.5207
10289TIP3   OH252281   1.509   5.205  13.058 -0.0612  0.5714  0.3811
10289TIP3    H152282   1.552   5.236  12.978 -3.0401  0.1223 -1.5478
10289TIP3    H252283   1.422   5.246  13.055 -0.0511  1.0920  3.8183
10290TIP3   OH252284   4.796   4.267  12.890  0.4540 -0.4880 -0.3208
10290TIP3    H152285   4.854   4.198  12.857  0.4485 -0.2700 -0.8022
10290TIP3    H252286   4.709   4.228  12.889  0.4973 -0.5850 -0.2737
10291TIP3   OH252287   3.260   0.762   3.675 -0.3318  0.0369  0.0030
10291TIP3    H152288   3.288   0.752   3.584  0.6067  0.0172  0.2751
10291TIP3    H252289   3.204   0.686   3.692  0.0607 -0.3365 -0.3590
10292TIP3   OH252290   4.909   6.491  15.125 -0.3702  0.4926 -0.2125
10292TIP3    H152291   4.992   6.504  15.080 -0.6178  0.4590 -0.6880
10292TIP3    H252292   4.895   6.573  15.173 -1.4213  1.6784 -2.3817
10293TIP3   OH252293   4.287   1.734   5.071 -0.1405  0.1781 -0.7775
10293TIP3    H152294   4.283   1.641   5.048 -0.0227 -1.0404  3.4132
10293TIP3    H252295   4.201   1.753   5.107 -0.5233  2.1172 -2.5243
10294TIP3   OH252296   1.623   4.700  16.976  0.1709 -0.2088 -0.2893
10294TIP3    H152297   1.615   4.623  16.920 -0.9225  1.6323 -2.9087
10294TIP3    H252298   1.534   4.719  17.004  0.4000  0.2198  0.1706
10295TIP3   OH252299   4.909   4.166  11.575  0.3720 -0.6726 -0.1264
10295TIP3    H152300   4.907   4.224  11.650 -1.2760  0.4551 -0.9786
10295TIP3    H252301   4.907   4.225  11.499  3.0126 -1.7270 -1.1221
10296TIP3   OH252302   0.342   4.142   3.826 -0.1337  0.4290 -0.0622
10296TIP3    H152303   0.372   4.228   3.857  1.5149 -0.2428  0.3163
10296TIP3    H252304   0.415   4.110   3.773 -1.1963 -0.2707 -1.1338
10297TIP3   OH252305   4.262   5.878   6.075 -0.0916 -0.5589 -0.1041
10297TIP3    H152306   4.281   5.971   6.087 -0.2918 -0.1433 -2.4121
10297TIP3    H252307   4.242   5.845   6.162  1.0620  1.3068  0.9300
10298TIP3   OH252308   2.326   1.811   3.897  0.1123 -0.1109 -0.6089
10298TIP3    H152309   2.380   1.737   3.926  0.8526  0.3996 -0.6560
10298TIP3    H252310   2.247   1.806   3.952  0.4239 -0.5802 -0.1928
10299TIP3   OH252311   4.381   0.113  16.422 -0.1124 -0.6633  0.4805
10299TIP3    H152312   4.443   0.144  16.488 -0.2243 -0.7609  0.6299
10299TIP3    H252313   4.364   0.022  16.446 -2.4251  0.0931  2.0643
10300TIP3   OH252314   3.937   4.982   3.057  0.3477 -0.5617  0.4453
10300TIP3    H152315   3.874   4.993   3.128  1.7201 -1.3477  1.8640
10300TIP3    H252316   3.923   4.893   3.025 -0.3227 -0.1800 -0.3376
10301TIP3   OH252317   5.168   0.818  16.572 -0.1548 -0.0889  1.1573
10301TIP3    H152318   5.193   0.745  16.628  3.9953 -0.5430 -0.9647
10301TIP3    H252319   5.214   0.893  16.609 -1.2815  0.6564  1.0930
10302TIP3   OH252320   2.002   1.383   2.855  0.1059  0.5170 -0.0588
10302TIP3    H152321   2.002   1.296   2.815 -2.1537  0.1157  0.6825
10302TIP3    H252322   1.999   1.443   2.780  0.6810 -0.0488 -0.5561
10303TIP3   OH252323   1.775   4.112  11.792  0.0750 -0.2381  0.7129
10303TIP3    H152324   1.826   4.074  11.721 -1.5654  0.0220 -0.6789
10303TIP3    H252325   1.696   4.058  11.797 -0.6296  0.7895  1.1496
10304TIP3   OH252326   3.153   0.411   4.169 -0.2658  0.2108  0.3950
10304TIP3    H152327   3.156   0.503   4.195  1.7261  0.3940 -0.3173
10304TIP3    H252328   3.243   0.390   4.144 -0.8604 -1.6855 -0.3395
10305TIP3   OH252329   2.905   4.268  11.804  0.0317  0.2601  0.0077
10305TIP3    H152330   2.868   4.183  11.830 -0.2054  0.2380 -0.3872
10305TIP3    H252331   2.835   4.310  11.754  0.7237 -0.0204 -1.2599
10306TIP3   OH252332   1.330   2.122   5.749  0.1586  0.1608  0.2895
10306TIP3    H152333   1.419   2.117   5.714 -1.0049 -1.2496 -2.9195
10306TIP3    H252334   1.339   2.096   5.841  2.9774 -0.6455 -0.1083
10307TIP3   OH252335   5.105   2.762   3.554 -0.2175 -0.3058 -0.1333
10307TIP3    H152336   5.149   2.682   3.524  1.2840 -0.2095  1.5952
10307TIP3    H252337   5.015   2.735   3.571  0.1681 -1.5524  0.0451
10308TIP3   OH252338   2.015   3.041   4.077  0.1443 -0.0683 -0.0516
10308TIP3    H152339   1.989   3.052   3.985  0.9460 -0.7600 -0.3677
10308TIP3    H252340   1.934   3.054   4.126 -0.5901 -1.1246 -0.9513
10309TIP3   OH252341   4.223   5.131  12.604 -0.1665 -0.3130  0.4491
10309TIP3    H152342   4.167   5.110  12.678  1.2445  0.0212  1.6609
10309TIP3    H252343   4.303   5.080  12.619  0.5238  0.5123 -0.3052
10310TIP3   OH252344   0.417   1.446  12.636  0.3061  0.1798 -0.2718
10310TIP3    H152345   0.447   1.385  12.569 -0.5929 -0.3917 -0.1824
10310TIP3    H252346   0.442   1.532  12.604  0.3061 -0.1214 -1.1144
10311TIP3   OH252347   3.663   1.308  12.180  0.3365 -0.3043  0.2666
10311TIP3    H152348   3.625   1.224  12.154  1.1573 -0.5130 -0.2708
10311TIP3    H252349   3.734   1.285  12.240 -0.3263  0.0842  1.2251
10312TIP3   OH252350   4.502   3.134  16.222  0.8476 -0.3596 -0.0633
10312TIP3    H152351   4.454   3.131  16.305  0.4023 -1.8138 -0.3278
10312TIP3    H252352   4.518   3.227  16.206 -1.3058  0.1399  0.3844
10313TIP3   OH252353   3.751   1.524  15.378 -0.3666 -0.3164  0.2737
10313TIP3    H152354   3.682   1.459  15.370  0.2960 -1.4153  2.6195
10313TIP3    H252355   3.789   1.530  15.290 -1.1901 -2.2594 -0.2610
10314TIP3   OH252356   0.101   5.978   3.837 -0.0908  0.0697 -0.3314
10314TIP3    H152357   0.109   5.929   3.756 -0.8099 -0.1968 -0.2518
10314TIP3    H252358   0.011   5.962   3.866 -0.2096  1.1106 -0.0971
10315TIP3   OH252359   1.226   4.932  11.266  0.3674  0.5253  0.4978
10315TIP3    H152360   1.149   4.876  11.274  1.0539 -0.7227 -1.1460
10315TIP3    H252361   1.190   5.021  11.264 -1.1216 -0.0517 -0.7567
10316TIP3   OH252362   4.260   1.450  12.112 -0.5689  0.1706  0.0371
10316TIP3    H152363   4.252   1.367  12.160 -0.1524  0.6046  0.8842
10316TIP3    H252364   4.177   1.495  12.129 -1.0289 -0.3063 -0.8972
10317TIP3   OH252365   0.803   5.503   5.697  0.3463  0.2816  0.3941
10317TIP3    H152366   0.867   5.444   5.658  0.2020  1.1825 -1.3321
10317TIP3    H252367   0.856   5.572   5.737  0.5038 -0.7781  2.0741
10318TIP3   OH252368   5.702   5.662  12.930  0.3363 -0.0321  0.2001
10318TIP3    H152369   5.741   5.662  13.017  1.7528 -0.1720 -0.4030
10318TIP3    H252370   5.715   5.573  12.897  2.0537  0.6428 -1.0788
10319TIP3   OH252371   2.890   0.856  11.860  0.5256 -0.2086 -0.3467
10319TIP3    H152372   2.962   0.810  11.904  1.6497  0.2892 -1.6093
10319TIP3    H252373   2.812   0.809  11.888  1.5684 -2.5153 -1.0645
10320TIP3   OH252374   5.119   0.993  11.371  0.4137 -0.3710 -0.0883
10320TIP3    H152375   5.087   1.011  11.282 -0.3906 -2.0916 -0.1719
10320TIP3    H252376   5.192   1.054  11.382 -0.9508  1.5573 -1.0186
10321TIP3   OH252377   0.967   6.614   3.024 -0.0204  0.1925  0.2793
10321TIP3    H152378   0.981   6.695   2.976 -1.2618  0.5067  0.4156
10321TIP3    H252379   0.933   6.553   2.959 -0.4081  0.2018  0.4752
10322TIP3   OH252380   1.369   3.454  15.918  0.0101 -0.8362 -0.7903
10322TIP3    H152381   1.377   3.538  15.963 -0.6374 -2.4591  2.6869
10322TIP3    H252382   1.276   3.447  15.897 -0.3733 -1.5692  0.9935
10323TIP3   OH252383   5.778   0.114  15.038  0.9907  0.9804 -0.1618
10323TIP3    H152384   5.826   0.033  15.022 -0.6482 -0.0566  0.0087
10323TIP3    H252385   5.689   0.086  15.058  0.6103  2.7726  0.8732
10324TIP3   OH252386   0.650   3.852  11.471  0.1611  0.0990  0.1528
10324TIP3    H152387   0.683   3.931  11.512  1.3801 -0.7286  0.8266
10324TIP3    H252388   0.691   3.850  11.385  1.1627 -0.4415  0.6283
10325TIP3   OH252389   2.629   3.514   5.408  0.3394 -0.0154 -0.4232
10325TIP3    H152390   2.689   3.484   5.476 -0.8953 -0.2098  0.6159
10325TIP3    H252391   2.664   3.599   5.381 -0.5152  1.3548  2.3504
10326TIP3   OH252392   3.769   1.624  11.715 -0.4762 -0.6382 -0.8455
10326TIP3    H152393   3.685   1.664  11.738 -0.6835 -0.9281 -1.0966
10326TIP3    H252394   3.834   1.681  11.757 -0.8130 -0.6771 -0.2496
10327TIP3   OH252395   3.138   6.566   1.139 -0.6573  0.1701  0.5500
10327TIP3    H152396   3.196   6.561   1.063  0.0416 -1.2586  1.1418
10327TIP3    H252397   3.197   6.575   1.214 -1.3447  1.6568  0.9508
10328TIP3   OH252398   1.300   6.581  11.034  0.4308  0.4694 -0.1247
10328TIP3    H152399   1.254   6.616  10.958  0.8877 -0.3150 -0.7760
10328TIP3    H252400   1.259   6.624  11.109 -0.0642  1.2107 -0.8071
10329TIP3   OH252401   3.255   4.266   5.861  0.2157  0.5480 -0.0383
10329TIP3    H152402   3.236   4.222   5.944  1.3751 -0.7490 -0.4176
10329TIP3    H252403   3.177   4.249   5.807  0.6534 -1.1360 -0.1908
10330TIP3   OH252404   3.603   4.445   0.923 -0.3622 -0.1749 -0.0460
10330TIP3    H152405   3.563   4.430   0.838  0.1515 -0.3726 -0.2579
10330TIP3    H252406   3.582   4.367   0.974 -2.2392  0.7260  0.6365
10331TIP3   OH252407   3.774   2.974   1.758 -0.1267  0.2848 -0.6326
10331TIP3    H152408   3.705   2.965   1.824  0.4641  0.9833  0.1050
10331TIP3    H252409   3.820   2.890   1.760 -0.5650  0.0413 -0.6800
10332TIP3   OH252410   3.428   6.574   2.383 -0.0331  0.1472  0.4374
10332TIP3    H152411   3.376   6.584   2.303  1.7060 -0.4393 -0.8120
10332TIP3    H252412   3.462   6.485   2.379  1.4239  0.6488  0.9774
10333TIP3   OH252413   4.326   5.835  10.700  0.4131 -0.2775 -0.4498
10333TIP3    H152414   4.234   5.808  10.694  0.1245  0.3129  0.8775
10333TIP3    H252415   4.375   5.752  10.702  0.0757 -0.5954 -2.7610
10334TIP3   OH252416   1.862   6.657  13.201 -0.6271 -0.4826 -0.4856
10334TIP3    H152417   1.893   6.571  13.229 -0.9624 -0.9267 -1.4622
10334TIP3    H252418   1.776   6.641  13.163 -1.4014  0.5229  0.7518
10335TIP3   OH252419   5.662   6.380  10.978 -0.5309  1.0720 -0.4566
10335TIP3    H152420   5.609   6.317  11.026 -1.0089  0.9852 -1.0740
10335TIP3    H252421   5.630   6.374  10.888  0.5144  1.0378 -0.8432
10336TIP3   OH252422   3.674   6.306   5.592 -0.5040 -0.3157  0.3754
10336TIP3    H152423   3.691   6.379   5.652  0.2867  1.7430 -2.1911
10336TIP3    H252424   3.725   6.234   5.629  0.5468  1.0620  1.8005
10337TIP3   OH252425   2.051   1.570   1.052  0.3196 -0.3317  0.1484
10337TIP3    H152426   2.010   1.492   1.090 -0.9129 -0.0366 -0.5470
10337TIP3    H252427   2.000   1.643   1.086  0.5596  0.0775 -0.3622
10338TIP3   OH252428   2.940   5.455  13.815 -0.1749  0.0514  0.6987
10338TIP3    H152429   2.970   5.366  13.837 -0.7572 -0.1283  0.7960
10338TIP3    H252430   2.908   5.448  13.725  2.0620  0.7520 -0.2101
10339TIP3   OH252431   6.193   1.595  14.966  0.4122 -0.5852  0.5253
10339TIP3    H152432   6.126   1.659  14.941 -1.1524 -1.8827  1.1990
10339TIP3    H252433   6.271   1.622  14.917 -0.8888  0.3717 -1.1521
10340TIP3   OH252434   1.301   0.132  13.612 -0.2602 -0.2993  0.5020
10340TIP3    H152435   1.269   0.100  13.696  1.5585  0.5580  1.5665
10340TIP3    H252436   1.310   0.227  13.623 -1.0538 -0.0002 -1.0461
10341TIP3   OH252437   4.795   0.195   0.153 -0.3757 -0.1225 -0.2179
10341TIP3    H152438   4.730   0.264   0.146  0.3294  0.4159 -2.3372
10341TIP3    H252439   4.878   0.238   0.134  0.4681 -1.0335  1.2433
10342TIP3   OH252440   1.537   3.337   1.582 -0.7460 -0.3616 -0.1723
10342TIP3    H152441   1.458   3.380   1.547 -1.6541  0.4794  2.6515
10342TIP3    H252442   1.590   3.410   1.616 -0.3434 -1.1691  0.9682
10343TIP3   OH252443   0.296   5.951  16.453 -0.2350 -0.7782 -0.0908
10343TIP3    H152444   0.251   5.893  16.391  0.1539 -1.6229  0.4028
10343TIP3    H252445   0.286   5.908  16.538  1.2558 -0.8726  0.0738
10344TIP3   OH252446   4.472   4.703  17.081  0.3304  0.3336  0.5426
10344TIP3    H152447   4.480   4.786  17.033 -1.5740  0.8341  1.0296
10344TIP3    H252448   4.525   4.715  17.159 -0.1470  1.2155  0.7429
10345TIP3   OH252449   6.628   3.856   1.766  0.2223 -0.3967 -0.0486
10345TIP3    H152450   6.551   3.910   1.787  0.5026  0.5556 -1.3466
10345TIP3    H252451   6.633   3.857   1.671  1.9980 -0.2008  0.0088
10346TIP3   OH252452   1.637   4.770   2.191  0.3520 -0.2811  0.3069
10346TIP3    H152453   1.647   4.859   2.224  0.2807 -0.4173  0.7094
10346TIP3    H252454   1.726   4.736   2.185  0.3655 -0.2564  0.3663
10347TIP3   OH252455   5.591   1.687   4.262 -0.4924  0.1464 -0.2316
10347TIP3    H152456   5.516   1.627   4.260  0.2854 -0.8232 -1.7169
10347TIP3    H252457   5.609   1.707   4.170  0.9868  0.4754  0.1031
10348TIP3   OH252458   2.428   2.101  17.214 -0.0771 -0.2248 -0.9218
10348TIP3    H152459   2.489   2.051  17.160 -0.2632 -0.3294 -1.0344
10348TIP3    H252460   2.348   2.049  17.215 -0.3843  0.2384 -1.3208
10349TIP3   OH252461   4.651   1.244   1.979 -0.0062  0.1547 -0.6276
10349TIP3    H152462   4.642   1.202   2.064  0.4353  2.3902  0.6234
10349TIP3    H252463   4.582   1.311   1.977  0.5948  0.7832 -1.6058
10350TIP3   OH252464   3.273   2.921  14.203 -0.0315  0.9544  0.9068
10350TIP3    H152465   3.304   2.972  14.278 -0.6789  4.1801 -0.8240
10350TIP3    H252466   3.190   2.962  14.179  0.0285 -0.1029 -1.3798
10351TIP3   OH252467   2.937   6.067  13.990 -0.1153  0.3257  0.7961
10351TIP3    H152468   2.928   5.985  14.038 -1.6907 -0.3841 -0.5881
10351TIP3    H252469   2.878   6.057  13.915  2.4141  1.2215 -1.4805
10352TIP3   OH252470   2.620   3.868  12.753  0.0170  0.0908  0.1608
10352TIP3    H152471   2.584   3.841  12.669 -0.8218  0.5767  0.3504
10352TIP3    H252472   2.659   3.954  12.737  1.1422 -0.4368 -0.0454
10353TIP3   OH252473   5.911   2.824  13.280  0.9647  1.3725 -0.9761
10353TIP3    H152474   5.916   2.728  13.282  0.2660  1.3384 -0.7149
10353TIP3    H252475   5.822   2.844  13.307  1.0563  2.0969 -1.1927
10354TIP3   OH252476   4.006   1.102  13.819  0.6429  0.0398  0.4990
10354TIP3    H152477   3.943   1.048  13.866  1.8450 -0.7599  1.2422
10354TIP3    H252478   4.048   1.155  13.887  1.9325 -0.6455  0.2711
10355TIP3   OH252479   3.657   5.592   4.965 -0.0563 -0.0112  0.5779
10355TIP3    H152480   3.669   5.675   4.919  0.8721 -0.2666  0.3353
10355TIP3    H252481   3.603   5.615   5.041  0.1570  0.8092  0.4976
10356TIP3   OH252482   6.392   3.513   1.562  0.1303 -0.0914  0.6540
10356TIP3    H152483   6.322   3.573   1.538  1.0121  0.7252  0.0380
10356TIP3    H252484   6.472   3.554   1.528  0.7684 -1.6172  0.1951
10357TIP3   OH252485   4.447   1.887   2.192  0.2535  0.2790  0.3235
10357TIP3    H152486   4.535   1.898   2.230 -0.4571  0.7943  1.9123
10357TIP3    H252487   4.431   1.793   2.197 -0.8781  0.5112  4.0111
10358TIP3   OH252488   0.129   2.322  15.754  0.4588  0.9351  0.6440
10358TIP3    H152489   0.046   2.345  15.712  0.5457 -0.0903 -0.1028
10358TIP3    H252490   0.104   2.261  15.823  0.4250  1.8984  1.5151
10359TIP3   OH252491   2.193   5.420  16.517  0.0114  0.3075  0.1052
10359TIP3    H152492   2.239   5.459  16.443 -0.1574 -0.1741 -0.2567
10359TIP3    H252493   2.112   5.386  16.480  0.1877 -0.4517  0.4013
10360TIP3   OH252494   2.821   2.346   0.237 -0.2626 -0.1687  0.1657
10360TIP3    H152495   2.831   2.436   0.269  1.9904  0.3755 -1.7712
10360TIP3    H252496   2.736   2.318   0.270 -1.3930  2.9377  0.2281
10361TIP3   OH252497   1.053   1.892   5.901 -0.0683 -0.2813  0.4771
10361TIP3    H152498   1.133   1.872   5.949 -1.0608 -5.3253  0.5071
10361TIP3    H252499   0.984   1.886   5.967 -0.8026  1.2246 -0.0939
10362TIP3   OH252500   3.269   0.039   6.140 -0.6998  0.1130  0.0535
10362TIP3    H152501   3.212   0.110   6.170 -0.7691  0.9225 -1.8775
10362TIP3    H252502   3.357   0.071   6.157 -0.7437 -0.5098  1.6496
10363TIP3   OH252503   6.763   1.068   3.974 -0.1865  0.4623  0.0806
10363TIP3    H152504   6.813   1.141   4.011  0.0402  0.7491 -0.7708
10363TIP3    H252505   6.673   1.101   3.969 -0.1040  0.6411 -0.2034
10364TIP3   OH252506   0.965   4.751  13.706 -0.4892 -0.2277  0.4884
10364TIP3    H152507   1.057   4.779  13.703 -0.4344 -0.3361  1.1363
10364TIP3    H252508   0.918   4.821  13.660 -0.0617 -0.2772 -0.0413
10365TIP3   OH252509   1.727   1.651  10.981 -0.2388  0.5202  0.1153
10365TIP3    H152510   1.705   1.558  10.971 -1.9430  0.7639  1.2085
10365TIP3    H252511   1.656   1.687  11.033  0.3758  2.4730 -0.3179
10366TIP3   OH252512   3.233   2.249   4.166  0.4755 -0.1754  0.6660
10366TIP3    H152513   3.158   2.247   4.107  1.1538  2.0822 -0.3743
10366TIP3    H252514   3.206   2.196   4.241 -1.6867 -0.3910 -0.1912
10367TIP3   OH252515   1.753   3.842  14.704 -0.0368  0.1118 -0.5780
10367TIP3    H152516   1.710   3.799  14.778 -1.5926  2.9096  0.3004
10367TIP3    H252517   1.681   3.863  14.644  0.2654  2.9842 -0.0910
10368TIP3   OH252518   3.645   0.059   0.986 -0.4413  0.0517  0.5323
10368TIP3    H152519   3.588   0.101   1.050  0.6340  1.8325  0.4012
10368TIP3    H252520   3.706   0.007   1.038 -1.6194 -1.2097  0.7138
10369TIP3   OH252521   3.473   5.018  11.958 -0.9180  0.3900 -0.1841
10369TIP3    H152522   3.472   4.923  11.960  0.8248  0.3506 -0.1437
10369TIP3    H252523   3.403   5.044  12.019  0.4599 -0.8727  2.0589
10370TIP3   OH252524   6.503   6.602  16.342  0.9811  0.2383 -0.6788
10370TIP3    H152525   6.594   6.618  16.314  0.7615  2.0963 -0.4876
10370TIP3    H252526   6.453   6.603  16.260  0.8532  1.6772 -0.6151
10371TIP3   OH252527   5.034   6.080  13.235 -0.3557 -0.1204 -0.3226
10371TIP3    H152528   5.063   6.137  13.164  3.3900  0.3343  1.2999
10371TIP3    H252529   5.049   5.991  13.202 -0.0526  0.0406 -0.6248
10372TIP3   OH252530   3.115   6.672  13.791  0.0466 -0.1026 -0.6010
10372TIP3    H152531   3.076   6.759  13.792 -0.0797 -0.1624  0.1025
10372TIP3    H252532   3.093   6.637  13.705 -2.3680 -0.5204  0.0855
10373TIP3   OH252533   1.494   6.002   5.683 -0.3083  0.6974 -0.1699
10373TIP3    H152534   1.445   5.919   5.690 -0.9163  0.8452 -2.0858
10373TIP3    H252535   1.511   6.011   5.589  0.6691  2.2407  0.1361
10374TIP3   OH252536   0.452   1.142  11.809  0.0168  0.4237  0.0181
10374TIP3    H152537   0.372   1.173  11.851 -0.6511 -1.3123  0.1191
10374TIP3    H252538   0.493   1.086  11.875  1.1924  1.0666 -0.1345
10375TIP3   OH252539   1.973   1.879  11.845 -0.6392 -0.1978 -0.0647
10375TIP3    H152540   1.962   1.875  11.750  2.1095  0.7191 -0.5102
10375TIP3    H252541   2.040   1.814  11.865  1.9523  2.4032  0.5268
10376TIP3   OH252542   6.529   3.284   0.077 -0.1860 -0.4010  0.1667
10376TIP3    H152543   6.613   3.313   0.112 -1.0735  2.2712  0.2498
10376TIP3    H252544   6.481   3.253   0.154 -0.2690  0.6501  0.5458
10377TIP3   OH252545   5.942   5.059  16.314  0.2389 -0.2390  0.1676
10377TIP3    H152546   5.950   5.128  16.380 -1.3398  1.3495 -1.1879
10377TIP3    H252547   6.024   5.063  16.265 -0.0369  1.1255 -0.2380
10378TIP3   OH252548   0.792   6.063  15.031 -0.1123  0.2731  0.2812
10378TIP3    H152549   0.735   6.010  14.974  0.6683 -0.2104 -0.0729
10378TIP3    H252550   0.753   6.054  15.118 -0.5530 -0.0938  0.0554
10379TIP3   OH252551   3.928   1.979  17.257 -0.0924  0.1242 -0.6796
10379TIP3    H152552   3.985   1.906  17.282 -1.5763 -1.1975 -0.9299
10379TIP3    H252553   3.906   2.022  17.340 -0.6505 -0.8654 -0.2954
10380TIP3   OH252554   6.286   2.228  13.868  0.0776 -0.1281  0.3092
10380TIP3    H152555   6.343   2.303  13.851  0.3111 -0.2079  0.7105
10380TIP3    H252556   6.325   2.186  13.945 -0.9318  0.2347  1.0457
10381TIP3   OH252557   3.361   0.352  11.014 -0.3065 -0.4444  0.2025
10381TIP3    H152558   3.333   0.266  10.984  0.6278 -0.2909 -1.2248
10381TIP3    H252559   3.355   0.407  10.935 -1.1838  0.8742  1.1571
10382TIP3   OH252560   5.084   5.960  16.271 -0.0804  0.1377 -0.2352
10382TIP3    H152561   5.028   6.000  16.204  0.1480  0.8532 -0.0099
10382TIP3    H252562   5.061   5.867  16.269 -1.0363  0.3655 -0.3793
10383TIP3   OH252563   5.336   2.433  16.982  0.3680 -0.4692  0.0310
10383TIP3    H152564   5.275   2.506  16.975  0.5621 -0.3711 -0.7641
10383TIP3    H252565   5.411   2.469  17.028  0.4225 -0.1836 -0.2737
10384TIP3   OH252566   4.986   0.412   4.365  0.3878 -0.0190  0.0419
10384TIP3    H152567   4.943   0.422   4.450  2.1996  2.1377  0.8170
10384TIP3    H252568   4.916   0.422   4.301 -0.6146  1.2859  1.2755
10385TIP3   OH252569   3.247   1.857   4.682 -0.0762 -0.2396  0.1740
10385TIP3    H152570   3.241   1.875   4.588  0.1722 -3.0920 -0.4917
10385TIP3    H252571   3.301   1.927   4.717 -2.8275  2.8074 -1.1341
10386TIP3   OH252572   6.126   2.528   4.550  0.0639  0.3144  0.4050
10386TIP3    H152573   6.193   2.523   4.618 -0.2752 -1.7303  0.6423
10386TIP3    H252574   6.162   2.480   4.476 -0.7619 -0.0147  0.2052
10387TIP3   OH252575   3.484   4.957  14.115 -0.4359 -0.0320 -0.1189
10387TIP3    H152576   3.515   4.973  14.026 -0.6280 -1.5410 -0.4956
10387TIP3    H252577   3.538   4.884  14.146 -1.1303 -0.2687  0.5646
10388TIP3   OH252578   4.041   1.974   1.392  0.4646  0.0492  0.8389
10388TIP3    H152579   4.079   1.975   1.480  0.4762 -1.0834  0.8698
10388TIP3    H252580   3.985   1.897   1.391  0.6640 -0.1050 -0.2254
10389TIP3   OH252581   3.611   3.765   1.015 -0.7023 -0.1041 -0.0672
10389TIP3    H152582   3.622   3.791   0.923 -1.8514 -1.2889 -0.5611
10389TIP3    H252583   3.594   3.671   1.012  1.9878 -0.7456  1.5905
10390TIP3   OH252584   0.651   3.359   2.156  0.4609  0.6692  0.1299
10390TIP3    H152585   0.610   3.360   2.242 -0.5099 -0.8237 -0.2659
10390TIP3    H252586   0.619   3.437   2.112  0.1181  0.8829  0.7588
10391TIP3   OH252587   0.867   6.535   0.257  0.5308  0.5777  0.1946
10391TIP3    H152588   0.852   6.548   0.163 -0.2492  0.2443  0.2682
10391TIP3    H252589   0.781   6.512   0.292  0.5370  2.0972  1.2492
10392TIP3   OH252590   3.636   6.663   4.748  0.3176  0.4802 -0.1633
10392TIP3    H152591   3.633   6.730   4.680 -1.4833  1.3354  0.6972
10392TIP3    H252592   3.717   6.679   4.795  0.5933  1.1441 -0.8542
10393TIP3   OH252593   4.016   5.223  14.107  0.0007  0.2605 -0.8556
10393TIP3    H152594   3.931   5.253  14.075 -0.3561  0.8936  0.6073
10393TIP3    H252595   4.057   5.301  14.144  0.3883 -0.4278  0.2006
10394TIP3   OH252596   0.087   6.690  13.504  0.1287 -0.4237 -0.1000
10394TIP3    H152597   0.051   6.766  13.549 -2.9129 -1.5850 -0.3400
10394TIP3    H252598   0.082   6.619  13.568 -2.1889 -1.5858 -1.4383
10395TIP3   OH252599   0.918   2.226   3.289 -0.0129  0.1546  0.2162
10395TIP3    H152600   0.871   2.143   3.300  2.4136 -1.0499  2.6569
10395TIP3    H252601   0.997   2.203   3.240 -0.6309  1.6562 -1.6027
10396TIP3   OH252602   3.424   5.164  16.454  0.2000 -0.2598 -0.5075
10396TIP3    H152603   3.415   5.160  16.359 -0.3298  0.4440 -0.4983
10396TIP3    H252604   3.518   5.175  16.469  0.3326 -0.7855 -0.9249
10397TIP3   OH252605   2.419   0.572  14.859  0.1502 -0.4351 -0.1207
10397TIP3    H152606   2.429   0.660  14.824 -1.0345 -0.4503 -0.5749
10397TIP3    H252607   2.375   0.584  14.943  0.0470 -0.5811 -0.1522
10398TIP3   OH252608   1.141   1.813   5.171 -0.3080  0.3666  0.3918
10398TIP3    H152609   1.106   1.778   5.253 -1.3687  1.9670  0.6718
10398TIP3    H252610   1.098   1.761   5.102  0.7350 -1.1144  0.8107
10399TIP3   OH252611   0.743   4.650   1.441 -0.2612 -0.3500  0.3339
10399TIP3    H152612   0.753   4.555   1.441  0.0970 -0.3196 -0.8212
10399TIP3    H252613   0.658   4.665   1.482 -0.3582 -1.1643  0.4547
10400TIP3   OH252614   2.951   3.308   1.008  0.4878 -0.5432  0.1415
10400TIP3    H152615   3.003   3.378   0.968 -0.3513  0.5973  0.9771
10400TIP3    H252616   2.878   3.353   1.050  0.1723 -1.8861  1.1161
10401TIP3   OH252617   0.841   3.897   4.568 -0.2196  0.7219 -0.2479
10401TIP3    H152618   0.922   3.906   4.618  0.5967  0.4636 -1.4789
10401TIP3    H252619   0.796   3.823   4.608  0.5316  0.3588 -0.0628
10402TIP3   OH252620   2.116   3.403  12.627  0.4654  0.2289  0.5175
10402TIP3    H152621   2.171   3.471  12.588  1.7883 -2.0507 -1.8620
10402TIP3    H252622   2.163   3.377  12.706  0.2264  1.6388  1.1551
10403TIP3   OH252623   5.403   4.756  16.154 -0.1114 -0.1929  0.3204
10403TIP3    H152624   5.322   4.734  16.109 -0.2883  0.8138  0.1155
10403TIP3    H252625   5.468   4.764  16.085  0.2896 -1.4885  0.5319
10404TIP3   OH252626   3.463   4.000  11.979  0.1975  0.1272 -0.5063
10404TIP3    H152627   3.462   4.064  12.050 -0.7874 -0.9917  0.5700
10404TIP3    H252628   3.465   3.915  12.024 -1.1268 -0.6418 -1.7701
10405TIP3   OH252629   6.504   1.521  13.466  0.2677 -0.4810 -0.1376
10405TIP3    H152630   6.568   1.455  13.492  2.4308  1.4563 -0.2309
10405TIP3    H252631   6.531   1.601  13.512 -2.3328  0.3594  0.1009
10406TIP3   OH252632   0.034   5.582  14.417 -0.0501  0.1630 -0.2043
10406TIP3    H152633   0.127   5.570  14.438 -0.0834 -0.6607 -0.4850
10406TIP3    H252634   0.000   5.493  14.409 -1.2152  0.4144  1.3455
10407TIP3   OH252635   3.752   5.200  12.743 -0.4996  0.2898 -0.0570
10407TIP3    H152636   3.744   5.187  12.648  1.4614 -1.2880 -0.0538
10407TIP3    H252637   3.684   5.265  12.763 -1.0170  0.6219 -2.5122
10408TIP3   OH252638   1.353   0.461   1.119 -0.1840  0.5367  0.0311
10408TIP3    H152639   1.337   0.464   1.024  0.5710  1.9764 -0.0807
10408TIP3    H252640   1.356   0.553   1.145  0.0647  0.1590  1.3818
10409TIP3   OH252641   0.623   2.914   4.662 -0.4426  0.0052 -0.2114
10409TIP3    H152642   0.659   2.932   4.575  2.2238  0.9956  0.9952
10409TIP3    H252643   0.682   2.959   4.722 -1.0619 -2.2271  2.2480
10410TIP3   OH252644   3.815   5.966  17.155  0.1782  0.2018 -0.7019
10410TIP3    H152645   3.797   6.054  17.122 -1.9679  0.3864  0.8114
10410TIP3    H252646   3.776   5.907  17.090 -1.8072  0.5027  0.1618
10411TIP3   OH252647   5.903   4.032  16.559  0.1037  0.1565  0.0978
10411TIP3    H152648   5.815   4.068  16.566 -0.2754 -0.7934  0.3332
10411TIP3    H252649   5.952   4.099  16.511 -0.7841  0.6234 -0.1881
10412TIP3   OH252650   6.665   5.334  16.939 -0.0777  0.6551 -0.3050
10412TIP3    H152651   6.740   5.316  16.883  0.1257 -4.5826  1.1146
10412TIP3    H252652   6.589   5.304  16.889 -0.4442  0.2270  0.4865
10413TIP3   OH252653   0.154   3.409  16.468  0.5332  0.0584 -0.2432
10413TIP3    H152654   0.237   3.455  16.480  1.0472 -0.4456 -1.7370
10413TIP3    H252655   0.087   3.477  16.480  1.1111  0.3679  1.4481
10414TIP3   OH252656   4.021   5.129  16.296 -0.3814 -0.1777 -0.5811
10414TIP3    H152657   4.099   5.111  16.243 -0.2935  1.5929 -1.0961
10414TIP3    H252658   3.978   5.044  16.303 -0.1417 -0.5931 -3.1098
10415TIP3   OH252659   2.088   6.383   4.389  0.4805 -0.3652 -0.1648
10415TIP3    H152660   2.092   6.452   4.323 -1.4749  0.8378  0.8629
10415TIP3    H252661   2.174   6.342   4.386  1.9061  2.3831 -0.5908
10416TIP3   OH252662   4.773   5.213   5.193 -0.3652 -0.1401 -0.0591
10416TIP3    H152663   4.775   5.127   5.235  0.9781 -0.7848 -1.3629
10416TIP3    H252664   4.786   5.275   5.265 -2.1162 -0.9306  1.0194
10417TIP3   OH252665   5.674   0.175  11.922 -0.1598 -0.6282 -0.1434
10417TIP3    H152666   5.597   0.161  11.978 -0.2073  1.7755  0.5130
10417TIP3    H252667   5.638   0.213  11.842  0.2713  0.0888 -0.0089
10418TIP3   OH252668   5.262   3.989  14.529 -0.5982  0.1192 -0.0382
10418TIP3    H152669   5.257   3.895  14.508 -1.8808 -0.5205  2.7335
10418TIP3    H252670   5.356   4.006  14.539 -0.2891 -0.6161 -1.4110
10419TIP3   OH252671   5.794   5.627  15.824 -0.0142 -0.5975  0.0326
10419TIP3    H152672   5.769   5.566  15.754 -0.2151 -2.3370  1.5351
10419TIP3    H252673   5.711   5.649  15.867  0.0808  0.6356 -0.3892
10420TIP3   OH252674   1.167   2.851  15.343  0.1639  0.0726  0.4856
10420TIP3    H152675   1.168   2.843  15.248  0.1690  1.1737  0.3836
10420TIP3    H252676   1.198   2.940  15.361 -0.6757  0.1978  1.4685
10421TIP3   OH252677   5.494   4.842  16.874  0.3249 -0.0392  0.1208
10421TIP3    H152678   5.406   4.804  16.882  0.5341 -0.5289  0.1178
10421TIP3    H252679   5.553   4.768  16.886  0.7684  0.4938  1.3520
10422TIP3   OH252680   6.738   2.532   2.091 -0.1074 -0.1314  0.6432
10422TIP3    H152681   6.723   2.473   2.017  0.9444 -0.1976  0.4597
10422TIP3    H252682   6.709   2.482   2.168  0.3617 -0.7233  0.4445
10423TIP3   OH252683   4.354   1.237   2.676 -0.2234  0.5440 -0.1651
10423TIP3    H152684   4.287   1.175   2.704  0.8783 -0.3214  0.6402
10423TIP3    H252685   4.435   1.186   2.673  0.5395  1.7237 -0.4273
10424TIP3   OH252686   2.142   0.557  16.975 -0.2947 -0.2030  0.1382
10424TIP3    H152687   2.059   0.522  16.943  0.0377  0.0577 -1.0433
10424TIP3    H252688   2.136   0.651  16.958 -0.5754  0.1410  1.9319
10425TIP3   OH252689   3.247   0.777   3.413  0.3285 -0.6391  0.2144
10425TIP3    H152690   3.158   0.743   3.409 -0.9321  2.4026 -0.2900
10425TIP3    H252691   3.278   0.775   3.323 -0.8867  2.0328 -0.3663
10426TIP3   OH252692   3.483   3.839  14.816  0.4175  0.1424  0.0750
10426TIP3    H152693   3.407   3.813  14.764  0.9785 -0.4614 -0.4490
10426TIP3    H252694   3.557   3.830  14.757  1.3332 -2.3759  1.4538
10427TIP3   OH252695   3.769   5.600   4.287 -0.0442  0.7840 -0.0804
10427TIP3    H152696   3.705   5.590   4.217  1.3462  0.4589 -1.3683
10427TIP3    H252697   3.814   5.516   4.291  1.5668  1.5810 -0.5385
10428TIP3   OH252698   5.959   3.831  15.664 -0.1911  0.0337  0.1822
10428TIP3    H152699   5.951   3.920  15.630  1.0151  0.8573  1.9012
10428TIP3    H252700   5.967   3.842  15.759  2.0946 -1.7285  0.2824
10429TIP3   OH252701   0.294   2.722  15.004 -0.0377  0.1241  0.5648
10429TIP3    H152702   0.290   2.671  14.923 -2.2210  0.1091  0.6236
10429TIP3    H252703   0.247   2.803  14.984 -1.7988 -0.4337  2.1290
10430TIP3   OH252704   6.312   4.579  11.643  0.3263 -0.6884  0.5240
10430TIP3    H152705   6.408   4.585  11.645  0.2782  0.1323  2.3345
10430TIP3    H252706   6.295   4.488  11.621  1.4853 -0.5813 -1.0200
10431TIP3   OH252707   2.576   1.501  14.121 -0.2173 -0.3103  0.0584
10431TIP3    H152708   2.583   1.571  14.186 -0.3917 -0.4166  0.1930
10431TIP3    H252709   2.664   1.465  14.114  0.2365  0.8959 -1.1029
10432TIP3   OH252710   0.818   2.321  11.755  0.6676 -0.4206 -0.5315
10432TIP3    H152711   0.829   2.323  11.850 -3.2953 -0.0464  0.0877
10432TIP3    H252712   0.892   2.371  11.722  0.5142  2.2841  2.6578
10433TIP3   OH252713   4.342   4.206   1.641  0.6298  0.4704  0.7324
10433TIP3    H152714   4.274   4.272   1.651  0.7090  0.5349  0.8450
10433TIP3    H252715   4.385   4.203   1.727  1.0953  0.7907  0.5156
10434TIP3   OH252716   2.209   5.291   5.675  0.0313  0.2419  0.0885
10434TIP3    H152717   2.143   5.310   5.741  0.3994  1.9176  0.0097
10434TIP3    H252718   2.238   5.202   5.694  0.6328  0.9148  2.6476
10435TIP3   OH252719   1.416   1.838  12.815 -0.2348 -0.0140 -0.5028
10435TIP3    H152720   1.507   1.820  12.791 -0.3189 -2.7033  0.8589
10435TIP3    H252721   1.422   1.915  12.872  0.8046  1.4703 -2.4686
10436TIP3   OH252722   6.487   3.614   5.098  0.2924  0.2510  0.2989
10436TIP3    H152723   6.448   3.686   5.049 -0.7295 -0.5077 -0.0380
10436TIP3    H252724   6.429   3.601   5.174 -0.7695 -1.5445 -0.7340
10437TIP3   OH252725   3.572   2.804   1.591  0.2182  0.3027 -0.2131
10437TIP3    H152726   3.533   2.849   1.667  1.7998  0.9317  0.2835
10437TIP3    H252727   3.644   2.753   1.628  0.8267  0.3802 -1.2369
10438TIP3   OH252728   4.843   4.414  11.451  0.7895  0.0379  0.3583
10438TIP3    H152729   4.868   4.500  11.484 -1.1180  1.0484 -0.6168
10438TIP3    H252730   4.891   4.406  11.368  0.3407  0.5518  0.0409
10439TIP3   OH252731   0.313   0.027  13.371  0.1680  0.2478 -0.2290
10439TIP3    H152732   0.264  -0.016  13.441 -1.7537  0.3048 -1.4694
10439TIP3    H252733   0.321   0.118  13.399 -1.0626  0.3907 -0.2779
10440TIP3   OH252734   1.717   4.178  11.023 -0.2868 -0.1893 -0.1441
10440TIP3    H152735   1.747   4.215  11.106 -0.4032 -1.4110  0.4698
10440TIP3    H252736   1.623   4.162  11.037  0.0771 -2.3323  0.2988
10441TIP3   OH252737   5.242   4.416   1.584  0.0708 -0.0531 -0.4222
10441TIP3    H152738   5.153   4.423   1.549 -0.6900  0.2623  1.4703
10441TIP3    H252739   5.262   4.505   1.615  1.4085  0.0914 -1.6011
10442TIP3   OH252740   6.329   3.799   3.031  0.1434 -0.1924  1.0098
10442TIP3    H152741   6.255   3.759   2.987  0.0864  1.2698 -0.3500
10442TIP3    H252742   6.294   3.831   3.114 -0.3724 -0.8193  1.0366
10443TIP3   OH252743   4.602   2.396   2.916 -0.2755  0.7778  0.3430
10443TIP3    H152744   4.688   2.426   2.944  0.4869 -0.1081 -0.9508
10443TIP3    H252745   4.593   2.428   2.826 -2.0470  2.3382  1.0117
10444TIP3   OH252746   2.586   2.457  14.391  0.2973 -0.3559 -0.6706
10444TIP3    H152747   2.507   2.512  14.394 -1.4434 -2.6539 -1.9749
10444TIP3    H252748   2.608   2.442  14.483 -0.3342  0.8970 -0.2950
10445TIP3   OH252749   5.722   0.625  12.699 -0.5686  0.2618 -0.6390
10445TIP3    H152750   5.784   0.693  12.724  0.3049 -0.7185 -0.0827
10445TIP3    H252751   5.680   0.659  12.620 -0.7148  1.7832  0.0636
10446TIP3   OH252752   3.343   5.859   5.941 -0.0768 -0.1449  0.6535
10446TIP3    H152753   3.275   5.910   5.897 -0.7057 -2.0765 -0.7214
10446TIP3    H252754   3.335   5.771   5.905  2.5889 -0.6564  1.0974
10447TIP3   OH252755   6.737   4.995   1.989 -1.0744  0.3164 -0.3068
10447TIP3    H152756   6.817   4.975   2.038  0.5873  2.6473 -1.8404
10447TIP3    H252757   6.687   4.913   1.991  2.0035 -1.7417 -0.5138
10448TIP3   OH252758   0.640   5.877   3.565  0.4440 -0.1275  0.0816
10448TIP3    H152759   0.677   5.899   3.651  1.9978 -1.4816 -0.1945
10448TIP3    H252760   0.681   5.939   3.505 -0.1380  0.3887  0.2078
10449TIP3   OH252761   6.144   5.393  16.864  0.3263 -0.9211 -0.1362
10449TIP3    H152762   6.146   5.391  16.959  1.3528  1.0179 -0.0626
10449TIP3    H252763   6.140   5.486  16.842  0.3513 -1.3178 -1.9919
10450TIP3   OH252764   4.218   3.800  15.860  0.3396 -0.2126 -0.6605
10450TIP3    H152765   4.310   3.779  15.870 -0.0668 -1.4532  0.6542
10450TIP3    H252766   4.197   3.774  15.770  0.8075 -1.7685 -0.3374
10451TIP3   OH252767   4.933   1.062   3.337 -0.1900 -0.0720 -0.3199
10451TIP3    H152768   4.841   1.067   3.363 -0.6681 -1.0503 -1.7311
10451TIP3    H252769   4.964   0.979   3.374  0.1716  0.2900  0.2158
10452TIP3   OH252770   1.415   4.716  16.699  0.4974 -0.0350 -0.0947
10452TIP3    H152771   1.504   4.695  16.672  0.6471  0.3527  0.0874
10452TIP3    H252772   1.426   4.786  16.763  0.3755 -2.6597  3.0771
10453TIP3   OH252773   1.324   2.017   2.808  0.3656 -0.0696 -0.3985
10453TIP3    H152774   1.317   2.092   2.867 -0.2798 -0.2482 -0.2472
10453TIP3    H252775   1.234   1.994   2.786  0.4872 -1.6098  0.5714
10454TIP3   OH252776   2.048   3.736   3.552 -0.0254 -0.3057 -0.1029
10454TIP3    H152777   2.086   3.819   3.580 -0.0100 -0.6863  1.0528
10454TIP3    H252778   2.056   3.737   3.457  1.5022  0.2912  0.0006
10455TIP3   OH252779   1.074   2.461   2.589  0.1575  0.9238 -0.2352
10455TIP3    H152780   1.151   2.436   2.640 -1.1362  1.7416  2.3145
10455TIP3    H252781   1.076   2.405   2.512  2.0059 -0.7579  0.9480
10456TIP3   OH252782   3.119   3.271   0.436  0.0425  0.1205  0.1847
10456TIP3    H152783   3.202   3.318   0.427 -0.6056  1.2848 -0.0260
10456TIP3    H252784   3.099   3.241   0.348  0.4259 -0.4992  0.3069
10457TIP3   OH252785   4.425   2.739   1.717 -0.0892  0.0540  1.0132
10457TIP3    H152786   4.414   2.647   1.742 -0.3712 -0.5665 -1.2128
10457TIP3    H252787   4.500   2.769   1.769 -1.6082 -0.5821  3.7836
10458TIP3   OH252788   0.407   1.786  11.498  0.2548 -0.0110 -0.4172
10458TIP3    H152789   0.371   1.780  11.410 -1.1291  0.2280  0.1040
10458TIP3    H252790   0.443   1.699  11.516 -1.0087 -0.5816 -0.5862
10459TIP3   OH252791   6.166   1.551  15.835 -0.9231 -0.0430 -0.1680
10459TIP3    H152792   6.217   1.476  15.806  2.3060  1.1821  1.7788
10459TIP3    H252793   6.163   1.542  15.930 -0.7177  2.0808  0.0789
10460TIP3   OH252794   3.346   3.433   2.594  0.4278  1.0175 -0.5162
10460TIP3    H152795   3.254   3.415   2.613  0.2135  0.0373 -2.2837
10460TIP3    H252796   3.393   3.403   2.671 -0.7616  2.2251  0.7366
10461TIP3   OH252797   6.289   2.056  11.442 -0.2142 -0.6042  0.9010
10461TIP3    H152798   6.305   2.093  11.356 -0.0494 -0.0458  1.1704
10461TIP3    H252799   6.335   1.972  11.441 -1.8480 -1.5637 -0.2551
10462TIP3   OH252800   1.446   4.904  12.592  0.0778  0.3433  0.5663
10462TIP3    H152801   1.485   4.921  12.678  3.2292  1.5758 -0.9365
10462TIP3    H252802   1.500   4.835  12.554 -2.1882 -1.2606  0.0530
10463TIP3   OH252803   5.137   3.431  14.997  0.0802  0.7773  0.0487
10463TIP3    H152804   5.097   3.476  14.922 -0.8936  0.9500  0.6444
10463TIP3    H252805   5.164   3.346  14.962  2.0434  1.8240 -1.1208
10464TIP3   OH252806   4.483   2.207   1.068 -0.1043  0.3890 -0.0745
10464TIP3    H152807   4.452   2.146   1.136 -0.4622  0.2647 -0.3459
10464TIP3    H252808   4.517   2.281   1.117  2.2845 -0.8782  0.3626
10465TIP3   OH252809   3.455   1.258   5.168  0.0151  0.3746 -0.7377
10465TIP3    H152810   3.549   1.277   5.177  0.2514  0.1137 -2.3398
10465TIP3    H252811   3.416   1.293   5.248  1.2779  1.8931 -0.7220
10466TIP3   OH252812   4.450   0.006  11.704 -0.3028  0.1992  0.0838
10466TIP3    H152813   4.445   0.090  11.750  0.0017 -0.6066  1.6476
10466TIP3    H252814   4.527   0.013  11.648 -0.8032  1.2765 -0.5044
10467TIP3   OH252815   5.662   3.151  16.206  0.1321 -0.0522  0.2864
10467TIP3    H152816   5.737   3.207  16.225 -0.7830  1.6339 -0.8070
10467TIP3    H252817   5.624   3.132  16.292 -0.6683  2.7201  0.6441
10468TIP3   OH252818   4.613   0.936  12.802  0.0468  0.1446  0.2654
10468TIP3    H152819   4.681   0.951  12.867 -1.0841  0.3717  1.4278
10468TIP3    H252820   4.577   1.023  12.784 -0.8447 -0.1386  0.6752
10469TIP3   OH252821   1.595   5.811  11.554  0.2032 -0.5065 -0.0656
10469TIP3    H152822   1.525   5.745  11.550  0.5292 -0.8344 -0.4354
10469TIP3    H252823   1.675   5.762  11.533  0.4721 -0.0292 -0.1565
10470TIP3   OH252824   1.269   0.937  12.369  0.8997  0.4312 -0.3497
10470TIP3    H152825   1.236   1.026  12.377  0.1349  0.1782 -0.5742
10470TIP3    H252826   1.333   0.941  12.298  0.1080  0.6078 -1.0781
10471TIP3   OH252827   3.549   5.716   0.494 -0.7082  0.0490 -0.2665
10471TIP3    H152828   3.522   5.803   0.467 -1.1388 -0.2261 -0.7444
10471TIP3    H252829   3.639   5.708   0.462 -1.1152 -0.1653 -1.4047
10472TIP3   OH252830   1.912   1.387   5.597 -0.2333  0.1371 -0.1282
10472TIP3    H152831   1.821   1.391   5.567 -0.0200 -1.1135 -1.0108
10472TIP3    H252832   1.911   1.324   5.669 -0.0897  0.2496 -0.0254
10473TIP3   OH252833   6.570   5.602   4.373  0.8853 -0.1127  0.5024
10473TIP3    H152834   6.562   5.659   4.296 -0.5625 -0.8277  0.0691
10473TIP3    H252835   6.524   5.649   4.442  1.1073 -0.0292  0.5940
10474TIP3   OH252836   4.029   2.664  13.622 -0.5419  0.4780  0.1162
10474TIP3    H152837   3.983   2.748  13.611 -0.3412  0.4670 -1.0011
10474TIP3    H252838   3.981   2.604  13.565  0.9915  0.5357 -1.3089
10475TIP3   OH252839   4.809   6.095   2.311 -0.6323  0.1976 -0.0941
10475TIP3    H152840   4.743   6.124   2.373  0.2651  1.2968  0.3979
10475TIP3    H252841   4.759   6.068   2.234 -1.7330 -0.7906  0.9348
10476TIP3   OH252842   3.508   1.689  15.629 -0.3308 -0.3291  0.1284
10476TIP3    H152843   3.447   1.713  15.560 -0.5069 -1.2575 -0.0589
10476TIP3    H252844   3.584   1.745  15.615 -0.2656 -0.6761 -0.9672
10477TIP3   OH252845   5.668   6.497  14.385 -0.2629 -0.2956 -0.3325
10477TIP3    H152846   5.624   6.572  14.344 -1.3716 -1.4292 -1.3237
10477TIP3    H252847   5.636   6.497  14.475  1.7307  1.8717  0.4817
10478TIP3   OH252848   1.889   3.485  13.504 -0.1737 -0.0444 -0.4700
10478TIP3    H152849   1.866   3.501  13.595  0.7049 -0.9791 -0.0729
10478TIP3    H252850   1.867   3.567  13.460 -2.9829 -0.3873  0.0773
10479TIP3   OH252851   6.229   3.739  12.012 -0.2853  0.1451  0.1941
10479TIP3    H152852   6.265   3.827  12.011  1.8162 -0.6751 -0.5321
10479TIP3    H252853   6.188   3.729  11.926 -0.0350  0.2192  0.0650
10480TIP3   OH252854   5.450   6.135  12.480 -0.3597 -0.2916  0.5199
10480TIP3    H152855   5.385   6.141  12.411 -1.6310 -1.6334  1.5444
10480TIP3    H252856   5.521   6.083  12.441  0.4085  1.5847 -0.7607
10481TIP3   OH252857   6.700   1.266  14.806  0.5065  0.4541 -0.2899
10481TIP3    H152858   6.726   1.174  14.797 -3.6538 -0.7567 -2.3918
10481TIP3    H252859   6.695   1.280  14.900 -1.2365 -2.3780  0.1521
10482TIP3   OH252860   1.273   1.177   0.186  0.0626  0.5520 -0.1125
10482TIP3    H152861   1.232   1.187   0.272 -1.1308 -0.3531 -0.5439
10482TIP3    H252862   1.338   1.247   0.181 -0.6066  1.2764  1.0953
10483TIP3   OH252863   4.368   3.800   0.859 -0.0310  1.1888 -0.4117
10483TIP3    H152864   4.436   3.781   0.924 -0.0518 -1.2402 -0.9899
10483TIP3    H252865   4.286   3.794   0.908  0.0059  0.2912 -0.4351
10484TIP3   OH252866   2.170   4.836  11.711 -0.1005  0.0630  0.3348
10484TIP3    H152867   2.075   4.846  11.705 -0.0362  1.0020  0.7080
10484TIP3    H252868   2.205   4.921  11.681  0.6714 -0.6994 -1.0308
10485TIP3   OH252869   1.587   0.773  12.599 -0.6097 -0.4690  0.0148
10485TIP3    H152870   1.664   0.748  12.650 -0.9183  0.1697  0.8062
10485TIP3    H252871   1.618   0.844  12.543 -0.8169  0.3969  0.9640
10486TIP3   OH252872   4.263   6.102   4.898  0.3908  0.6714 -0.7513
10486TIP3    H152873   4.271   6.133   4.808  1.5936  1.2146 -0.4725
10486TIP3    H252874   4.352   6.082   4.925 -0.2062 -2.5443 -0.7057
10487TIP3   OH252875   4.868   3.416  15.832  0.0281  0.3669 -0.2382
10487TIP3    H152876   4.882   3.485  15.897 -1.4530  0.2804  0.2221
10487TIP3    H252877   4.866   3.463  15.748  1.3403  0.5590 -0.1704
10488TIP3   OH252878   5.936   3.243  13.886  0.0930 -0.0864 -0.2144
10488TIP3    H152879   5.972   3.327  13.859  1.4909 -0.1566  1.2497
10488TIP3    H252880   5.854   3.265  13.931  1.0273  0.6518  1.2114
10489TIP3   OH252881   5.367   4.085  13.963 -0.2923  0.0244  0.1798
10489TIP3    H152882   5.394   4.129  14.044  0.8889 -0.2952 -0.0199
10489TIP3    H252883   5.423   4.122  13.895 -1.2015  0.2086 -0.4831
10490TIP3   OH252884   6.338   4.994  13.605  0.3220  0.1445  0.2044
10490TIP3    H152885   6.262   5.002  13.663 -0.8129 -0.5414 -1.1208
10490TIP3    H252886   6.307   5.026  13.520  1.3573 -0.6398 -0.5007
10491TIP3   OH252887   2.073   4.146  12.792  0.9030  0.6963  0.3739
10491TIP3    H152888   2.049   4.059  12.824 -0.7026  1.0700  0.2900
10491TIP3    H252889   2.118   4.187  12.865  0.6447  0.2016  0.8161
10492TIP3   OH252890   5.042   4.391   3.814 -0.4760 -0.0206 -0.9426
10492TIP3    H152891   5.047   4.298   3.792 -0.4393 -0.6126  1.3384
10492TIP3    H252892   5.132   4.423   3.806 -0.2865 -0.4657 -0.6183
10493TIP3   OH252893   4.229   3.498   3.862  0.0785  0.0676 -0.0128
10493TIP3    H152894   4.134   3.487   3.859  0.1552 -1.0504  0.9210
10493TIP3    H252895   4.243   3.589   3.887 -0.7368  0.2603 -0.2418
10494TIP3   OH252896   6.486   1.610  15.168 -0.5652  0.1462  0.2691
10494TIP3    H152897   6.562   1.665  15.189 -0.3594  0.2244 -0.6264
10494TIP3    H252898   6.465   1.632  15.077 -0.9102 -0.7615  0.1159
10495TIP3   OH252899   3.070   6.503  11.771  0.4798 -0.6874 -0.5659
10495TIP3    H152900   3.130   6.450  11.823  1.7156 -0.2478 -1.4979
10495TIP3    H252901   3.126   6.569  11.729 -0.7126 -0.0068 -1.1398
10496TIP3   OH252902   5.787   3.720   0.360  0.5154 -0.0421  0.3125
10496TIP3    H152903   5.724   3.657   0.395 -0.4201  1.4843  1.5156
10496TIP3    H252904   5.857   3.724   0.425 -0.3138  1.4301  1.1705
10497TIP3   OH252905   3.860   0.983  12.704 -0.5081  0.6809  0.3352
10497TIP3    H152906   3.790   1.037  12.666 -0.9587  0.0725  0.2917
10497TIP3    H252907   3.891   0.930  12.631 -1.5391 -0.6673  0.8473
10498TIP3   OH252908   4.072   4.955   1.268 -0.3139 -0.0676 -0.8555
10498TIP3    H152909   4.167   4.955   1.258 -0.2164  0.0595 -0.0013
10498TIP3    H252910   4.044   5.039   1.231  0.0881  0.6418  0.4083
10499TIP3   OH252911   0.467   3.482   3.081  0.5543  0.8864 -0.5369
10499TIP3    H152912   0.537   3.478   3.016  1.2267  0.9014  0.1603
10499TIP3    H252913   0.454   3.390   3.106  1.8696  1.0354  0.8931
10500TIP3   OH252914   1.800   5.887  14.330 -0.3603  0.8003  0.1027
10500TIP3    H152915   1.839   5.963  14.287  1.3401 -1.8638 -3.5915
10500TIP3    H252916   1.861   5.865  14.401  2.2589 -0.1708 -2.2750
10501TIP3   OH252917   3.883   2.855  16.705 -0.2171 -0.1792  0.5935
10501TIP3    H152918   3.935   2.933  16.686 -0.5866  0.0235  0.4127
10501TIP3    H252919   3.915   2.789  16.642  0.9836 -0.5799  1.5751
10502TIP3   OH252920   2.654   2.572   2.850  0.1102 -0.0835 -0.2656
10502TIP3    H152921   2.719   2.574   2.921 -0.1857  1.1289 -0.0016
10502TIP3    H252922   2.626   2.481   2.845  2.4632 -0.8480 -0.9671
10503TIP3   OH252923   5.504   1.921  15.283 -0.3295  0.4514  0.6291
10503TIP3    H152924   5.512   1.827  15.296 -1.4738  0.4246  1.2663
10503TIP3    H252925   5.540   1.960  15.363 -1.1283  0.5063  0.9652
10504TIP3   OH252926   1.554   6.098  14.174  0.2216 -0.0787  0.1427
10504TIP3    H152927   1.510   6.109  14.258  0.2766  0.3882  0.1101
10504TIP3    H252928   1.611   6.022  14.186  0.2468  0.0028  0.5294
10505TIP3   OH252929   3.928   2.731   0.692  0.4084 -0.0133 -0.3070
10505TIP3    H152930   3.962   2.677   0.621 -0.9203 -1.0941 -0.1609
10505TIP3    H252931   3.973   2.699   0.770  0.7108  0.1103 -0.4283
10506TIP3   OH252932   3.359   5.110  16.189  0.2928  0.0664 -0.2550
10506TIP3    H152933   3.276   5.157  16.181  0.5808  0.7393  0.5270
10506TIP3    H252934   3.350   5.035  16.131 -1.4523 -0.7163  0.9542
10507TIP3   OH252935   2.367   4.769  14.694 -0.9593  0.3844 -0.1968
10507TIP3    H152936   2.341   4.766  14.601  2.4717  0.5178 -1.2908
10507TIP3    H252937   2.400   4.681  14.713  1.2077  1.1641 -0.1026
10508TIP3   OH252938   4.584   4.883   4.921 -0.3635 -0.3924  0.3703
10508TIP3    H152939   4.656   4.827   4.950  2.1300  1.8185 -1.1663
10508TIP3    H252940   4.558   4.932   4.999 -0.9783 -1.9184  1.1694
10509TIP3   OH252941   3.886   4.567   6.302 -0.1819 -0.1981 -0.0647
10509TIP3    H152942   3.949   4.501   6.331  0.1247  0.4100  0.6960
10509TIP3    H252943   3.931   4.614   6.231  0.4244  0.5340  0.7816
10510TIP3   OH252944   2.591   0.028   4.796  0.0857  0.0894 -0.2310
10510TIP3    H152945   2.640   0.077   4.730  0.7672 -0.8751 -0.4512
10510TIP3    H252946   2.500   0.056   4.784  0.0502 -0.7182 -2.2082
10511TIP3   OH252947   5.090   2.867   4.823 -0.0579  0.3192 -0.0494
10511TIP3    H152948   5.134   2.781   4.824 -0.4243  0.0775 -1.5770
10511TIP3    H252949   5.146   2.921   4.767  0.2777  1.1625  1.0669
10512TIP3   OH252950   6.303   0.375  16.261 -0.3344 -0.2334  0.2320
10512TIP3    H152951   6.330   0.366  16.352 -0.4306 -1.8553  0.1394
10512TIP3    H252952   6.385   0.366  16.211 -0.4678 -0.9457  0.1208
10513TIP3   OH252953   4.909   5.987  14.299  0.1065 -0.4386  0.5792
10513TIP3    H152954   5.003   5.989  14.283  0.1154 -0.1898  0.6677
10513TIP3    H252955   4.870   6.022  14.219  0.1533  0.8696  1.1115
10514TIP3   OH252956   2.105   0.206   0.014  0.0444  0.4340 -0.1508
10514TIP3    H152957   2.106   0.293  -0.024 -1.5494  0.2183 -0.7620
10514TIP3    H252958   2.023   0.203   0.065  0.7995 -0.2094  1.0670
10515TIP3   OH252959   4.577   0.010   5.420  0.0765  0.3556  0.0368
10515TIP3    H152960   4.643   0.024   5.352 -0.5174 -2.3836 -1.2401
10515TIP3    H252961   4.493   0.017   5.374 -0.3921 -0.0795  0.7998
10516TIP3   OH252962   1.199   1.682  15.780  0.0215  0.3476 -0.2832
10516TIP3    H152963   1.143   1.626  15.725 -3.3410  3.2816 -0.2057
10516TIP3    H252964   1.201   1.766  15.734  1.7437  1.3014  1.4036
10517TIP3   OH252965   1.218   6.396   5.409  0.2792 -0.2389  0.1990
10517TIP3    H152966   1.214   6.308   5.370  0.1583  0.1024 -0.5662
10517TIP3    H252967   1.159   6.391   5.484  0.8230 -1.0213  0.5944
10518TIP3   OH252968   2.732   1.889   3.441  0.3254  0.2625 -0.3361
10518TIP3    H152969   2.696   1.895   3.529  0.9327 -0.0731 -0.0568
10518TIP3    H252970   2.813   1.840   3.452  0.7072  0.7271 -0.9954
10519TIP3   OH252971   2.159   4.721   0.016  0.1517  0.6798  0.1534
10519TIP3    H152972   2.221   4.712   0.088 -0.1230 -1.4240  0.1849
10519TIP3    H252973   2.086   4.770   0.054  0.2491  0.0769  1.1602
10520TIP3   OH252974   2.567   4.641   4.453 -0.3363 -0.2900 -0.1833
10520TIP3    H152975   2.562   4.697   4.530 -0.7324 -0.9364  0.2764
10520TIP3    H252976   2.512   4.685   4.388 -3.1161 -1.5497  1.1203
10521TIP3   OH252977   1.026   0.959  12.785 -0.1717  0.4793  0.9247
10521TIP3    H152978   1.041   0.953  12.879 -2.0668  1.3812  1.3481
10521TIP3    H252979   0.945   1.010  12.777 -0.1814  0.2360 -1.1860
10522TIP3   OH252980   1.413   6.182   1.141 -0.6077 -0.5032 -0.2349
10522TIP3    H152981   1.363   6.242   1.085 -1.1896 -0.8993 -0.1527
10522TIP3    H252982   1.399   6.215   1.229 -0.1064 -0.1790 -0.2707
10523TIP3   OH252983   3.745   3.629  16.106 -0.4180  0.6620  0.2120
10523TIP3    H152984   3.823   3.676  16.077 -0.1365  1.2539  1.8493
10523TIP3    H252985   3.772   3.537  16.113  0.7631  1.1302  2.6957
10524TIP3   OH252986   6.290   3.899   0.202 -0.3350 -0.3362 -0.5432
10524TIP3    H152987   6.277   3.813   0.161  0.6220 -0.6342 -0.2473
10524TIP3    H252988   6.353   3.943   0.146  1.6631 -1.0757  0.9932
10525TIP3   OH252989   1.270   5.103  14.754  0.2183 -0.0075  0.1140
10525TIP3    H152990   1.251   5.039  14.686  1.2285 -0.1093 -0.0901
10525TIP3    H252991   1.246   5.187  14.715  1.9166  0.0732 -0.8656
10526TIP3   OH252992   5.745   5.926   6.437 -0.4698  0.4354  0.2593
10526TIP3    H152993   5.655   5.959   6.431 -1.5121 -2.0770  0.9332
10526TIP3    H252994   5.785   5.979   6.506 -1.6072  1.1684  0.3939
10527TIP3   OH252995   6.118   4.520   1.213  0.1443  0.7203 -0.1605
10527TIP3    H152996   6.053   4.474   1.266  0.2580 -0.3417 -0.9231
10527TIP3    H252997   6.189   4.457   1.201  0.5191  1.2582 -0.8154
10528TIP3   OH252998   4.957   1.925   3.909 -0.2415  0.1940 -0.4264
10528TIP3    H152999   5.005   1.971   3.840  1.6410  0.6843  1.0905
10528TIP3    H253000   4.924   1.995   3.965 -0.3665 -0.2137  0.0132
10529TIP3   OH253001   4.575   4.811  13.507 -0.0825  0.6825 -0.1999
10529TIP3    H153002   4.655   4.830  13.458 -0.6578  1.1088 -0.9829
10529TIP3    H253003   4.539   4.897  13.529  1.1183  0.5980  2.6426
10530TIP3   OH253004   5.103   4.450   0.787 -0.6422  0.5820  0.5816
10530TIP3    H153005   5.175   4.432   0.727 -0.0990  0.2702  1.3137
10530TIP3    H253006   5.058   4.366   0.795  0.4634  0.0894  2.1247
10531TIP3   OH253007   4.669   5.993  12.436  0.1382 -0.0879  0.0030
10531TIP3    H153008   4.593   5.981  12.492  1.0000  0.2328  1.2860
10531TIP3    H253009   4.738   6.023  12.495  0.4704  2.5683 -1.5815
10532TIP3   OH253010   0.954   6.616  16.210  0.1695 -0.6468 -0.4350
10532TIP3    H153011   0.899   6.553  16.163  0.4632 -0.6352 -0.7903
10532TIP3    H253012   1.018   6.645  16.146  1.8046 -2.0692  0.4917
10533TIP3   OH253013   2.743   1.199   3.067 -0.6997 -0.3380 -0.4905
10533TIP3    H153014   2.675   1.185   3.001 -0.4127 -0.4731 -0.7621
10533TIP3    H253015   2.696   1.205   3.150 -1.2480  1.5568 -0.8893
10534TIP3   OH253016   5.314   0.678   3.996 -0.3289  0.3758  0.3070
10534TIP3    H153017   5.338   0.754   3.943 -0.6106  1.0574  1.1353
10534TIP3    H253018   5.223   0.661   3.974 -0.5864  0.9494  0.9017
10535TIP3   OH253019   3.300   1.211  15.454 -0.4260 -0.4732  0.0409
10535TIP3    H153020   3.234   1.161  15.502  0.7878 -2.1213  0.0856
10535TIP3    H253021   3.384   1.181  15.491  0.3850  1.0505 -0.4830
10536TIP3   OH253022   3.524   0.666   3.003 -0.3539 -0.0691 -0.0818
10536TIP3    H153023   3.468   0.702   2.934 -0.3960 -1.3554 -0.7423
10536TIP3    H253024   3.527   0.572   2.986  2.2128 -0.0436 -0.2199
10537TIP3   OH253025   2.483   3.828  17.244 -0.3341  0.5004 -0.1398
10537TIP3    H153026   2.522   3.781  17.170 -0.6772 -1.9063  1.1136
10537TIP3    H253027   2.406   3.872  17.206 -0.8957 -1.2249 -1.1507
10538TIP3   OH253028   0.718   5.125  11.476  0.3121  0.1600  0.0203
10538TIP3    H153029   0.777   5.118  11.401  2.0892 -0.7961  1.4084
10538TIP3    H253030   0.696   5.034  11.498 -1.4676  0.4954 -0.2712
10539TIP3   OH253031   4.222   1.364   1.931  0.3366 -0.4826  0.1459
10539TIP3    H153032   4.282   1.336   1.861 -0.4315 -2.3207  0.1676
10539TIP3    H253033   4.255   1.319   2.009 -1.2213 -1.7632  0.0972
10540TIP3   OH253034   0.845   3.104   1.934 -0.4264  0.0214  0.2992
10540TIP3    H153035   0.883   3.148   2.009 -0.1350  1.1641 -0.4944
10540TIP3    H253036   0.753   3.128   1.935 -0.4306  0.0054  0.3067
10541TIP3   OH253037   1.348   0.038   6.242  0.0415  0.0855 -0.4053
10541TIP3    H153038   1.373  -0.053   6.257 -2.9534 -0.7107  0.5645
10541TIP3    H253039   1.425   0.089   6.267  1.6351 -2.1171 -0.4907
10542TIP3   OH253040   1.288   3.985  11.269 -0.7186 -0.6449 -0.5938
10542TIP3    H153041   1.259   3.911  11.323 -1.7966  0.0438 -0.2064
10542TIP3    H253042   1.276   4.062  11.324  1.0096 -0.2164 -0.7610
10543TIP3   OH253043   3.961   3.390   1.736  0.3640  0.1942  0.4775
10543TIP3    H153044   4.026   3.446   1.779  1.8362 -1.1583  0.1405
10543TIP3    H253045   4.006   3.359   1.656 -0.5321 -1.1150  0.4519
10544TIP3   OH253046   2.468   1.861   4.639  0.0856 -0.1681 -0.0130
10544TIP3    H153047   2.564   1.856   4.643  0.0046 -3.5209  0.0647
10544TIP3    H253048   2.447   1.843   4.547 -0.4799 -2.1872  0.4653
10545TIP3   OH253049   6.594   3.736  13.688 -0.2516 -0.5288  0.3826
10545TIP3    H153050   6.539   3.659  13.675 -1.6889  0.5556 -0.2736
10545TIP3    H253051   6.535   3.810  13.671  1.1271  0.7081  0.8266
10546TIP3   OH253052   5.945   0.389  17.025  0.4351  0.4162 -0.0889
10546TIP3    H153053   5.858   0.388  16.985  0.8398 -1.6656 -1.0460
10546TIP3    H253054   6.005   0.401  16.951  1.0678 -0.6556  0.2332
10547TIP3   OH253055   3.344   2.710   2.351 -0.4971 -0.4156  0.4204
10547TIP3    H153056   3.321   2.792   2.394 -1.1037 -0.2352 -0.2451
10547TIP3    H253057   3.261   2.675   2.319 -0.2109 -1.1683  0.4771
10548TIP3   OH253058   5.671   6.337   4.577 -0.7522  0.1805  0.2481
10548TIP3    H153059   5.680   6.340   4.482 -0.2536 -0.7281  0.2552
10548TIP3    H253060   5.631   6.421   4.600  1.5787  1.5997 -0.4890
10549TIP3   OH253061   1.007   1.495  15.641 -0.3664 -0.2201  0.0479
10549TIP3    H153062   0.953   1.533  15.571 -1.5566 -0.0029  1.0506
10549TIP3    H253063   0.992   1.401  15.635  1.5985 -0.4905 -1.6315
10550TIP3   OH253064   5.707   6.331  15.106  0.2046  0.5232 -0.1992
10550TIP3    H153065   5.790   6.351  15.148  0.0584  1.2160 -0.2302
10550TIP3    H253066   5.650   6.304  15.178  0.7324 -0.9491 -0.2954
10551TIP3   OH253067   6.747   5.643  12.384 -0.4724  0.0223  1.1226
10551TIP3    H153068   6.671   5.688  12.421  0.9768  1.4552  2.4984
10551TIP3    H253069   6.760   5.567  12.442 -0.0995  0.5028  1.6812
10552TIP3   OH253070   4.278   0.706   5.511  0.6727 -0.5693 -0.2802
10552TIP3    H153071   4.196   0.692   5.463  0.9977  0.2420 -1.0955
10552TIP3    H253072   4.250   0.720   5.602 -0.3053  1.6658 -0.8484
10553TIP3   OH253073   5.979   5.671  11.913 -0.1291  0.8993  0.4167
10553TIP3    H153074   5.912   5.655  11.980 -0.3163  0.4937  0.1346
10553TIP3    H253075   6.052   5.614  11.938 -0.8309 -0.5180 -0.6384
10554TIP3   OH253076   2.908   1.238   1.308  0.2188  0.5631 -0.4364
10554TIP3    H153077   2.821   1.278   1.310  0.4516  1.0697 -0.2274
10554TIP3    H253078   2.964   1.305   1.270  0.4186  0.0295 -1.1034
10555TIP3   OH253079   1.890   4.120  13.068 -0.8604 -0.0408  0.8114
10555TIP3    H153080   1.893   4.090  13.159  2.3462 -2.2507  0.1617
10555TIP3    H253081   1.954   4.191  13.064  0.0036 -0.8214  0.1044
10556TIP3   OH253082   4.206   5.915  13.846  0.0661 -0.0781  0.5122
10556TIP3    H153083   4.187   5.985  13.784  0.0358 -1.0942 -0.6513
10556TIP3    H253084   4.127   5.862  13.848  0.0464 -0.0382  1.4733
10557TIP3   OH253085   2.301   4.820  14.950  0.0519  0.4538 -0.8124
10557TIP3    H153086   2.317   4.792  14.860  2.6216 -0.1356 -0.2721
10557TIP3    H253087   2.337   4.909  14.954  0.2966  0.3343 -0.2858
10558TIP3   OH253088   5.002   2.495   5.922 -0.2715  0.6941  0.0989
10558TIP3    H153089   5.033   2.571   5.873  0.5118 -0.1564 -0.7752
10558TIP3    H253090   5.071   2.479   5.986  1.5233 -1.5040 -2.1728
10559TIP3   OH253091   1.056   5.961   1.292 -0.7313  0.2892 -0.2661
10559TIP3    H153092   0.981   6.009   1.327 -0.6369  0.0969  0.2088
10559TIP3    H253093   1.051   5.875   1.333  1.2455  1.1030  1.9431
10560TIP3   OH253094   6.380   1.541  13.024 -0.0306  0.3052  0.1396
10560TIP3    H153095   6.390   1.556  12.930  1.7344  0.5359  0.3200
10560TIP3    H253096   6.337   1.620  13.057 -2.6466 -0.6524 -0.7186
10561TIP3   OH253097   0.476   5.638  12.154 -0.7683  0.6982  0.0675
10561TIP3    H153098   0.390   5.647  12.195 -0.3876 -1.0693  1.3613
10561TIP3    H253099   0.536   5.683  12.213 -0.5244  0.0676  0.3107
10562TIP3   OH253100   0.600   4.959   6.101 -0.0637  0.2678 -0.4045
10562TIP3    H153101   0.599   5.030   6.038 -0.7503  0.1663 -0.5211
10562TIP3    H253102   0.508   4.944   6.122  0.0582 -0.6666 -0.4790
10563TIP3   OH253103   0.275   6.332   2.950  0.2893 -0.4868 -0.2537
10563TIP3    H153104   0.280   6.402   2.886  3.2357 -1.1691 -0.8734
10563TIP3    H253105   0.218   6.266   2.910 -0.8783  0.6469 -0.5137
10564TIP3   OH253106   6.322   5.876  14.772 -0.7420  0.0142 -0.2062
10564TIP3    H153107   6.329   5.954  14.718 -2.2270  0.3714  0.0723
10564TIP3    H253108   6.393   5.884  14.836 -1.8285  1.9649  0.8265
10565TIP3   OH253109   6.571   3.052  13.690 -0.4427  0.1060  0.0640
10565TIP3    H153110   6.665   3.042  13.705 -0.5353  1.5977  2.0827
10565TIP3    H253111   6.563   3.134  13.641 -0.7301  0.5628  0.8607
10566TIP3   OH253112   4.366   2.279  12.337  0.3761  0.2795 -0.5064
10566TIP3    H153113   4.356   2.278  12.432  1.3006 -1.2187 -0.4051
10566TIP3    H253114   4.440   2.222  12.319  0.1150  0.3961 -2.1489
10567TIP3   OH253115   5.205   1.530   5.691 -0.1114  0.2633  0.1859
10567TIP3    H153116   5.265   1.465   5.727  0.3515  0.6293  0.0846
10567TIP3    H253117   5.183   1.496   5.604 -0.7113 -0.2854  0.5348
10568TIP3   OH253118   2.276   5.568  15.036  0.1785 -1.1241 -0.1419
10568TIP3    H153119   2.206   5.516  14.998  0.3927 -2.3804  1.1021
10568TIP3    H253120   2.355   5.516  15.023  0.7691 -0.1197 -0.7695
10569TIP3   OH253121   3.150   3.940   1.253  0.4143  0.2401 -0.1384
10569TIP3    H153122   3.106   4.000   1.193 -1.9455 -1.1784  0.0237
10569TIP3    H253123   3.100   3.948   1.335  1.7300 -0.0166  0.7173
10570TIP3   OH253124   4.367   5.974  16.928  0.2535 -0.3143 -0.2729
10570TIP3    H153125   4.430   5.923  16.877  0.7671  0.4830 -0.4675
10570TIP3    H253126   4.353   5.923  17.008  0.6112 -0.8430 -0.5403
10571TIP3   OH253127   5.989   0.454  12.447 -0.1909 -0.5806  0.4079
10571TIP3    H153128   6.077   0.450  12.485 -0.2364 -0.6887  0.5035
10571TIP3    H253129   5.933   0.410  12.511 -0.4521  0.2280  0.7423
10572TIP3   OH253130   1.673   3.662  13.462 -0.2134  0.4431  0.1389
10572TIP3    H153131   1.630   3.605  13.526 -1.0066  1.8367  0.9124
10572TIP3    H253132   1.602   3.711  13.422  0.4356  0.8027 -0.6061
10573TIP3   OH253133   5.565   3.399   0.701 -0.3298 -0.1869  0.2207
10573TIP3    H153134   5.642   3.344   0.689 -1.4706 -1.6625 -0.7425
10573TIP3    H253135   5.556   3.446   0.618 -1.8589 -1.9584 -0.7023
10574TIP3   OH253136   2.200   6.172  11.303 -0.0491 -0.1847  0.1265
10574TIP3    H153137   2.223   6.265  11.311 -1.1100  0.1308 -0.3098
10574TIP3    H253138   2.116   6.165  11.348  0.2092 -1.0224  0.4910
10575TIP3   OH253139   0.256   6.112   3.664 -0.0609 -0.4378  0.4549
10575TIP3    H153140   0.205   6.095   3.744 -0.4263 -1.0164  0.1062
10575TIP3    H253141   0.293   6.026   3.641  0.4184 -0.1794  0.2565
10576TIP3   OH253142   0.034   3.101  14.279  0.3983  0.4565 -0.0060
10576TIP3    H153143   0.053   3.008  14.276 -3.4947 -0.4922 -1.9097
10576TIP3    H253144  -0.017   3.112  14.359  1.0042  1.0510  0.3128
10577TIP3   OH253145   0.819   5.750   4.745 -0.1346  0.6336  0.0093
10577TIP3    H153146   0.838   5.671   4.695  0.9203  0.6547  0.3399
10577TIP3    H253147   0.731   5.736   4.780  0.0880 -0.4521  0.1665
10578TIP3   OH253148   5.297   5.474   0.569 -0.2973 -0.0094  0.1107
10578TIP3    H153149   5.323   5.495   0.659  1.1662  1.2757 -0.5786
10578TIP3    H253150   5.206   5.444   0.578 -0.4579  0.8380  1.9288
10579TIP3   OH253151   3.449   6.469   1.674  0.3218 -0.0807 -0.0149
10579TIP3    H153152   3.515   6.503   1.613 -0.5876  1.9901  0.0761
10579TIP3    H253153   3.497   6.407   1.729  1.6673 -0.3098 -1.3825
10580TIP3   OH253154   0.506   1.122   1.775 -0.0833  0.0690  0.4821
10580TIP3    H153155   0.415   1.141   1.752  0.7649  1.4904 -1.9880
10580TIP3    H253156   0.524   1.182   1.848 -1.7214 -1.8749  2.6478
10581TIP3   OH253157   3.839   0.964   6.149 -0.3325 -0.5073  0.1816
10581TIP3    H153158   3.909   0.899   6.149  0.4131  0.2497 -1.3056
10581TIP3    H253159   3.761   0.915   6.176  0.5590 -1.5938  0.8717
10582TIP3   OH253160   2.928   2.130  11.122  0.3548  0.1768 -0.3785
10582TIP3    H153161   2.957   2.047  11.160 -1.2935 -0.2545  0.0061
10582TIP3    H253162   2.901   2.109  11.033 -0.0201  0.3008 -0.2977
10583TIP3   OH253163   6.246   5.593  15.200 -0.3641  0.3877 -0.1756
10583TIP3    H153164   6.180   5.532  15.166 -0.6864  1.4220 -1.4890
10583TIP3    H253165   6.205   5.679  15.193 -0.0659  0.7653  1.9958
10584TIP3   OH253166   3.494   0.510   2.137  0.3934  0.0133  0.5498
10584TIP3    H153167   3.433   0.477   2.203 -0.9033  0.2319 -0.5148
10584TIP3    H253168   3.525   0.432   2.092  0.1069 -0.0135  0.4032
10585TIP3   OH253169   3.426   6.501  15.757  0.2020 -0.4464  0.3486
10585TIP3    H153170   3.521   6.492  15.743  0.1190 -0.6903 -0.1026
10585TIP3    H253171   3.418   6.563  15.829  0.7463 -1.7511  1.5888
10586TIP3   OH253172   2.034   5.644  15.744 -0.2924  0.0946 -0.3113
10586TIP3    H153173   1.942   5.620  15.730  0.0109 -1.7022  0.4907
10586TIP3    H253174   2.084   5.579  15.694  0.5722  0.5553 -0.0801
10587TIP3   OH253175   1.175   0.146   0.129 -0.2974 -0.1281  0.4954
10587TIP3    H153176   1.154   0.236   0.105  1.8528  0.3426  0.2283
10587TIP3    H253177   1.156   0.095   0.049  1.3148  0.5669 -0.3716
10588TIP3   OH253178   6.571   6.118  12.773 -0.1959  0.2069 -0.6635
10588TIP3    H153179   6.570   6.029  12.737 -1.1139 -0.2280  0.3931
10588TIP3    H253180   6.655   6.124  12.818  1.0837  0.8404 -2.9785
10589TIP3   OH253181   2.701   4.771  14.029 -0.0029  0.4909 -0.4791
10589TIP3    H153182   2.645   4.759  13.952  0.7669  2.2424 -1.3837
10589TIP3    H253183   2.730   4.683  14.053 -1.5941 -0.2498 -1.1477
10590TIP3   OH253184   4.359   1.857  15.163  0.0377  0.5437  0.2578
10590TIP3    H153185   4.314   1.925  15.212  1.0191 -0.6466  3.0127
10590TIP3    H253186   4.445   1.849  15.205  0.9444 -0.6301 -1.6546
10591TIP3   OH253187   4.123   5.278  15.845  0.6755  0.2703  0.6792
10591TIP3    H153188   4.099   5.209  15.908 -0.6555 -0.1672 -0.2470
10591TIP3    H253189   4.214   5.261  15.824  0.2691 -1.5080  0.1759
10592TIP3   OH253190   3.202   4.410  13.001 -0.1733  0.1831 -0.1596
10592TIP3    H153191   3.217   4.500  13.029 -1.7153  1.0617 -1.9150
10592TIP3    H253192   3.136   4.417  12.932  0.3258 -2.2149 -0.9878
10593TIP3   OH253193   2.989   6.335  13.905 -0.1789 -0.8341 -0.1126
10593TIP3    H153194   2.932   6.272  13.948 -1.4489 -0.2937 -0.9460
10593TIP3    H253195   2.942   6.418  13.911  0.5157 -0.3710 -0.8274
10594TIP3   OH253196   5.241   6.472   0.517 -0.0373 -0.3452 -0.2789
10594TIP3    H153197   5.271   6.522   0.592  0.7800 -0.0801 -0.7704
10594TIP3    H253198   5.211   6.538   0.454 -1.3293 -0.5863  0.0516
10595TIP3   OH253199   6.629   3.601   0.081 -0.1331  0.4448 -0.1943
10595TIP3    H153200   6.711   3.586   0.128 -0.9334 -0.7733  0.8941
10595TIP3    H253201   6.563   3.611   0.149 -1.3520 -1.4638 -0.9918
10596TIP3   OH253202   5.270   4.717   5.231 -0.2117 -0.0361 -0.5905
10596TIP3    H153203   5.228   4.796   5.265  2.7319  1.2587  0.3573
10596TIP3    H253204   5.290   4.738   5.140 -0.1809 -0.0397 -0.5842
10597TIP3   OH253205   5.330   6.387   3.072  0.5831  0.5833  0.1445
10597TIP3    H153206   5.257   6.381   3.134  1.5806  3.9610  1.8952
10597TIP3    H253207   5.406   6.357   3.121  0.8559 -0.2303 -0.7404
10598TIP3   OH253208   1.599   2.738  11.865  0.2655 -0.2181  0.0856
10598TIP3    H153209   1.642   2.725  11.781 -0.9783 -1.1320 -0.4349
10598TIP3    H253210   1.527   2.675  11.865 -1.0307  1.2093  0.9551
10599TIP3   OH253211   0.341   3.345   6.389 -0.0759  0.3155  0.2938
10599TIP3    H153212   0.407   3.350   6.458  0.3812 -0.7168 -0.0504
10599TIP3    H253213   0.330   3.251   6.373 -1.7418  0.4608  0.4446
10600TIP3   OH253214   3.531   1.743   1.039  0.6113  0.0904  0.6466
10600TIP3    H153215   3.471   1.712   1.107  0.7043 -0.3844  0.5133
10600TIP3    H253216   3.501   1.832   1.020 -0.8158 -0.5420 -0.2700
10601TIP3   OH253217   6.199   3.296   0.940 -0.5191  0.1385  0.7987
10601TIP3    H153218   6.246   3.373   0.907 -0.2097  0.1257  1.1962
10601TIP3    H253219   6.151   3.329   1.016 -0.4050 -0.0569  0.9558
10602TIP3   OH253220   0.210   0.457   5.197  0.5144 -0.1113 -0.3246
10602TIP3    H153221   0.238   0.373   5.160 -1.3159 -0.5679 -0.7736
10602TIP3    H253222   0.189   0.438   5.288  0.5496 -0.0202 -0.2972
10603TIP3   OH253223   6.556   4.723  15.840  0.2225  0.6790  0.0086
10603TIP3    H153224   6.581   4.810  15.810  0.6937 -0.1201 -2.0870
10603TIP3    H253225   6.491   4.693  15.775  1.1443 -1.0741 -0.1673
10604TIP3   OH253226   5.988   0.492  16.026  0.1282 -0.6158  0.0801
10604TIP3    H153227   5.944   0.407  16.020  1.2381 -1.4596  2.6258
10604TIP3    H253228   5.985   0.527  15.937 -2.0303 -2.4492 -0.6547
10605TIP3   OH253229   5.601   0.014  10.614  0.2700  0.1974 -0.2389
10605TIP3    H153230   5.546   0.090  10.635 -0.3359 -0.0605 -0.8299
10605TIP3    H253231   5.563  -0.057  10.665  1.2967  0.4311  0.8972
10606TIP3   OH253232   1.319   5.393   2.725  0.2012  0.3494 -0.3923
10606TIP3    H153233   1.227   5.414   2.713  0.0304  0.3543  0.8094
10606TIP3    H253234   1.343   5.344   2.646 -1.7528 -2.8039  0.8013
10607TIP3   OH253235   2.057   2.112  12.612 -0.0441 -0.1583  0.7400
10607TIP3    H153236   1.998   2.037  12.622 -0.0016 -0.5121 -1.1638
10607TIP3    H253237   2.010   2.171  12.553  0.6496  0.5051  0.8411
10608TIP3   OH253238   2.856   0.798  16.262  0.1441  0.2569  0.2363
10608TIP3    H153239   2.825   0.742  16.191 -1.7617  2.7088 -0.9643
10608TIP3    H253240   2.920   0.856  16.221  0.8478  0.1347  1.1137
10609TIP3   OH253241   2.075   2.430  11.524  0.2446  0.3499  0.2670
10609TIP3    H153242   2.081   2.454  11.432  0.2072  1.7495  0.6032
10609TIP3    H253243   2.166   2.427  11.555  0.2083  0.9915  0.4445
10610TIP3   OH253244   1.336   5.811  12.174  0.2231 -0.5883  0.0233
10610TIP3    H153245   1.348   5.904  12.154 -0.2633 -0.7175 -0.9366
10610TIP3    H253246   1.284   5.778  12.101 -3.5179 -0.6533  2.4536
10611TIP3   OH253247   0.047   5.128  15.010 -0.2436  0.2808  0.3577
10611TIP3    H153248   0.086   5.165  15.089  2.0813 -1.4178  0.1006
10611TIP3    H253249  -0.048   5.135  15.025  0.1247  1.8875  2.3466
10612TIP3   OH253250   4.619   4.686   1.314  0.5854  0.1627  0.4220
10612TIP3    H153251   4.698   4.631   1.312  0.2174 -0.3881 -1.5396
10612TIP3    H253252   4.613   4.722   1.225 -0.8355  0.9874  0.8206
10613TIP3   OH253253   5.441   3.233  15.714 -0.0344 -0.2920  0.2153
10613TIP3    H153254   5.373   3.182  15.672  0.6613 -0.7433 -0.3788
10613TIP3    H253255   5.506   3.168  15.742  1.3241  0.2998 -1.3939
10614TIP3   OH253256   4.801   2.170  13.174 -0.1209  0.6742  0.4031
10614TIP3    H153257   4.776   2.080  13.151 -0.3562  0.9314 -0.3730
10614TIP3    H253258   4.896   2.166  13.187 -0.0670  0.3926 -0.0464
10615TIP3   OH253259   3.606   2.370   1.486 -0.3602  0.6314  0.1361
10615TIP3    H153260   3.544   2.338   1.420 -0.6601  0.7701  0.3467
10615TIP3    H253261   3.595   2.310   1.560  0.3831  0.1348 -0.1507
10616TIP3   OH253262   2.479   0.356   4.334  0.0215 -0.1861  0.1081
10616TIP3    H153263   2.413   0.426   4.343  0.4684  0.6665 -2.3421
10616TIP3    H253264   2.563   0.401   4.346  0.2607 -0.6523  0.1811
10617TIP3   OH253265   0.478   5.731  14.022 -0.2807  0.2870 -0.2140
10617TIP3    H153266   0.448   5.721  14.113 -1.9936  1.3145 -0.6134
10617TIP3    H253267   0.404   5.773  13.977  0.6042 -0.0155 -2.0473
10618TIP3   OH253268   4.945   1.068   0.193 -0.1692 -0.1509 -0.3108
10618TIP3    H153269   5.021   1.055   0.135 -1.1231  0.7393 -1.8197
10618TIP3    H253270   4.882   1.117   0.139 -1.7578 -0.7360  0.9575
10619TIP3   OH253271   4.934   6.603   3.333 -0.4903  0.3395  0.1609
10619TIP3    H153272   5.027   6.599   3.353 -0.6166 -1.3833  0.5302
10619TIP3    H253273   4.921   6.692   3.300  1.2709  0.6090  0.0842
10620TIP3   OH253274   0.026   5.395  11.767 -0.1989 -0.1322 -0.0734
10620TIP3    H153275   0.095   5.340  11.731 -1.3162 -1.4177 -0.3538
10620TIP3    H253276   0.004   5.354  11.850  0.4459  1.2039  0.7995
10621TIP3   OH253277   0.619   0.709   3.708 -0.9418  0.6092 -0.2338
10621TIP3    H153278   0.666   0.686   3.627  0.5446  0.7041  0.5709
10621TIP3    H253279   0.547   0.765   3.679 -0.5499  0.4847 -1.5087
10622TIP3   OH253280   0.338   3.916  16.948 -0.2176 -0.2752 -0.0303
10622TIP3    H153281   0.313   3.941  17.037 -1.0683  0.1688 -0.3821
10622TIP3    H253282   0.287   3.837  16.930 -0.1044 -0.3205 -0.1532
10623TIP3   OH253283   1.215   2.024  16.419  0.3308 -0.2696 -0.1784
10623TIP3    H153284   1.228   1.947  16.363 -0.6132  0.3612 -1.3099
10623TIP3    H253285   1.188   1.987  16.503 -0.2262 -1.1921 -0.7414
10624TIP3   OH253286   2.583   4.099  12.391  0.5419  0.8137 -0.1241
10624TIP3    H153287   2.623   4.062  12.313 -1.5184  2.0620 -1.8741
10624TIP3    H253288   2.654   4.146  12.435  2.1181 -1.2571 -0.2764
10625TIP3   OH253289   4.565   1.089   4.275 -0.2626  0.0056  0.2461
10625TIP3    H153290   4.659   1.078   4.290 -0.4175 -0.6609  0.7888
10625TIP3    H253291   4.552   1.062   4.184 -0.1392 -1.3197  0.6036
10626TIP3   OH253292   3.860   1.388  12.513  0.0773  0.2055 -0.1166
10626TIP3    H153293   3.850   1.293  12.499 -1.0422  0.3286 -0.2935
10626TIP3    H253294   3.777   1.425  12.481  0.6169  1.2761 -0.2993
10627TIP3   OH253295   2.522   4.463   0.896  0.0029  0.1575  0.2885
10627TIP3    H153296   2.489   4.546   0.864  0.2453 -0.4071 -1.5551
10627TIP3    H253297   2.603   4.449   0.847  1.2639 -0.0637  2.2953
10628TIP3   OH253298   4.750   6.751   5.209  0.3713  0.0253  0.3580
10628TIP3    H153299   4.747   6.804   5.129  0.1147  0.4199  0.6306
10628TIP3    H253300   4.844   6.740   5.227  0.4331 -0.1675 -0.0629
10629TIP3   OH253301   5.847   4.782  11.399  0.1154  0.4841  0.5358
10629TIP3    H153302   5.833   4.710  11.337  0.3194  2.8208 -2.4400
10629TIP3    H253303   5.940   4.778  11.420  0.3019  0.3938 -0.2896
10630TIP3   OH253304   1.917   2.008   4.659 -1.1212  0.0207 -0.4142
10630TIP3    H153305   1.980   2.078   4.645 -0.6378 -0.1209  0.9775
10630TIP3    H253306   1.949   1.936   4.604 -0.7182  0.3347 -0.5964
10631TIP3   OH253307   0.830   2.729   5.107 -0.4608 -0.5504  0.2849
10631TIP3    H153308   0.868   2.729   5.195 -0.4024  1.8082  0.3110
10631TIP3    H253309   0.903   2.702   5.050 -0.0064 -0.3805  0.7767
10632TIP3   OH253310   4.324   3.715   3.419 -0.3496 -0.2604 -0.4398
10632TIP3    H153311   4.274   3.783   3.373 -2.4907 -2.1860 -1.1566
10632TIP3    H253312   4.299   3.726   3.511  0.6272  0.9191 -0.2881
10633TIP3   OH253313   5.419   2.820  14.368 -0.0215 -0.1237 -0.5755
10633TIP3    H153314   5.472   2.896  14.344 -0.6327  0.7641  0.7871
10633TIP3    H253315   5.360   2.852  14.436 -1.2768 -1.4655 -0.9741
10634TIP3   OH253316   4.688   1.299  14.606  0.1010 -0.0828 -0.2145
10634TIP3    H153317   4.699   1.253  14.690  2.2600 -2.5281 -1.7086
10634TIP3    H253318   4.681   1.391  14.631 -0.3560 -0.8016  2.7133
10635TIP3   OH253319   3.846   5.308   2.668 -0.1568 -0.3580  0.1030
10635TIP3    H153320   3.929   5.270   2.697 -0.4769 -0.6604  0.6452
10635TIP3    H253321   3.844   5.395   2.707  1.6439  1.2732 -2.9927
10636TIP3   OH253322   6.072   2.588   3.925 -0.0364 -0.0204 -0.1128
10636TIP3    H153323   6.041   2.678   3.937  1.1441  0.3142  0.6003
10636TIP3    H253324   6.166   2.597   3.910  0.1083 -1.1447  0.0336
10637TIP3   OH253325   4.005   4.460  12.279  0.0844  0.4211  0.1878
10637TIP3    H153326   3.960   4.394  12.333  2.7683 -0.5608  1.4060
10637TIP3    H253327   4.069   4.410  12.230  0.6274  1.8869 -0.6244
10638TIP3   OH253328   4.045   3.285   0.599  0.1532 -0.2713  0.6142
10638TIP3    H153329   4.003   3.267   0.516 -0.2464 -1.3393  1.0334
10638TIP3    H253330   4.083   3.201   0.626  2.1518  0.5212  0.4894
10639TIP3   OH253331   5.501   3.326   2.807  0.1917  0.9881 -0.7508
10639TIP3    H153332   5.489   3.231   2.803  1.4850  0.7409  0.3917
10639TIP3    H253333   5.550   3.348   2.728 -0.0812  0.6902 -1.0015
10640TIP3   OH253334   2.445   6.279  15.407  0.1094  0.7467 -0.8489
10640TIP3    H153335   2.508   6.209  15.425 -0.3757  0.2450 -1.0552
10640TIP3    H253336   2.411   6.304  15.493 -1.1939 -0.6844 -0.9092
10641TIP3   OH253337   0.628   2.508  16.625  0.5462  0.2368  0.2884
10641TIP3    H153338   0.624   2.538  16.716 -0.9405 -0.5595  0.5115
10641TIP3    H253339   0.720   2.488  16.610  0.6965 -0.3347  1.8620
10642TIP3   OH253340   5.098   5.055   4.434  0.0692  0.1528 -1.0026
10642TIP3    H153341   5.097   5.103   4.352 -3.9938  2.6417  0.1604
10642TIP3    H253342   5.034   4.985   4.422  1.3420 -1.1036 -0.7046
10643TIP3   OH253343   3.171   6.002  10.147 -0.0058 -0.5281  0.3456
10643TIP3    H153344   3.192   6.085  10.189  0.1747  0.1531 -1.0235
10643TIP3    H253345   3.075   5.996  10.152 -0.2552  0.9542 -1.6051
10644TIP3   OH253346   0.739   0.529   5.979  0.5903  0.0669  0.2687
10644TIP3    H153347   0.759   0.622   5.967 -0.1364  0.2100  0.1448
10644TIP3    H253348   0.655   0.528   6.024  0.6248 -0.5302  0.3266
10645TIP3   OH253349   2.772   5.743  14.746 -0.0592 -0.1120  0.2933
10645TIP3    H153350   2.782   5.708  14.657  1.0952  1.0046 -0.0536
10645TIP3    H253351   2.702   5.808  14.740 -0.7001 -0.7764  0.4493
10646TIP3   OH253352   0.815   1.295  14.527 -0.2088 -0.2588 -0.3041
10646TIP3    H153353   0.735   1.347  14.522  0.6725  1.1065 -0.8241
10646TIP3    H253354   0.789   1.213  14.570 -1.4508  0.9785  1.3863
10647TIP3   OH253355   5.977   1.715   4.420 -0.2883 -0.2659  0.5337
10647TIP3    H153356   6.041   1.750   4.482  1.1342 -1.5940 -0.1475
10647TIP3    H253357   6.011   1.739   4.334 -1.8653  0.9034  0.1730
10648TIP3   OH253358   6.572   0.718   4.661 -0.2669 -0.0999  0.5278
10648TIP3    H153359   6.635   0.789   4.676 -0.1750 -0.2525  0.8729
10648TIP3    H253360   6.503   0.733   4.725 -1.4479  1.0438 -0.9537
10649TIP3   OH253361   3.861   1.830  11.287  0.1439  0.0365 -0.1056
10649TIP3    H153362   3.817   1.790  11.212 -1.1407 -0.3739  0.8365
10649TIP3    H253363   3.938   1.775  11.303  0.1318 -0.1818 -0.7740
10650TIP3   OH253364   2.320   4.389   2.981 -0.2045  0.0600  0.2218
10650TIP3    H153365   2.375   4.310   2.984  0.0409  0.2523  2.0937
10650TIP3    H253366   2.347   4.439   3.058 -2.6691  0.4081  0.9188
10651TIP3   OH253367   1.272   4.232   3.883 -0.2200  0.3616 -0.1301
10651TIP3    H153368   1.245   4.141   3.883  1.6919 -0.2809  1.2659
10651TIP3    H253369   1.321   4.242   3.964 -0.8619  2.8037  0.0337
10652TIP3   OH253370   6.607   0.753   5.240 -0.3736  0.6140 -0.2970
10652TIP3    H153371   6.583   0.811   5.169 -2.1519  0.7367  0.3654
10652TIP3    H253372   6.552   0.780   5.314  0.9314  0.0547  0.9423
10653TIP3   OH253373   2.341   2.102  15.249  0.2616 -0.2938  0.3050
10653TIP3    H153374   2.388   2.077  15.328 -1.3424 -1.6844  0.8575
10653TIP3    H253375   2.259   2.140  15.280 -0.0991 -0.2343 -0.6783
10654TIP3   OH253376   0.085   0.422  13.698  0.7262 -0.1829 -0.4115
10654TIP3    H153377   0.017   0.469  13.650 -0.2645 -2.4727 -1.3907
10654TIP3    H253378   0.159   0.483  13.701 -1.1233  2.1823  0.2277
10655TIP3   OH253379   1.351   5.755  17.086 -0.0692  0.0289  0.5573
10655TIP3    H153380   1.407   5.682  17.113  1.5385  1.2708  0.6636
10655TIP3    H253381   1.293   5.770  17.161  1.4204  0.6165  1.6191
10656TIP3   OH253382   1.210   4.860   4.572 -0.0829 -0.2016  0.2387
10656TIP3    H153383   1.121   4.883   4.596  0.0550  1.0832 -0.4228
10656TIP3    H253384   1.236   4.927   4.509  1.2149 -0.7842  0.1287
10657TIP3   OH253385   4.900   6.206   5.374 -0.1764 -0.1845  0.1716
10657TIP3    H153386   4.814   6.249   5.370  1.1603  2.6902  0.2301
10657TIP3    H253387   4.895   6.138   5.306 -3.0416 -1.3721  1.3711
10658TIP3   OH253388   3.528   4.753  14.413  0.3454 -0.9011  0.1859
10658TIP3    H153389   3.530   4.730  14.320  1.4023  0.0196 -0.0369
10658TIP3    H253390   3.620   4.753  14.439  0.3021  1.5001  0.5332
10659TIP3   OH253391   1.662   0.164  15.800  0.1108  0.4597 -0.0318
10659TIP3    H153392   1.700   0.168  15.887 -0.0016 -0.6366  0.0904
10659TIP3    H253393   1.607   0.242  15.794 -1.4424 -0.4227  1.6491
10660TIP3   OH253394   1.258   5.963  12.425 -0.0224  0.0052 -0.4360
10660TIP3    H153395   1.230   5.872  12.414  2.4675 -1.0109  0.9056
10660TIP3    H253396   1.328   5.974  12.361 -0.2490  0.9630 -0.5293
10661TIP3   OH253397   5.052   5.438   5.327  0.1918  0.1898  0.2970
10661TIP3    H153398   4.957   5.430   5.327  0.2764 -1.1967 -0.8106
10661TIP3    H253399   5.081   5.377   5.395  0.3123  0.2568  0.3063
10662TIP3   OH253400   3.257   6.095   6.402 -0.0619 -0.0638  0.0983
10662TIP3    H153401   3.265   6.018   6.459 -1.1086 -2.2449 -2.4548
10662TIP3    H253402   3.347   6.115   6.377  0.1766 -1.0399  0.1207
10663TIP3   OH253403   1.575   3.988  15.292  1.1745  0.1024 -0.2312
10663TIP3    H153404   1.562   4.082  15.301  1.3526  0.0891  0.1860
10663TIP3    H253405   1.670   3.977  15.287  1.1134  0.1926 -3.1062
10664TIP3   OH253406   3.659   2.013   5.940  0.3140 -0.6540 -0.2390
10664TIP3    H153407   3.704   2.028   5.857 -1.2290 -1.1056 -1.1971
10664TIP3    H253408   3.726   1.977   5.998  1.6372  0.5296 -0.9888
10665TIP3   OH253409   4.645   6.625  11.228 -0.4203 -0.3177  0.3071
10665TIP3    H153410   4.676   6.551  11.279 -0.6341  0.6076  1.8268
10665TIP3    H253411   4.725   6.672  11.204 -0.3869 -0.1171  0.8015
10666TIP3   OH253412   5.310   6.015  10.687  0.0711 -0.2706 -0.3216
10666TIP3    H153413   5.350   5.967  10.759 -1.9544 -0.3384  0.8481
10666TIP3    H253414   5.338   5.969  10.608  0.7977 -1.3713  0.5510
10667TIP3   OH253415   3.452   2.929   3.011 -0.1907 -0.2879  0.2598
10667TIP3    H153416   3.449   3.022   3.032  0.0791 -0.6411  1.9645
10667TIP3    H253417   3.409   2.886   3.085  0.6360 -1.5973  0.0139
10668TIP3   OH253418   2.739   0.500   1.471  0.0884 -0.5387 -0.2154
10668TIP3    H153419   2.820   0.456   1.497  0.9967  1.5115  0.5905
10668TIP3    H253420   2.677   0.478   1.540 -0.0571 -2.0418 -0.7879
10669TIP3   OH253421   1.281   2.477  12.287  0.1696  0.0070  0.0985
10669TIP3    H153422   1.287   2.568  12.261  2.5277 -0.4336 -1.1756
10669TIP3    H253423   1.197   2.470  12.332  0.1414  2.8670  0.6310
10670TIP3   OH253424   5.063   4.425   4.486  0.0395 -0.4421 -0.2630
10670TIP3    H153425   5.141   4.370   4.490 -0.6233 -1.3941  0.2534
10670TIP3    H253426   5.004   4.377   4.427 -0.3197  0.0311 -0.2903
10671TIP3   OH253427   5.326   5.421  13.159 -0.1689  0.4219 -0.1919
10671TIP3    H153428   5.342   5.499  13.212 -0.4466 -0.2166  0.8734
10671TIP3    H253429   5.410   5.402  13.118 -0.6491  2.5993 -2.3493
10672TIP3   OH253430   5.686   1.052   0.201 -0.3346  0.3005 -0.1827
10672TIP3    H153431   5.660   1.086   0.115 -0.1960 -2.2310 -1.3281
10672TIP3    H253432   5.671   0.958   0.194 -0.4698  0.0484  2.6728
10673TIP3   OH253433   0.310   5.036  14.320 -0.1661 -0.4013 -0.2593
10673TIP3    H153434   0.293   4.948  14.286  1.6782 -0.2089 -1.8648
10673TIP3    H253435   0.350   5.021  14.406 -1.3652 -1.0484  0.2074
10674TIP3   OH253436   3.407   6.723  15.382 -0.5971  0.0243  0.0341
10674TIP3    H153437   3.411   6.629  15.367 -1.7460  0.0703 -0.7077
10674TIP3    H253438   3.430   6.735  15.474  0.4609 -0.8863 -0.0964
10675TIP3   OH253439   2.151   5.386  15.367  0.6105 -0.8162  0.2213
10675TIP3    H153440   2.065   5.427  15.351  1.3086  0.7615  0.3412
10675TIP3    H253441   2.145   5.301  15.323 -0.3678  0.0522 -1.4381
10676TIP3   OH253442   5.729   4.855  13.380 -0.0385 -0.4933 -0.1801
10676TIP3    H153443   5.675   4.781  13.408 -0.6485 -0.5931 -1.5143
10676TIP3    H253444   5.818   4.820  13.376 -0.3797 -1.2913 -1.1885
10677TIP3   OH253445   5.378   3.262   4.459 -0.4849  0.1647  0.1587
10677TIP3    H153446   5.354   3.246   4.551 -1.6831 -0.4872 -0.2351
10677TIP3    H253447   5.300   3.303   4.421  0.8785  2.7846 -0.0097
10678TIP3   OH253448   6.277   2.681  13.043  0.0651  0.0499  0.1550
10678TIP3    H153449   6.256   2.603  12.992  1.6296  0.2586 -0.8523
10678TIP3    H253450   6.202   2.739  13.029  0.1750 -0.1390 -1.4478
10679TIP3   OH253451   6.316   4.781  12.817  0.7690  0.3792 -0.4617
10679TIP3    H153452   6.270   4.812  12.895 -2.3146 -1.3570 -1.4018
10679TIP3    H253453   6.315   4.857  12.758 -0.9276  0.4581 -0.3957
10680TIP3   OH253454   0.660   2.405   0.936  0.5279  0.2240 -0.3756
10680TIP3    H153455   0.672   2.494   0.967  1.2682 -0.3385  1.0385
10680TIP3    H253456   0.729   2.354   0.980 -1.0949 -1.3957  0.4655
10681TIP3   OH253457   0.582   1.397  14.435  0.1001 -0.8654  0.3647
10681TIP3    H153458   0.595   1.476  14.383 -0.0902 -0.6245  0.6771
10681TIP3    H253459   0.533   1.338  14.378 -0.9546 -0.2373  0.6014
10682TIP3   OH253460   1.138   3.633  11.241  0.8536  0.4902  0.0889
10682TIP3    H153461   1.136   3.682  11.323  1.9751  0.7979 -0.0519
10682TIP3    H253462   1.230   3.630  11.217  0.4773  1.0350 -1.5355
10683TIP3   OH253463   3.207   2.796   6.487  0.0644  0.1219  0.5972
10683TIP3    H153464   3.133   2.757   6.533 -1.5150  0.8681 -1.1749
10683TIP3    H253465   3.211   2.886   6.520  2.0460 -0.6319  2.7392
10684TIP3   OH253466   3.666   6.678  13.219 -0.7162  0.3182  0.1884
10684TIP3    H153467   3.688   6.714  13.305  3.3680 -1.4076  0.0933
10684TIP3    H253468   3.643   6.586  13.237 -2.0282  0.5067 -0.4177
10685TIP3   OH253469   5.771   4.528   4.905 -0.2621 -0.5675  0.7717
10685TIP3    H153470   5.764   4.493   4.993  2.9022 -0.0899  1.3331
10685TIP3    H253471   5.835   4.471   4.862 -0.7002  0.0471 -0.7584
10686TIP3   OH253472   3.315   3.815   4.144  0.1051 -0.6500 -0.1225
10686TIP3    H153473   3.306   3.906   4.170  1.3933  0.1039 -2.0830
10686TIP3    H253474   3.247   3.803   4.077  0.6038 -0.8093 -0.6078
10687TIP3   OH253475   6.682   5.238  15.868 -0.6954 -0.4974  0.1480
10687TIP3    H153476   6.652   5.217  15.956 -0.5813 -0.5348  0.1778
10687TIP3    H253477   6.610   5.289  15.830 -0.3651  0.3195  0.5884
10688TIP3   OH253478   6.191   4.733   1.742  0.1932 -0.3141  1.1284
10688TIP3    H153479   6.157   4.764   1.826 -0.6934 -0.5179  0.8617
10688TIP3    H253480   6.263   4.792   1.722 -1.3561  1.5312  0.7123
10689TIP3   OH253481   5.546   4.437   0.342  0.6832 -0.6054  0.4877
10689TIP3    H153482   5.458   4.411   0.368  0.7150  0.1349  1.3850
10689TIP3    H253483   5.589   4.462   0.423  0.7543  1.8823 -0.2391
10690TIP3   OH253484   6.544   0.672   1.447  0.6913  0.1978  0.3112
10690TIP3    H153485   6.632   0.633   1.448  1.1868  1.3039  1.1681
10690TIP3    H253486   6.558   0.762   1.417 -0.1672  0.3614  0.3780
10691TIP3   OH253487   0.838   4.003  15.986  0.1161  0.4534 -0.5599
10691TIP3    H153488   0.748   4.017  16.014  0.9315  2.4555  1.3199
10691TIP3    H253489   0.855   4.075  15.925  1.1912  1.6355  1.0873
10692TIP3   OH253490   2.652   1.257  12.382  0.1593 -0.0120  0.0541
10692TIP3    H153491   2.645   1.196  12.309 -1.8821 -0.3625  0.4824
10692TIP3    H253492   2.567   1.251  12.426  0.7958  1.3324  1.5464
10693TIP3   OH253493   3.690   6.376  10.888  0.2868  0.3944 -0.0312
10693TIP3    H153494   3.616   6.429  10.857 -0.2245 -0.5557 -0.4742
10693TIP3    H253495   3.764   6.405  10.834  0.1355  1.0139  0.0857
10694TIP3   OH253496   2.166   3.894   1.398  0.0919  0.2119  0.0798
10694TIP3    H153497   2.176   3.879   1.304  0.5825  0.6305  0.0551
10694TIP3    H253498   2.141   3.987   1.404 -1.0580 -0.0952  0.3089
10695TIP3   OH253499   0.807   3.585  15.515  0.7294 -0.2395 -0.0844
10695TIP3    H153500   0.821   3.567  15.608  1.8699 -4.0711 -0.8336
10695TIP3    H253501   0.752   3.513  15.484 -0.9467  1.7719 -2.1671
10696TIP3   OH253502   2.114   0.713  13.835  0.4521 -0.1783 -0.6661
10696TIP3    H153503   2.138   0.639  13.891  0.3718  0.9992  1.0104
10696TIP3    H253504   2.019   0.713  13.834  0.4365  0.2906 -0.0717
10697TIP3   OH253505   5.852   5.542   1.253 -0.0233 -0.4516 -0.4693
10697TIP3    H153506   5.859   5.617   1.195  0.7360 -1.4862 -1.7809
10697TIP3    H253507   5.816   5.577   1.335  1.9404  1.6402 -0.4212
10698TIP3   OH253508   3.869   3.195   1.230 -0.1619 -0.1294 -0.3257
10698TIP3    H153509   3.847   3.203   1.323  2.2070 -2.8276  0.6373
10698TIP3    H253510   3.837   3.276   1.191 -1.5312  1.0011  2.7518
10699TIP3   OH253511   6.609   6.212   1.036  0.3033  0.3204 -0.3280
10699TIP3    H153512   6.528   6.184   1.079  0.4062  0.7102  0.1320
10699TIP3    H253513   6.666   6.135   1.040  0.4861  0.4978  0.6827
10700TIP3   OH253514   2.906   5.241   6.213 -0.4927  0.4049 -0.4540
10700TIP3    H153515   2.867   5.216   6.296  0.2793 -0.6620 -0.3979
10700TIP3    H253516   3.000   5.227   6.225 -0.3403  0.5594 -1.3902
10701TIP3   OH253517   3.327   5.314  11.073 -0.3008  0.0638 -0.1717
10701TIP3    H153518   3.238   5.322  11.037 -0.3115  0.2198 -0.1143
10701TIP3    H253519   3.359   5.230  11.041 -0.4375  0.0467 -0.2647
10702TIP3   OH253520   6.305   4.698   2.772  0.1016  0.2641 -0.2030
10702TIP3    H153521   6.379   4.689   2.712 -0.0277  1.0345 -0.4890
10702TIP3    H253522   6.265   4.611   2.774  0.4860  0.0714 -0.7367
10703TIP3   OH253523   4.908   4.629  13.368  0.2106 -0.7883  0.4342
10703TIP3    H153524   4.908   4.579  13.450  1.0394 -0.9136  0.3699
10703TIP3    H253525   4.836   4.593  13.317 -2.1942  1.1135  2.1810
10704TIP3   OH253526   2.926   2.653  16.100  0.4043 -0.0712  0.2708
10704TIP3    H153527   2.966   2.740  16.106 -1.0218  0.6253  0.0551
10704TIP3    H253528   2.987   2.603  16.045  1.3154  0.7391  0.5134
10705TIP3   OH253529   1.769   3.016  15.024 -0.2456  0.0774 -0.1859
10705TIP3    H153530   1.863   3.006  15.013  0.2001  1.8890  1.4323
10705TIP3    H253531   1.751   3.106  14.998 -1.0628  0.5724  1.8827
10706TIP3   OH253532   2.039   3.007  16.659 -0.0282  0.3429 -0.3297
10706TIP3    H153533   1.956   2.990  16.703  0.6687 -0.7832  0.5948
10706TIP3    H253534   2.033   2.959  16.576 -0.2750  0.2383 -0.2516
10707TIP3   OH253535   5.089   0.262   1.478  0.1033 -0.2497  0.0144
10707TIP3    H153536   5.097   0.241   1.385 -1.3638  0.3530 -0.2727
10707TIP3    H253537   5.058   0.180   1.518 -2.5716  0.3643 -0.6092
10708TIP3   OH253538   5.479   3.066   0.599 -0.7970 -0.6553 -0.3286
10708TIP3    H153539   5.496   3.081   0.506  1.9954  0.2006  0.2097
10708TIP3    H253540   5.563   3.084   0.641 -2.5124  1.1250  2.6346
10709TIP3   OH253541   2.067   2.656   4.781 -0.1742 -0.8659 -0.1304
10709TIP3    H153542   2.135   2.709   4.823  0.7635 -0.9878 -1.4338
10709TIP3    H253543   2.041   2.708   4.705 -1.2290 -1.0381  0.1051
10710TIP3   OH253544   5.080   2.158   5.823 -0.2660 -0.0270  0.7081
10710TIP3    H153545   5.102   2.078   5.775  1.6270  0.7311  0.2208
10710TIP3    H253546   5.118   2.229   5.771  1.8627  0.8430  3.2507
10711TIP3   OH253547   0.502   3.749   1.118  0.2762 -0.4695 -0.5632
10711TIP3    H153548   0.516   3.719   1.028  1.2361  0.2436 -0.6794
10711TIP3    H253549   0.502   3.669   1.171  1.3416 -0.7993 -1.0213
10712TIP3   OH253550   3.272   4.598   5.519  0.4329  0.0231  0.1135
10712TIP3    H153551   3.295   4.679   5.563 -0.3757  0.7934 -0.8171
10712TIP3    H253552   3.351   4.572   5.471  0.8792 -0.0846  0.8909
10713TIP3   OH253553   4.530   1.859  12.276 -0.4650 -0.1693  0.1214
10713TIP3    H153554   4.478   1.781  12.295 -0.9382  0.2536  0.6019
10713TIP3    H253555   4.529   1.908  12.358  1.1851 -0.4283  0.3347
10714TIP3   OH253556   1.780   6.131   3.533 -0.3101 -0.3369  0.2509
10714TIP3    H153557   1.808   6.055   3.583  2.1256  0.8106  0.7606
10714TIP3    H253558   1.843   6.138   3.462 -1.1633  0.5838 -0.4510
10715TIP3   OH253559   0.806   4.375   0.290  0.5097 -0.5455  0.1828
10715TIP3    H153560   0.818   4.281   0.303 -1.6999 -0.7235  1.3975
10715TIP3    H253561   0.799   4.411   0.378 -0.1979  0.5139 -0.2858
10716TIP3   OH253562   1.889   3.721  12.816  0.1264 -0.0685 -0.0248
10716TIP3    H153563   1.948   3.773  12.762 -0.7930  0.3798 -0.6299
10716TIP3    H253564   1.938   3.640  12.835 -0.0499 -0.9235 -2.8096
10717TIP3   OH253565   2.202   2.802  14.834  0.0405  0.1194  0.3438
10717TIP3    H153566   2.264   2.864  14.874  0.8040 -0.0779 -0.5097
10717TIP3    H253567   2.147   2.773  14.907 -0.1145  1.5424  0.8216
10718TIP3   OH253568   1.156   3.445   4.342  0.1806  1.0919 -0.5278
10718TIP3    H153569   1.091   3.436   4.412 -0.3681 -0.5484 -1.2002
10718TIP3    H253570   1.154   3.538   4.319 -0.1456  1.5255  1.1319
10719TIP3   OH253571   0.811   2.501  14.122  0.1054  0.0228 -0.4345
10719TIP3    H153572   0.868   2.462  14.188  0.3955  0.3205 -0.5018
10719TIP3    H253573   0.871   2.549  14.064 -0.1989  0.2197 -0.5944
10720TIP3   OH253574   1.682   2.456  14.304  0.1540 -0.0322  0.1915
10720TIP3    H153575   1.759   2.424  14.352  0.2476  0.5607  0.4577
10720TIP3    H253576   1.719   2.506  14.231  0.0642  1.1086  0.8829
10721TIP3   OH253577   4.951   1.781  14.959 -0.5218  0.2930  0.4093
10721TIP3    H153578   4.936   1.850  15.024 -1.6649  0.9261 -0.4911
10721TIP3    H253579   4.936   1.699  15.006 -2.4586  0.7647  0.6988
10722TIP3   OH253580   0.009   3.338   1.365 -0.1424  0.3172 -0.3004
10722TIP3    H153581   0.035   3.279   1.294 -0.0096 -1.2649  1.0092
10722TIP3    H253582  -0.056   3.288   1.415  1.0054  0.6943  1.6761
10723TIP3   OH253583   0.448   6.710   2.957 -0.3214 -0.3835  0.0618
10723TIP3    H153584   0.437   6.805   2.955  2.2999  0.1265  2.4189
10723TIP3    H253585   0.535   6.696   2.919 -1.6650 -2.2002 -2.6029
10724TIP3   OH253586   1.929   5.868  13.987 -0.5846  0.4006  0.1012
10724TIP3    H153587   1.943   5.828  14.073 -1.2070 -0.2811 -0.1106
10724TIP3    H253588   1.856   5.820  13.949 -1.0353  1.4153 -0.3663
10725TIP3   OH253589   5.606   5.036  17.198 -0.2701 -0.1382  0.2044
10725TIP3    H153590   5.564   5.020  17.282  0.4073  2.5542  1.1717
10725TIP3    H253591   5.695   5.002  17.208  0.4257  1.8463  1.3643
10726TIP3   OH253592   1.840   0.405   3.251  0.4336 -0.3520 -0.0380
10726TIP3    H153593   1.832   0.388   3.157  1.2650 -0.1076 -0.1531
10726TIP3    H253594   1.753   0.436   3.277  0.4362  0.3779 -0.8867
10727TIP3   OH253595   5.508   1.478  14.336  0.3224 -0.5419  0.2691
10727TIP3    H153596   5.488   1.386  14.319  2.2239 -0.8532 -0.5320
10727TIP3    H253597   5.504   1.486  14.431  1.1584 -1.7309  0.4281
10728TIP3   OH253598   4.869   4.646   2.304  0.0175  0.1309  0.2393
10728TIP3    H153599   4.855   4.577   2.240  0.5716 -0.2654  0.5385
10728TIP3    H253600   4.899   4.601   2.383 -0.8517  0.5862  0.8619
10729TIP3   OH253601   1.988   5.307   5.071  0.1609  0.1758 -0.0308
10729TIP3    H153602   1.931   5.365   5.121 -0.2615 -0.0232 -0.2765
10729TIP3    H253603   1.929   5.241   5.034  0.7267 -0.8355  0.8269
10730TIP3   OH253604   0.964   2.742   2.528  0.1638 -0.4795 -0.1942
10730TIP3    H153605   1.031   2.675   2.514 -1.2748 -2.0712  0.1942
10730TIP3    H253606   0.902   2.730   2.456 -0.3037  0.1990  0.0826
10731TIP3   OH253607   0.853   3.808   5.500  0.1538  0.4209  0.2032
10731TIP3    H153608   0.788   3.796   5.431  0.6336  1.6341 -0.4861
10731TIP3    H253609   0.910   3.878   5.468  0.6676  0.6928  1.6278
10732TIP3   OH253610   2.692   4.615  11.549 -0.2967  0.1319 -0.0370
10732TIP3    H153611   2.598   4.596  11.553 -0.6618  0.8846 -2.9393
10732TIP3    H253612   2.703   4.695  11.600 -0.9697 -0.6061  1.3253
10733TIP3   OH253613   4.332   3.402   6.112 -1.0891 -0.3028  0.4066
10733TIP3    H153614   4.352   3.435   6.200  1.9903 -0.0738 -0.2734
10733TIP3    H253615   4.369   3.467   6.053 -3.9688  0.0708 -1.1883
10734TIP3   OH253616   3.882   3.839   5.586 -0.1843 -0.1621  0.3476
10734TIP3    H153617   3.799   3.794   5.600  0.3553 -1.0640  0.7538
10734TIP3    H253618   3.881   3.913   5.646 -2.2734  2.1000 -2.2387
10735TIP3   OH253619   0.661   3.502  11.431  0.0413 -0.2690  0.2436
10735TIP3    H153620   0.567   3.520  11.420 -0.2158 -1.1073  0.9559
10735TIP3    H253621   0.680   3.529  11.521  0.2478 -1.0314  0.4348
10736TIP3   OH253622   6.141   0.980  16.332  0.2335 -0.2040  0.1884
10736TIP3    H153623   6.229   1.001  16.364  0.2923 -1.3275  0.7882
10736TIP3    H253624   6.153   0.957  16.240  0.6971 -1.1324  0.4712
10737TIP3   OH253625   5.933   0.432  11.944  0.3056  0.0082  0.7242
10737TIP3    H153626   5.927   0.393  12.032 -1.8756  1.2236  1.1859
10737TIP3    H253627   5.930   0.357  11.885 -1.6670 -0.7190  1.6411
10738TIP3   OH253628   0.903   3.035  15.140  0.3803 -0.2759  0.3417
10738TIP3    H153629   0.912   2.977  15.065 -0.4927 -1.5433  1.1614
10738TIP3    H253630   0.939   2.985  15.214  0.7540  0.7291  0.8649
10739TIP3   OH253631   2.764   0.463   2.709 -0.3431  0.2107 -0.0288
10739TIP3    H153632   2.802   0.529   2.651 -0.2478 -0.3140 -0.5825
10739TIP3    H253633   2.811   0.382   2.687 -2.2913 -0.6428 -1.3231
10740TIP3   OH253634   2.764   6.505  15.109  0.6192 -0.2906  0.2665
10740TIP3    H153635   2.819   6.500  15.031 -0.3850 -1.1074 -0.4190
10740TIP3    H253636   2.734   6.415  15.123  1.0802 -0.2340  1.8315
10741TIP3   OH253637   6.520   5.196  16.756  0.3647 -0.0742 -0.6942
10741TIP3    H153638   6.496   5.105  16.736  0.6633  0.0707 -1.7536
10741TIP3    H253639   6.608   5.207  16.718  1.0114  0.1933  0.8126
10742TIP3   OH253640   3.998   3.857   4.456 -0.2107  0.1801  0.4682
10742TIP3    H153641   4.053   3.896   4.523  0.1004 -1.4271  1.2126
10742TIP3    H253642   4.011   3.762   4.467 -3.8604 -0.3760  1.3840
10743TIP3   OH253643   4.700   5.073  16.359  0.1577 -0.1356 -0.2808
10743TIP3    H153644   4.718   5.145  16.299  0.1993  0.4385  0.4025
10743TIP3    H253645   4.787   5.038  16.380  0.2707  0.6216  0.5836
10744TIP3   OH253646   3.032   4.681   4.454 -0.4760 -0.1766  0.6284
10744TIP3    H153647   3.031   4.586   4.469 -1.7019 -0.5407 -1.4895
10744TIP3    H253648   2.987   4.717   4.530 -1.0922 -1.4008  0.8754
10745TIP3   OH253649   5.878   3.700   5.914 -0.3806  0.0560  0.0324
10745TIP3    H153650   5.856   3.616   5.954  0.8495  0.4873  1.7294
10745TIP3    H253651   5.969   3.691   5.887 -0.5582  0.5049 -0.7701
10746TIP3   OH253652   6.021   4.317  15.130  0.0454 -0.4121  0.0942
10746TIP3    H153653   6.112   4.288  15.139 -0.5419 -2.1348  0.8996
10746TIP3    H253654   6.013   4.342  15.038  1.7289  1.3291  0.3656
10747TIP3   OH253655   0.122   0.231  11.689 -0.0783  0.5602  0.1425
10747TIP3    H153656   0.151   0.260  11.776  2.5707  1.5007 -0.9416
10747TIP3    H253657   0.190   0.168  11.662 -1.3767 -0.4529 -0.8895
10748TIP3   OH253658   4.938   0.776  11.770  0.1394  0.0078  0.1490
10748TIP3    H153659   4.937   0.871  11.779  0.2775 -0.0084  0.3582
10748TIP3    H253660   5.018   0.749  11.814 -0.4221 -0.2945  1.0072
10749TIP3   OH253661   2.885   2.075   0.909 -0.3447  0.2435  0.1637
10749TIP3    H153662   2.908   2.161   0.872  0.1853 -0.8946 -2.3487
10749TIP3    H253663   2.833   2.033   0.841 -2.4364 -0.6615  2.2244
10750TIP3   OH253664   3.049   6.339  14.461 -0.3076  0.0759  0.3152
10750TIP3    H153665   3.090   6.381  14.537 -1.5925  0.1718  0.9717
10750TIP3    H253666   2.972   6.295  14.496 -0.7410 -0.1586 -0.8873
10751TIP3   OH253667   0.251   2.064  16.845  0.4109 -0.6793  0.6233
10751TIP3    H153668   0.264   1.983  16.895 -1.0971 -0.1198  2.0015
10751TIP3    H253669   0.203   2.121  16.904  1.2975  1.1994 -0.3920
10752TIP3   OH253670   1.702   0.032  12.515  0.6072 -0.2128  0.0588
10752TIP3    H153671   1.653   0.112  12.498 -0.3983 -0.6370  0.8427
10752TIP3    H253672   1.791   0.061  12.532  0.3371  0.7033 -0.0457
10753TIP3   OH253673   0.687   2.494   1.923  0.4214  0.1474  0.6341
10753TIP3    H153674   0.594   2.517   1.930  0.8965  2.4961  0.1687
10753TIP3    H253675   0.712   2.467   2.011 -1.1773 -2.8424  0.3053
10754TIP3   OH253676   4.098   5.554  14.077  0.1484 -0.1902 -0.2909
10754TIP3    H153677   4.048   5.585  14.153  0.2243 -1.6759  0.4126
10754TIP3    H253678   4.074   5.613  14.006 -1.4013  0.0840  0.4282
10755TIP3   OH253679   4.093   4.002  13.046  0.6822  0.0204  0.2023
10755TIP3    H153680   4.105   4.093  13.071  2.1363 -0.6289  2.1122
10755TIP3    H253681   4.025   3.970  13.106  2.2635 -0.8605  1.5923
10756TIP3   OH253682   1.892   0.200  13.677  0.0162  0.8200 -0.0063
10756TIP3    H153683   1.805   0.234  13.657  0.4190  1.4647 -0.7804
10756TIP3    H253684   1.928   0.261  13.742  0.3717  1.3326 -0.6676
10757TIP3   OH253685   1.477   4.471  16.890 -0.1966 -0.2434  0.6488
10757TIP3    H153686   1.462   4.378  16.877  0.3368 -0.4061  1.1105
10757TIP3    H253687   1.392   4.506  16.915 -0.7461 -0.3151 -0.9987
10758TIP3   OH253688   5.252   4.239  16.650 -0.1443 -0.1424  0.1962
10758TIP3    H153689   5.158   4.254  16.641 -0.1736 -0.7586 -0.5328
10758TIP3    H253690   5.292   4.323  16.626 -0.5563  0.7726  2.4096
10759TIP3   OH253691   2.806   6.279  15.683 -0.0200 -0.2828  0.0997
10759TIP3    H153692   2.898   6.286  15.708  0.2036  2.5928 -1.2138
10759TIP3    H253693   2.758   6.305  15.761  0.4161  1.0110 -0.0395
10760TIP3   OH253694   6.382   3.458   2.226 -0.0176 -0.5552  0.0923
10760TIP3    H153695   6.316   3.519   2.260  0.8792  0.2289  0.4557
10760TIP3    H253696   6.458   3.472   2.281  0.6158 -1.1099 -0.6239
10761TIP3   OH253697   2.688   2.733   3.666 -0.9698  0.2175 -0.0498
10761TIP3    H153698   2.723   2.667   3.607  0.2271 -0.9788  1.8990
10761TIP3    H253699   2.756   2.800   3.671 -0.6761 -0.1219  0.6256
10762TIP3   OH253700   1.073   3.978   5.417 -0.1415 -1.1088 -0.2009
10762TIP3    H153701   1.148   3.987   5.359 -1.7862  1.5652 -2.1614
10762TIP3    H253702   1.084   4.049   5.481 -2.5008  1.6559 -2.5800
10763TIP3   OH253703   1.500   1.852   1.045 -0.0055 -0.0432  0.2426
10763TIP3    H153704   1.547   1.934   1.034 -0.2600 -0.1240 -1.7677
10763TIP3    H253705   1.471   1.853   1.137 -0.5936  2.4287  0.0971
10764TIP3   OH253706   1.756   0.573  11.814 -0.9541 -0.2966  0.7736
10764TIP3    H153707   1.707   0.533  11.742  0.2558 -1.6349  0.6520
10764TIP3    H253708   1.734   0.666  11.808 -1.2102 -0.4224 -1.0772
10765TIP3   OH253709   4.312   5.176  13.691  0.4607 -0.0817  0.1917
10765TIP3    H153710   4.234   5.143  13.646 -0.2915 -2.0591  2.6859
10765TIP3    H253711   4.291   5.267  13.712 -0.6755 -0.2316 -0.2306
10766TIP3   OH253712   3.993   1.726   3.018  0.3447 -0.6666  0.6257
10766TIP3    H153713   3.970   1.691   2.931  3.7729 -1.4912 -0.1237
10766TIP3    H253714   4.089   1.732   3.016  0.4293  0.8624  3.8181
10767TIP3   OH253715   5.217   3.328  16.649  0.2762  0.1222  0.6787
10767TIP3    H153716   5.225   3.318  16.744 -1.4482  0.1459  0.8537
10767TIP3    H253717   5.124   3.342  16.634  0.3828 -0.7873 -1.1159
10768TIP3   OH253718   4.057   5.095  12.814 -0.2310  0.1020  0.7911
10768TIP3    H153719   4.061   5.156  12.888 -1.3866  3.7886 -1.8441
10768TIP3    H253720   3.965   5.094  12.789  0.1353 -0.9012 -0.6439
10769TIP3   OH253721   4.521   5.544   1.904 -0.0676  0.1298 -0.0284
10769TIP3    H153722   4.438   5.525   1.949 -0.5423  0.8665 -0.5778
10769TIP3    H253723   4.540   5.635   1.926  0.2301  0.1796 -0.4814
10770TIP3   OH253724   4.524   3.676  13.174  0.3018  0.1275 -0.3293
10770TIP3    H153725   4.602   3.700  13.224  1.3018 -1.1552 -1.2014
10770TIP3    H253726   4.451   3.714  13.223  1.2519 -0.8449  1.9618
10771TIP3   OH253727   3.192   3.921  12.332  0.2243  0.3516 -0.2879
10771TIP3    H153728   3.225   3.962  12.411 -1.0175  0.2694  0.2904
10771TIP3    H253729   3.271   3.901  12.281  1.1915 -1.1619  1.6684
10772TIP3   OH253730   3.345   2.452   2.031 -0.1829 -0.3118 -0.5825
10772TIP3    H153731   3.290   2.530   2.020 -1.1589 -0.6868  1.3531
10772TIP3    H253732   3.428   2.476   1.988 -0.6873  1.5422 -0.6251
10773TIP3   OH253733   1.722   1.662   1.807 -0.2718  0.3074  0.0206
10773TIP3    H153734   1.706   1.635   1.898  0.2849  0.2956  0.1175
10773TIP3    H253735   1.658   1.732   1.792 -0.3255  0.3567  0.4471
10774TIP3   OH253736   1.811   1.660  13.981 -0.4806 -0.0967 -0.4274
10774TIP3    H153737   1.721   1.631  13.998 -1.7234  2.1566 -2.5327
10774TIP3    H253738   1.821   1.652  13.886  0.7857  1.6338 -0.4813
10775TIP3   OH253739   4.897   1.698  12.712  0.6007 -0.5079  0.0756
10775TIP3    H153740   4.848   1.775  12.740  0.9313 -0.1081 -0.4212
10775TIP3    H253741   4.982   1.733  12.685  0.7592 -1.0512 -0.1346
10776TIP3   OH253742   5.038   3.399  13.529  0.4411 -0.2548  0.3824
10776TIP3    H153743   5.049   3.489  13.497  0.3020 -0.9332 -1.7740
10776TIP3    H253744   4.943   3.389  13.538  0.4071 -0.4164 -0.1362
10777TIP3   OH253745   4.645   2.797  12.926  0.0895 -0.7194 -0.1054
10777TIP3    H153746   4.740   2.781  12.926  0.4676  1.2188  0.6844
10777TIP3    H253747   4.611   2.738  12.859  1.9954 -0.8180 -1.0571
10778TIP3   OH253748   5.993   5.225   2.989 -0.0660 -0.1646 -0.4991
10778TIP3    H153749   6.047   5.150   3.012 -0.4636 -0.5412 -0.7758
10778TIP3    H253750   5.925   5.189   2.932  0.2066  0.5424 -1.2981
10779TIP3   OH253751   0.033   3.092  13.342  0.4593  0.1476 -0.6250
10779TIP3    H153752   0.009   3.174  13.385  1.5681 -0.4779  1.2730
10779TIP3    H253753  -0.039   3.032  13.362  1.5556 -0.5284  1.6005
10780TIP3   OH253754   4.996   1.722  16.905  0.3823 -0.5612 -0.4631
10780TIP3    H153755   5.024   1.799  16.955  2.6139 -1.5254 -0.0882
10780TIP3    H253756   5.075   1.692  16.860 -0.8859 -1.4975 -2.1881
10781TIP3   OH253757   5.471   4.778  14.746  0.0110  0.2663 -0.4720
10781TIP3    H153758   5.504   4.865  14.772 -0.9317  1.0409 -1.7178
10781TIP3    H253759   5.549   4.732  14.715  0.2358  1.4370 -1.7489
10782TIP3   OH253760   4.824   1.190  11.296  0.8651 -0.1439  0.0857
10782TIP3    H153761   4.819   1.100  11.329 -0.2301  0.4175  1.5798
10782TIP3    H253762   4.733   1.215  11.283  0.9104  1.7846  2.7788
10783TIP3   OH253763   1.871   6.368   0.413 -0.1749  0.5229  0.6071
10783TIP3    H153764   1.804   6.396   0.475 -0.9651  0.0350 -0.0101
10783TIP3    H253765   1.839   6.398   0.327 -1.2114 -2.3994 -0.1443
10784TIP3   OH253766   3.862   5.564   1.550  0.2450  0.0919  0.0275
10784TIP3    H153767   3.827   5.536   1.465  0.0969  0.9188 -0.1967
10784TIP3    H253768   3.784   5.580   1.604  0.2339  1.7168 -0.4005
10785TIP3   OH253769   6.167   2.885  11.395  0.1299  0.1606 -0.0697
10785TIP3    H153770   6.145   2.846  11.479  0.4384 -1.4252 -0.6852
10785TIP3    H253771   6.082   2.909  11.357 -0.3052 -2.0078 -0.6116
10786TIP3   OH253772   5.829   0.540   4.262 -0.1972  0.1126 -0.3162
10786TIP3    H153773   5.873   0.467   4.219 -0.9649 -1.0760  0.8218
10786TIP3    H253774   5.777   0.581   4.193  1.2458  0.4161 -1.2586
10787TIP3   OH253775   4.724   4.209   2.920  0.5498 -0.6237  0.4180
10787TIP3    H153776   4.704   4.175   2.832  0.5404 -1.2438  0.6514
10787TIP3    H253777   4.771   4.291   2.904  0.2918 -0.5783 -0.1629
10788TIP3   OH253778   0.297   5.539   0.274 -0.4576  0.5381 -0.3864
10788TIP3    H153779   0.360   5.594   0.226  1.0147 -0.7441 -0.0022
10788TIP3    H253780   0.323   5.547   0.366  1.5550 -2.7271 -0.4826
10789TIP3   OH253781   2.630   6.186  13.933  0.5124  0.1534 -0.1698
10789TIP3    H153782   2.598   6.131  14.005  3.7707 -0.4350  0.9995
10789TIP3    H253783   2.670   6.261  13.977  1.9104  0.1594 -1.3821
10790TIP3   OH253784   2.714   5.627   1.546  0.5294 -0.0339 -0.2176
10790TIP3    H153785   2.718   5.548   1.599  0.1803 -1.0833 -1.6710
10790TIP3    H253786   2.620   5.646   1.537  0.6346  1.0716  0.8373
10791TIP3   OH253787   1.896   6.726   1.752  0.3387 -0.4115 -0.1715
10791TIP3    H153788   1.813   6.694   1.716 -0.4709 -0.4889  1.6935
10791TIP3    H253789   1.893   6.704   1.845  2.2655  0.0021  0.0378
10792TIP3   OH253790   6.196   1.058  10.966  0.5604 -0.4098  0.6530
10792TIP3    H153791   6.202   1.047  10.871  1.5129 -0.1494  0.6714
10792TIP3    H253792   6.251   1.134  10.985  0.1630 -0.2915  1.3840
10793TIP3   OH253793   0.309   4.119  16.066  0.0161 -0.1689 -0.5198
10793TIP3    H153794   0.229   4.167  16.047 -0.8131 -1.0193  0.6960
10793TIP3    H253795   0.290   4.071  16.147  2.0544  0.3175  0.3050
10794TIP3   OH253796   4.926   5.907  12.961  0.3095  0.2640 -0.5455
10794TIP3    H153797   5.018   5.930  12.953  0.3406 -0.2224 -1.7989
10794TIP3    H253798   4.902   5.873  12.875 -0.7573 -0.6393  0.0794
10795TIP3   OH253799   5.796   5.235   0.773 -0.5266 -0.0706 -0.4697
10795TIP3    H153800   5.813   5.328   0.757 -2.1994  0.1655 -1.0849
10795TIP3    H253801   5.815   5.192   0.689 -2.6506  0.1839 -1.1373
10796TIP3   OH253802   3.619   1.488  12.370  0.4161 -0.4218 -0.0489
10796TIP3    H153803   3.620   1.439  12.287  2.6602  0.9504 -0.9142
10796TIP3    H253804   3.537   1.538  12.367 -0.4665 -1.8075 -0.5054
10797TIP3   OH253805   1.850   0.316   2.980 -0.4244  0.2929  0.0505
10797TIP3    H153806   1.930   0.329   2.930 -1.1855 -0.0569 -1.3125
10797TIP3    H253807   1.818   0.230   2.953 -0.9596  0.1763  1.0035
10798TIP3   OH253808   5.934   1.799  11.712  0.1735 -0.5093  0.2295
10798TIP3    H153809   5.948   1.851  11.791  0.3826 -0.2328  0.0125
10798TIP3    H253810   5.965   1.855  11.641  1.2022 -1.2655  0.0681
10799TIP3   OH253811   0.812   0.460  12.420 -0.0207 -0.0529  0.2877
10799TIP3    H153812   0.905   0.483  12.412  0.1312 -1.0827 -1.3605
10799TIP3    H253813   0.770   0.540  12.452  0.9876  1.4113 -1.8502
10800TIP3   OH253814   3.159   3.668   5.412  0.2598  0.3036  0.0918
10800TIP3    H153815   3.230   3.656   5.349  0.4625 -0.2292  0.4140
10800TIP3    H253816   3.104   3.591   5.400 -0.2703  0.7139 -0.1557
10801TIP3   OH253817   3.336   5.952  14.888  0.5224 -0.9160 -1.0930
10801TIP3    H153818   3.383   5.888  14.833  1.9108 -0.7075 -0.2126
10801TIP3    H253819   3.370   5.936  14.976 -1.1671 -0.7838 -0.3969
10802TIP3   OH253820   6.199   0.395  15.066  0.2534  0.1611 -0.2370
10802TIP3    H153821   6.229   0.466  15.008 -0.9500  1.2178  0.3876
10802TIP3    H253822   6.104   0.395  15.056 -0.0344  0.6327  1.9962
10803TIP3   OH253823   0.542   1.349  14.735 -0.3243 -0.2076  0.2634
10803TIP3    H153824   0.556   1.336  14.641 -0.5146 -0.2048  0.2337
10803TIP3    H253825   0.471   1.289  14.757 -1.5261  1.0804  0.0350
10804TIP3   OH253826   5.312   6.445   2.014 -0.0816  0.1920 -0.5471
10804TIP3    H153827   5.304   6.349   2.019 -2.6674  0.3516 -0.2216
10804TIP3    H253828   5.241   6.478   2.068  2.8787  2.4352  2.3838
10805TIP3   OH253829   0.385   3.621  14.993 -0.4133  0.1750 -0.2531
10805TIP3    H153830   0.425   3.693  15.043 -0.9628  0.2105  0.1399
10805TIP3    H253831   0.327   3.578  15.056 -1.4274  0.4679 -0.9832
10806TIP3   OH253832   3.210   1.912   0.006 -0.2635  0.1565 -0.1741
10806TIP3    H153833   3.229   1.995   0.050 -2.7492  1.1271 -0.7564
10806TIP3    H253834   3.243   1.924  -0.083  0.9250 -0.1575  0.2180
10807TIP3   OH253835   0.480   0.691   2.585 -0.3556 -0.3522 -0.5419
10807TIP3    H153836   0.569   0.706   2.616 -1.2860 -1.6758  3.3217
10807TIP3    H253837   0.455   0.773   2.542  1.8339  1.0192  0.6315
10808TIP3   OH253838   4.645   0.850  12.086 -0.0345  0.6296 -0.2151
10808TIP3    H153839   4.716   0.909  12.060 -0.4989  1.5313  0.5290
10808TIP3    H253840   4.687   0.765  12.094  0.4263  0.5796 -2.4585
10809TIP3   OH253841   4.997   0.349  12.176  0.2543 -0.4721  0.4812
10809TIP3    H153842   5.082   0.313  12.152 -0.2271  1.2428 -5.4817
10809TIP3    H253843   4.935   0.303  12.119 -2.4146  0.4928  2.3961
10810TIP3   OH253844   1.368   0.410  13.527  0.0972  0.1366  0.5486
10810TIP3    H153845   1.459   0.419  13.498 -0.4739  0.0966 -1.3758
10810TIP3    H253846   1.317   0.410  13.446 -1.6794  0.7561  1.6238
10811TIP3   OH253847   5.744   0.911   2.809  0.5589  0.1066 -0.5973
10811TIP3    H153848   5.650   0.903   2.794  0.6289  1.4664 -2.0938
10811TIP3    H253849   5.760   1.005   2.808  1.8177 -0.0592  0.6173
10812TIP3   OH253850   0.469   1.740  14.651 -0.4093  0.4313 -0.1173
10812TIP3    H153851   0.550   1.720  14.604  1.5474 -0.7935  3.4102
10812TIP3    H253852   0.455   1.834  14.638  0.6271  0.3556 -2.0879
10813TIP3   OH253853   3.809   6.432   4.268  0.6014  0.4034 -0.3071
10813TIP3    H153854   3.765   6.350   4.291  0.7704  0.5174  0.4227
10813TIP3    H253855   3.866   6.408   4.195 -0.0663  0.0832 -0.7391
10814TIP3   OH253856   5.861   2.574   1.364 -0.0285 -0.9212 -0.1848
10814TIP3    H153857   5.872   2.495   1.417  2.2887 -0.8271 -0.4193
10814TIP3    H253858   5.802   2.549   1.293 -2.0647 -1.4426  1.5840
10815TIP3   OH253859   6.629   5.224   1.319  0.4429 -1.3515  0.1721
10815TIP3    H153860   6.647   5.242   1.411  1.4282  2.8089 -0.6223
10815TIP3    H253861   6.596   5.308   1.284  0.9919 -2.4677 -3.4444
10816TIP3   OH253862   0.040   0.002  16.844 -0.4419  0.4679 -0.8048
10816TIP3    H153863  -0.042   0.004  16.794  0.2789  1.4507 -2.0148
10816TIP3    H253864   0.094  -0.064  16.800 -0.5571 -0.1630 -0.0209
10817TIP3   OH253865   1.283   3.094  15.432  0.1036  0.7584 -0.4103
10817TIP3    H153866   1.267   3.096  15.526  0.5831 -0.0705 -0.3024
10817TIP3    H253867   1.377   3.077  15.425 -0.3116 -1.4797 -1.0412
10818TIP3   OH253868   4.293   3.265   1.644  0.6698 -0.3540  0.4150
10818TIP3    H153869   4.335   3.344   1.612  0.8240 -0.9034 -0.8079
10818TIP3    H253870   4.310   3.199   1.576  0.7295 -1.4964  1.4999
10819TIP3   OH253871   4.571   2.513   2.666 -0.5154  0.2763  0.1466
10819TIP3    H153872   4.504   2.576   2.694 -1.8509 -0.7024 -0.7450
10819TIP3    H253873   4.530   2.466   2.593  1.7059  0.6614 -1.4313
10820TIP3   OH253874   5.923   2.020   0.428  0.3524 -0.2830 -0.0655
10820TIP3    H153875   5.998   1.979   0.471  1.1275 -1.1552 -2.1243
10820TIP3    H253876   5.903   1.962   0.354 -1.0910  0.9950 -0.7322
10821TIP3   OH253877   2.192   3.324   3.944  0.4711 -0.2679 -0.3275
10821TIP3    H153878   2.163   3.239   3.975 -0.0852 -1.1639 -2.9871
10821TIP3    H253879   2.276   3.306   3.900  0.5041  0.5986 -0.6456
10822TIP3   OH253880   5.664   4.486   5.462 -0.2489 -0.2572  0.5961
10822TIP3    H153881   5.608   4.455   5.533 -0.6866  2.1946  1.4237
10822TIP3    H253882   5.749   4.447   5.479 -0.8803 -1.3987  1.2353
10823TIP3   OH253883   6.686   1.424  15.873  0.0042 -0.5746  0.4098
10823TIP3    H153884   6.620   1.486  15.904 -0.8807 -1.9734  1.4589
10823TIP3    H253885   6.730   1.470  15.802 -1.7777  0.5835 -0.0200
10824TIP3   OH253886   5.713   4.042   3.773 -0.1930  0.3120  0.6287
10824TIP3    H153887   5.652   4.102   3.730  0.9336  1.5402  0.6941
10824TIP3    H253888   5.726   4.080   3.860 -0.8904 -1.0614  1.3749
10825TIP3   OH253889   6.185   4.480  16.143  0.2244  0.2900  0.1368
10825TIP3    H153890   6.098   4.519  16.150 -0.1520  0.3228 -3.1401
10825TIP3    H253891   6.244   4.555  16.136  0.3941  0.2555  1.0624
10826TIP3   OH253892   3.749   0.735  14.096  0.2115 -0.2349 -0.0607
10826TIP3    H153893   3.776   0.667  14.035  1.2841  1.2542 -1.3319
10826TIP3    H253894   3.746   0.691  14.181  2.8000 -1.4685 -0.4996
10827TIP3   OH253895   2.550   6.332  11.266 -0.1339  0.0232 -0.2177
10827TIP3    H153896   2.522   6.322  11.175 -1.1006  1.0519 -0.0589
10827TIP3    H253897   2.575   6.425  11.272  0.9349 -0.2813  0.3126
10828TIP3   OH253898   0.393   0.033  14.080  0.4477 -0.6272  0.4156
10828TIP3    H153899   0.344  -0.049  14.091  0.6239 -0.8297 -0.2271
10828TIP3    H253900   0.448   0.017  14.003 -1.0373  0.8060 -1.0389
10829TIP3   OH253901   2.352   4.700  14.155 -0.0908  0.2283  0.0188
10829TIP3    H153902   2.403   4.773  14.121  1.4332 -0.3905  0.8272
10829TIP3    H253903   2.390   4.623  14.113 -1.0672 -0.1835 -0.1388
10830TIP3   OH253904   6.118   6.282   5.921 -0.4016 -0.0667 -0.3424
10830TIP3    H153905   6.187   6.296   5.985 -0.5760 -1.3067  0.1323
10830TIP3    H253906   6.040   6.323   5.959 -0.5596 -0.9980  0.3556
10831TIP3   OH253907   1.171   4.474   2.700  0.2945  0.2418 -0.0922
10831TIP3    H153908   1.264   4.499   2.707  0.5846 -0.4725 -1.1861
10831TIP3    H253909   1.151   4.483   2.607 -0.6236 -0.0422  0.0713
10832TIP3   OH253910   2.735   5.496  14.201 -0.2372 -0.0530 -0.4001
10832TIP3    H153911   2.707   5.480  14.110  0.8206 -1.9314 -0.4455
10832TIP3    H253912   2.828   5.517  14.194 -0.3384  0.6103  0.2026
10833TIP3   OH253913   6.210   2.862   1.743 -0.6119 -0.0173  0.0518
10833TIP3    H153914   6.139   2.853   1.806 -1.4021  1.1634 -0.6484
10833TIP3    H253915   6.258   2.940   1.771  0.3277 -0.6905  0.4042
10834TIP3   OH253916   0.886   3.749  13.184  0.3957 -0.2026  0.2753
10834TIP3    H153917   0.922   3.781  13.101  0.3241  0.3395  0.4493
10834TIP3    H253918   0.929   3.665  13.198  0.8238 -0.0356 -0.0339
10835TIP3   OH253919   4.508   0.667   1.411  1.5964  0.0758  0.2125
10835TIP3    H153920   4.431   0.714   1.444  0.9781 -1.2049  0.6290
10835TIP3    H253921   4.488   0.650   1.319  1.9524  0.8408 -0.0241
10836TIP3   OH253922   4.930   1.873   2.706  0.1638  0.3736  0.7405
10836TIP3    H153923   4.917   1.925   2.627  1.3958  0.4177  0.5419
10836TIP3    H253924   4.843   1.865   2.744 -0.5584 -0.1271 -0.9212
10837TIP3   OH253925   4.302   1.181  14.268  0.3922  0.2853 -0.0437
10837TIP3    H153926   4.372   1.160  14.329 -0.0532  0.3159  0.4819
10837TIP3    H253927   4.221   1.176  14.320 -0.0449 -0.2395 -0.7517
10838TIP3   OH253928   2.048   3.855   5.548  0.2478 -0.2157  0.5075
10838TIP3    H153929   2.055   3.929   5.488  1.0589  0.0743  0.9467
10838TIP3    H253930   2.055   3.894   5.635  0.3956 -0.7795  0.7520
10839TIP3   OH253931   3.792   3.353   3.298 -0.6064 -0.1868 -0.3335
10839TIP3    H153932   3.886   3.357   3.282 -0.4932  0.3174  0.4113
10839TIP3    H253933   3.763   3.275   3.250 -0.4241  1.5178 -3.5113
10840TIP3   OH253934   6.328   6.274   6.112 -0.1090 -0.4335  0.0829
10840TIP3    H153935   6.370   6.358   6.132 -0.0188 -0.2745 -0.7110
10840TIP3    H253936   6.389   6.231   6.051 -0.4644 -0.7888 -0.0233
10841TIP3   OH253937   5.145   5.160   4.123  0.0933  0.1329 -0.0854
10841TIP3    H153938   5.056   5.191   4.108  0.3366  1.9878  1.9646
10841TIP3    H253939   5.180   5.145   4.035 -1.7882  0.6696 -0.9677
10842TIP3   OH253940   5.808   2.212  15.368 -0.0800  0.0819  0.4753
10842TIP3    H153941   5.836   2.237  15.280 -1.1318 -0.2537  0.0292
10842TIP3    H253942   5.859   2.268  15.426  1.4066 -0.4081 -0.2945
10843TIP3   OH253943   0.978   6.200  17.200 -0.0829 -0.0735 -0.4687
10843TIP3    H153944   1.066   6.197  17.239 -0.2390 -1.5785 -0.1667
10843TIP3    H253945   0.924   6.150  17.261 -1.2563  1.2075 -0.4293
10844TIP3   OH253946   4.128   6.407  12.655  0.1340  0.4805  0.5313
10844TIP3    H153947   4.139   6.343  12.584  0.6067 -0.6405  1.5842
10844TIP3    H253948   4.182   6.481  12.628  0.5006 -0.0246 -0.1768
10845TIP3   OH253949   4.342   5.804  12.798 -0.7765  0.0384 -0.4261
10845TIP3    H153950   4.419   5.861  12.790  1.3578 -2.3086  1.7671
10845TIP3    H253951   4.353   5.739  12.730 -1.3063  0.1863 -0.6568
10846TIP3   OH253952   0.915   3.964  11.782 -0.1438 -0.0375  0.0337
10846TIP3    H153953   0.930   4.058  11.782 -2.4833  0.4250  1.5017
10846TIP3    H253954   0.923   3.938  11.691  0.1282  1.6722 -0.4581
10847TIP3   OH253955   1.859   2.413  13.829 -0.1079  0.2004 -0.1883
10847TIP3    H153956   1.888   2.339  13.776 -0.2619 -0.8740  1.1679
10847TIP3    H253957   1.778   2.443  13.787  0.4613  0.2356 -1.2990
10848TIP3   OH253958   4.511   6.416   2.584 -0.1088 -0.2938 -0.1551
10848TIP3    H153959   4.462   6.336   2.602  2.6827 -2.0694  0.0943
10848TIP3    H253960   4.538   6.408   2.492 -2.6470  2.1316 -1.2896
10849TIP3   OH253961   1.356   1.894   2.194  0.0902  0.3299  0.0115
10849TIP3    H153962   1.395   1.968   2.146 -0.9508  0.7658 -0.1861
10849TIP3    H253963   1.268   1.886   2.157  0.3907 -1.4032 -0.3824
10850TIP3   OH253964   0.919   0.383   2.383  0.1574  0.0670  0.0368
10850TIP3    H153965   0.998   0.428   2.354  1.5068 -1.3175  1.3450
10850TIP3    H253966   0.903   0.417   2.471 -0.9050  0.5423 -0.3181
10851TIP3   OH253967   5.520   6.484  12.473  0.2434 -0.1336  0.2023
10851TIP3    H153968   5.490   6.432  12.399  1.3739 -3.1057  1.6906
10851TIP3    H253969   5.450   6.477  12.538 -0.4092  1.8327 -0.2039
10852TIP3   OH253970   6.076   5.890  14.899  0.0960  0.5419  0.4246
10852TIP3    H153971   6.170   5.879  14.889  0.2148  1.1842  0.8234
10852TIP3    H253972   6.040   5.860  14.815  0.7721  1.7060 -0.3269
10853TIP3   OH253973   6.687   1.998   6.083  0.0973 -0.6743  0.7355
10853TIP3    H153974   6.725   1.936   6.021 -0.9875 -1.6735  1.0432
10853TIP3    H253975   6.718   2.084   6.053  1.3520 -1.3180  0.1103
10854TIP3   OH253976   6.032   2.120  16.046 -0.1738 -0.2277  0.2067
10854TIP3    H153977   6.016   2.126  15.952  3.4579  1.5140 -0.4710
10854TIP3    H253978   6.055   2.209  16.072 -2.4928 -0.3482  3.1541
10855TIP3   OH253979   1.898   2.360  15.235  0.1277 -0.3864 -0.0426
10855TIP3    H153980   1.822   2.331  15.287 -2.4044  2.6511 -1.6806
10855TIP3    H253981   1.885   2.319  15.149  0.1367  0.4321 -0.4388
10856TIP3   OH253982   2.886   4.818   3.109  0.1639  0.3045 -0.5874
10856TIP3    H153983   2.811   4.764   3.082  0.3450 -0.5491  0.5572
10856TIP3    H253984   2.853   4.908   3.107 -0.5605  0.0369 -1.1743
10857TIP3   OH253985   4.998   5.982  16.952  0.2163  0.1416  0.0991
10857TIP3    H153986   4.941   6.022  17.018 -2.2492 -0.8655 -1.2534
10857TIP3    H253987   5.000   6.046  16.881 -0.6410 -0.4816 -0.5180
10858TIP3   OH253988   5.550   2.259  14.685 -0.7422 -0.3854  0.6454
10858TIP3    H153989   5.631   2.308  14.697  0.4861 -2.2954  0.6228
10858TIP3    H253990   5.543   2.247  14.591 -0.8200 -0.5703  0.6742
10859TIP3   OH253991   2.372   2.903  13.551 -0.1948  0.1333  0.6249
10859TIP3    H153992   2.300   2.957  13.584 -0.3985  1.5970 -1.9891
10859TIP3    H253993   2.451   2.946  13.585 -0.4315  0.7549  0.4027
10860TIP3   OH253994   4.235   2.552  13.762 -0.3816 -0.4601 -0.3329
10860TIP3    H153995   4.178   2.609  13.709 -0.4334 -0.0864  0.1236
10860TIP3    H253996   4.227   2.466  13.720 -2.7255 -0.8569  0.7758
10861TIP3   OH253997   3.963   5.654   5.217  0.0289 -0.0788 -0.1210
10861TIP3    H153998   4.043   5.604   5.202 -0.2512 -0.0820 -1.8958
10861TIP3    H253999   3.990   5.730   5.267  0.9729 -0.5193  0.0564
10862TIP3   OH254000   2.427   6.679   4.295 -0.5146  0.5230  0.5408
10862TIP3    H154001   2.441   6.731   4.374 -0.3771  2.8783 -0.9427
10862TIP3    H254002   2.375   6.605   4.325 -0.2253  1.1784  2.8864
10863TIP3   OH254003   4.428   4.202   4.546  0.0449 -0.4837 -0.0777
10863TIP3    H154004   4.515   4.161   4.549  0.3718  0.2576  0.8048
10863TIP3    H254005   4.400   4.206   4.637  0.0768  1.3432 -0.1119
10864TIP3   OH254006   2.186   2.740   1.611  0.8152  0.2293  0.1568
10864TIP3    H154007   2.201   2.760   1.519  0.4421  0.7062  0.1971
10864TIP3    H254008   2.199   2.824   1.656 -1.5706  0.6077  0.2391
10865TIP3   OH254009   3.916   2.965   3.590  0.2113  0.0528 -0.4520
10865TIP3    H154010   3.840   2.933   3.543  0.7832  1.2563 -2.3443
10865TIP3    H254011   3.956   3.028   3.529  3.0991 -1.0546  0.1453
10866TIP3   OH254012   3.543   1.148   1.790 -0.3326  0.6165  0.3473
10866TIP3    H154013   3.490   1.224   1.765 -1.2491 -0.8499 -2.7215
10866TIP3    H254014   3.633   1.181   1.793 -0.8586  2.0958  0.4086
10867TIP3   OH254015   0.361   1.919  14.287  0.6398 -0.4270 -0.0231
10867TIP3    H154016   0.314   1.936  14.206 -0.1578  0.6687  0.6486
10867TIP3    H254017   0.311   1.850  14.330 -1.5440  1.9355  1.5366
10868TIP3   OH254018   5.591   1.375   2.023 -0.7032 -0.0442 -0.3283
10868TIP3    H154019   5.596   1.311   1.952  0.0975 -0.2946 -0.0584
10868TIP3    H254020   5.644   1.449   1.992 -2.0140  0.7202 -0.8457
10869TIP3   OH254021   0.061   4.742   2.967  0.4953  0.0409  0.7745
10869TIP3    H154022   0.150   4.710   2.977  0.4447 -0.4458 -0.1785
10869TIP3    H254023   0.015   4.671   2.921  0.2754  1.3020 -1.0597
10870TIP3   OH254024   2.711   5.999   0.442  0.1311 -0.7184 -0.4742
10870TIP3    H154025   2.695   6.093   0.441 -0.7973 -0.8630 -0.0733
10870TIP3    H254026   2.659   5.964   0.370  0.5018 -0.9193 -0.6474
10871TIP3   OH254027   5.546   5.329   0.501  0.4344  1.0502 -0.0238
10871TIP3    H154028   5.560   5.302   0.410  0.7671 -0.1887  0.3749
10871TIP3    H254029   5.468   5.384   0.498 -2.1609 -2.2854 -0.5438
10872TIP3   OH254030   5.070   1.930   0.990 -0.1054  0.3868 -0.3916
10872TIP3    H154031   5.049   1.938   1.083  0.9116  0.2629 -0.1463
10872TIP3    H254032   4.991   1.891   0.952  0.5930 -2.6309  0.9602
10873TIP3   OH254033   4.669   2.590  14.396 -0.4545  0.3904  0.2757
10873TIP3    H154034   4.629   2.504  14.383  0.8390  0.0025 -1.4918
10873TIP3    H254035   4.712   2.584  14.482  0.1448 -0.9426 -0.1038
10874TIP3   OH254036   2.435   5.352  15.698  0.5356  0.6673  0.2856
10874TIP3    H154037   2.359   5.406  15.719  0.7393  0.7195  0.9205
10874TIP3    H254038   2.501   5.378  15.762  0.4715 -0.7049  0.9416
10875TIP3   OH254039   0.230   0.014  15.742 -0.1037  0.5030 -0.0969
10875TIP3    H154040   0.261  -0.026  15.661  0.3113  0.7466 -0.0585
10875TIP3    H254041   0.154  -0.039  15.767  0.2333 -0.0464 -0.2289
10876TIP3   OH254042   1.443   3.766   3.504  0.1423 -0.3316  0.1612
10876TIP3    H154043   1.533   3.778   3.472 -0.7514  1.4289 -2.0184
10876TIP3    H254044   1.389   3.780   3.426 -2.1087  0.7639  1.8294
10877TIP3   OH254045   3.141   3.164  12.688 -0.1579  0.0796 -0.0108
10877TIP3    H154046   3.176   3.092  12.636  1.8553  1.2540 -0.4270
10877TIP3    H254047   3.218   3.217  12.709 -1.4210  1.5437  1.1597
10878TIP3   OH254048   0.486   6.340  13.059  0.2561  0.4121  0.1031
10878TIP3    H154049   0.439   6.423  13.064  0.3511  0.3956  2.1968
10878TIP3    H254050   0.483   6.305  13.148  0.2962 -1.8115 -0.7090
10879TIP3   OH254051   0.707   1.039  15.435 -0.0590 -0.0764  0.4390
10879TIP3    H154052   0.787   1.052  15.384  0.5929 -0.8540  1.2212
10879TIP3    H254053   0.730   0.971  15.499 -1.1877  0.0664  1.0300
10880TIP3   OH254054   5.319   0.639  11.595  0.7473  0.6508 -0.5516
10880TIP3    H154055   5.398   0.593  11.624  0.1937  0.6792  1.0733
10880TIP3    H254056   5.348   0.729  11.580  0.8167  0.9600  1.2177
10881TIP3   OH254057   0.150   4.601  13.863  0.7472 -0.1918 -0.1809
10881TIP3    H154058   0.125   4.631  13.775 -0.9233  0.9177  0.6260
10881TIP3    H254059   0.075   4.551  13.894 -0.7457  3.2114  2.3051
10882TIP3   OH254060   0.565   2.090  17.108  0.4114  0.3206 -0.4091
10882TIP3    H154061   0.653   2.075  17.074  0.4448 -0.4186  0.0094
10882TIP3    H254062   0.546   2.181  17.084  0.4595 -0.1444 -2.3658
10883TIP3   OH254063   1.649   0.686   4.508 -0.2452  0.4587 -0.0574
10883TIP3    H154064   1.647   0.757   4.572 -0.0778  0.4591 -0.0509
10883TIP3    H254065   1.656   0.731   4.423  1.0305  0.4383  0.0120
10884TIP3   OH254066   2.967   2.065   0.549  0.3620 -0.2713  0.3524
10884TIP3    H154067   2.973   1.970   0.540  0.7681 -0.1148 -1.3642
10884TIP3    H254068   2.921   2.094   0.470  0.3487  0.9815  0.7893
10885TIP3   OH254069   3.241   6.466  15.334 -0.4116  0.3903  0.4217
10885TIP3    H154070   3.160   6.503  15.297 -1.0184 -1.1135  0.1721
10885TIP3    H254071   3.241   6.495  15.425 -1.4472  0.0954  0.5305
10886TIP3   OH254072   6.737   2.581   3.623  0.3258  0.2600 -0.1020
10886TIP3    H154073   6.754   2.491   3.649  3.4372  0.2707 -1.6868
10886TIP3    H254074   6.664   2.576   3.561  0.9669 -1.2805 -0.7633
10887TIP3   OH254075   0.636   4.881  12.799  0.1230 -0.1855 -0.4195
10887TIP3    H154076   0.692   4.872  12.723 -1.6775  0.3571 -1.8834
10887TIP3    H254077   0.669   4.816  12.862  0.0761 -2.5023 -2.6383
10888TIP3   OH254078   5.553   0.380   4.770  0.4335  0.1796 -0.1256
10888TIP3    H154079   5.565   0.393   4.676  1.0848 -0.6040 -0.1656
10888TIP3    H254080   5.625   0.322   4.796 -0.2755 -0.3823  0.6759
10889TIP3   OH254081   5.024   2.257  12.793 -0.9427  0.1235  0.7497
10889TIP3    H154082   5.077   2.335  12.778 -0.5850  0.1855  2.1607
10889TIP3    H254083   4.934   2.289  12.791 -0.8741  0.2943 -0.1217
10890TIP3   OH254084   6.239   3.418  14.024  0.5632  0.0780  0.0672
10890TIP3    H154085   6.208   3.327  14.020  1.1722 -0.2036  1.1744
10890TIP3    H254086   6.269   3.428  14.115 -0.2521  1.6431  0.1793
10891TIP3   OH254087   0.566   5.031  13.872 -0.3853  0.5153 -0.0685
10891TIP3    H154088   0.536   5.049  13.783 -1.0896 -1.8683 -0.3890
10891TIP3    H254089   0.661   5.025  13.864 -0.4195  0.5954 -0.5944
10892TIP3   OH254090   3.536   5.760   2.293 -0.6534  0.0470 -0.4790
10892TIP3    H154091   3.496   5.674   2.282  0.0774 -0.1912 -1.2514
10892TIP3    H254092   3.518   5.782   2.385 -0.1072 -1.2961 -0.0277
10893TIP3   OH254093   3.397   6.185   3.400 -0.1175  0.4287  0.1173
10893TIP3    H154094   3.377   6.173   3.493  0.3860 -1.2858  0.0286
10893TIP3    H254095   3.329   6.245   3.369  0.6555  2.4127  1.9358
10894TIP3   OH254096   2.324   1.104  12.850  0.1969  0.1502 -0.0174
10894TIP3    H154097   2.263   1.041  12.889 -0.2609  0.7137  0.1952
10894TIP3    H254098   2.403   1.098  12.904  0.2689 -0.4601 -0.1855
10895TIP3   OH254099   6.285   3.481  12.391 -0.6463  0.7376 -0.0888
10895TIP3    H154100   6.205   3.494  12.340 -1.6539  1.2007  1.5298
10895TIP3    H254101   6.349   3.451  12.328 -2.3306 -0.4958 -1.2963
10896TIP3   OH254102   3.509   5.056   6.131  0.2331 -0.3956 -0.5777
10896TIP3    H154103   3.435   4.998   6.147  0.5231 -0.5715  0.1532
10896TIP3    H254104   3.569   5.039   6.203  0.0435  1.2460  0.0165
10897TIP3   OH254105   2.598   4.227   3.025 -0.0731  0.3695  0.3381
10897TIP3    H154106   2.563   4.214   3.113  1.1450 -0.2105  0.7611
10897TIP3    H254107   2.659   4.300   3.033  0.0203  0.3352 -0.0305
10898TIP3   OH254108   6.546   1.337  16.698  0.0662 -0.5111  0.3699
10898TIP3    H154109   6.539   1.394  16.774  2.3358 -1.6031  1.4750
10898TIP3    H254110   6.540   1.396  16.623 -0.3328  0.8256  1.4261
10899TIP3   OH254111   3.123   3.679   2.753 -0.2759 -0.2552  0.5491
10899TIP3    H154112   3.197   3.699   2.810 -0.6078 -0.4252  1.0473
10899TIP3    H254113   3.046   3.698   2.807 -0.5927 -0.0061  0.0108
10900TIP3   OH254114   1.429   2.916   0.920  0.3596 -0.1858  0.4614
10900TIP3    H154115   1.358   2.967   0.882  0.7671 -0.3996 -0.6093
10900TIP3    H254116   1.399   2.895   1.008  0.0468  1.6269  0.8327
10901TIP3   OH254117   4.871   2.574  13.414  0.0477  0.3900 -0.0152
10901TIP3    H154118   4.960   2.550  13.439 -0.1488 -0.3108  0.0210
10901TIP3    H254119   4.852   2.519  13.338 -0.0116  1.2247 -0.6199
10902TIP3   OH254120   6.447   4.011   2.213  0.6212 -0.1246  0.2830
10902TIP3    H154121   6.524   4.060   2.241  0.0898  0.3590  0.9393
10902TIP3    H254122   6.374   4.052   2.260  0.0163 -0.8210 -0.0263
10903TIP3   OH254123   6.032   0.138  14.587 -0.1182 -0.1687  0.1214
10903TIP3    H154124   6.109   0.192  14.568  0.4072 -0.9373  0.0058
10903TIP3    H254125   6.024   0.141  14.682  0.5679 -0.7597  0.2053
10904TIP3   OH254126   5.524   2.667   1.856 -0.4500  0.1327 -0.4326
10904TIP3    H154127   5.452   2.673   1.919 -0.3987  0.0765 -0.3693
10904TIP3    H254128   5.481   2.673   1.770 -0.4212  1.4034 -0.3863
10905TIP3   OH254129   2.779   0.202  12.642  0.0584  0.7088 -0.1452
10905TIP3    H154130   2.696   0.154  12.644 -0.0410  0.8885  0.6048
10905TIP3    H254131   2.830   0.164  12.715 -0.6223  2.7588  1.4984
10906TIP3   OH254132   5.027   4.803  16.071 -0.1507  0.1265  0.0434
10906TIP3    H154133   5.063   4.803  16.159  0.3223  5.2512  0.1694
10906TIP3    H254134   5.097   4.769  16.015  1.2794  0.9584  1.2695
10907TIP3   OH254135   3.217   3.820  11.915  0.2395  0.6261 -0.4964
10907TIP3    H154136   3.291   3.872  11.946  0.2098  0.4240 -0.0845
10907TIP3    H254137   3.241   3.729  11.936 -0.7078  0.6721  0.8708
10908TIP3   OH254138   4.404   5.718  13.943 -0.5803 -0.5370  0.7500
10908TIP3    H154139   4.352   5.788  13.905 -1.5138 -0.5905  1.9111
10908TIP3    H254140   4.411   5.653  13.873 -0.2719  0.3941 -0.1065
10909TIP3   OH254141   0.974   3.730  17.259  0.2352 -0.0529  0.1027
10909TIP3    H154142   1.062   3.694  17.260  0.9211  1.5272 -0.3392
10909TIP3    H254143   0.979   3.805  17.318 -0.5464  0.6404 -0.7002
10910TIP3   OH254144   2.935   3.529   6.189  0.6009 -0.1004 -0.5563
10910TIP3    H154145   2.951   3.497   6.278 -2.7815 -0.3014  0.1329
10910TIP3    H254146   2.920   3.623   6.200 -3.9482 -0.6772 -0.0222
10911TIP3   OH254147   1.413   1.350  16.435 -0.4356  0.1010  0.3355
10911TIP3    H154148   1.354   1.422  16.455 -2.6572 -1.4109 -0.3794
10911TIP3    H254149   1.486   1.391  16.389 -0.9828  2.0333  1.0933
10912TIP3   OH254150   4.269   4.330   3.238 -0.0007  0.5029  0.0379
10912TIP3    H154151   4.280   4.259   3.301 -0.7240  1.3252  1.1141
10912TIP3    H254152   4.350   4.330   3.187 -0.1535 -1.3530 -0.2803
10913TIP3   OH254153   4.547   6.203   3.870  0.3659  0.3225  0.3300
10913TIP3    H154154   4.490   6.164   3.936  0.6632 -1.3297 -0.3415
10913TIP3    H254155   4.583   6.280   3.912  1.9210 -1.6036  2.8278
10914TIP3   OH254156   6.112   1.309  14.073 -0.0877  0.1532  0.5197
10914TIP3    H154157   6.180   1.248  14.101 -1.1570 -1.2042  0.2396
10914TIP3    H254158   6.079   1.348  14.154 -0.3605 -0.7002  0.8214
10915TIP3   OH254159   3.918   0.360   4.340 -0.0621  0.0113  0.2937
10915TIP3    H154160   3.976   0.426   4.379 -0.4879  0.5873 -0.0331
10915TIP3    H254161   3.977   0.290   4.311  0.4776  0.5922 -0.0385
10916TIP3   OH254162   0.851   3.544   0.428  0.2814  0.0373 -0.4820
10916TIP3    H154163   0.838   3.635   0.455 -1.2905 -0.3700  0.2185
10916TIP3    H254164   0.768   3.501   0.448  0.6963 -1.3640 -1.6298
10917TIP3   OH254165   0.098   3.093  15.781 -0.1109 -0.2193 -0.1106
10917TIP3    H154166   0.134   3.087  15.869 -1.6712 -0.2240  0.5648
10917TIP3    H254167   0.139   3.020  15.733  1.6795  0.5238  0.2283
10918TIP3   OH254168   5.759   1.227   1.266  0.0169  0.9234 -0.6533
10918TIP3    H154169   5.830   1.241   1.329 -0.3782  1.1703 -0.2558
10918TIP3    H254170   5.708   1.156   1.305 -0.9603  1.9311 -0.0381
10919TIP3   OH254171   6.266   0.714   4.289  0.5816  0.3743 -0.1799
10919TIP3    H154172   6.287   0.741   4.199 -0.7127 -1.2799 -1.0325
10919TIP3    H254173   6.344   0.668   4.319  0.6106 -0.0623 -0.8965
10920TIP3   OH254174   6.097   5.839   5.749  0.1513 -0.2066  0.2131
10920TIP3    H154175   6.151   5.879   5.817  1.5458 -0.8756 -0.4478
10920TIP3    H254176   6.059   5.913   5.702 -2.1312  0.2897  2.6148
10921TIP3   OH254177   5.811   3.605  13.721  0.4569 -0.2423 -0.2934
10921TIP3    H154178   5.780   3.692  13.696  0.0659 -0.2069  0.2889
10921TIP3    H254179   5.732   3.559  13.749  1.1298  0.6447  3.6570
10922TIP3   OH254180   3.454   2.209   3.162 -0.4345  0.3087  0.3810
10922TIP3    H154181   3.531   2.199   3.105  0.0075  0.1788  0.9879
10922TIP3    H254182   3.444   2.304   3.172  0.5477  0.3281  1.4656
10923TIP3   OH254183   0.011   1.545   5.256  0.0029 -0.4225 -0.0060
10923TIP3    H154184   0.037   1.541   5.348  0.9884 -0.3388 -0.2726
10923TIP3    H254185  -0.006   1.454   5.231  0.0177 -0.4731  0.1723
10924TIP3   OH254186   6.087   1.243   6.305  0.0966 -0.1849  0.2430
10924TIP3    H154187   6.023   1.266   6.372  0.6280  0.3942  0.5638
10924TIP3    H254188   6.092   1.147   6.308 -0.6804 -0.2306  0.2727
10925TIP3   OH254189   5.756   6.720   5.409  0.3054 -0.2654 -0.2152
10925TIP3    H154190   5.813   6.647   5.431  1.1789  0.7596  1.0810
10925TIP3    H254191   5.698   6.729   5.484  1.0745  1.1612  0.2545
10926TIP3   OH254192   5.990   6.435  11.573 -0.3350 -0.4763  0.1379
10926TIP3    H154193   6.008   6.414  11.664 -1.1211 -2.1888 -0.0516
10926TIP3    H254194   6.064   6.399  11.524  0.3950  0.9797  0.1120
10927TIP3   OH254195   6.407   5.187  14.878  0.0294  0.0467 -0.6388
10927TIP3    H154196   6.469   5.198  14.950  0.8981 -1.5969 -1.0951
10927TIP3    H254197   6.425   5.260  14.819 -0.0310  0.8532  0.3112
10928TIP3   OH254198   5.995   2.013   3.895 -0.5424 -0.0116 -0.5596
10928TIP3    H154199   5.984   2.106   3.879 -2.3551  0.1182  1.0565
10928TIP3    H254200   6.048   2.008   3.975  2.0405 -0.4737 -2.2100
10929TIP3   OH254201   1.700   2.267   2.763  0.4671 -0.1660 -0.0499
10929TIP3    H154202   1.687   2.342   2.706 -0.0277  0.0365  0.3216
10929TIP3    H254203   1.666   2.192   2.714 -0.4483  0.0850  0.1757
10930TIP3   OH254204   0.295   3.465   6.136 -0.2254 -0.5936  0.5239
10930TIP3    H154205   0.248   3.547   6.148  0.4895 -0.0564 -0.2511
10930TIP3    H254206   0.285   3.419   6.220 -2.4831 -0.7128  0.2367
10931TIP3   OH254207   5.509   5.510  10.855  0.1827  0.1414 -0.1745
10931TIP3    H154208   5.467   5.532  10.938  0.8336  0.7548  0.0059
10931TIP3    H254209   5.480   5.578  10.794  1.1596  0.7794  0.0429
10932TIP3   OH254210   0.829   3.548  14.333  0.1128  0.1173 -0.1254
10932TIP3    H154211   0.741   3.532  14.367  0.1717  1.0007  0.4839
10932TIP3    H254212   0.874   3.464  14.342 -0.0081  0.1894  1.5970
10933TIP3   OH254213   3.464   4.681  16.681  0.0516 -0.2552 -0.0270
10933TIP3    H154214   3.472   4.741  16.608  1.9494 -1.3378 -0.7994
10933TIP3    H254215   3.406   4.725  16.743 -1.0454  0.9981 -1.8475
10934TIP3   OH254216   1.614   3.151  14.136 -0.2241 -0.0345  0.3404
10934TIP3    H154217   1.704   3.142  14.167 -0.4344  0.4442  1.1355
10934TIP3    H254218   1.616   3.123  14.045  1.0290  1.3642 -0.0923
10935TIP3   OH254219   2.021   5.070   5.797 -0.4500  0.1393  0.2573
10935TIP3    H154220   1.962   5.088   5.870  1.1108  1.0914  1.3539
10935TIP3    H254221   1.965   5.034   5.728 -1.8353 -1.7089  2.2335
10936TIP3   OH254222   6.757   4.794   2.327 -0.2228  0.4695  0.1372
10936TIP3    H154223   6.752   4.700   2.344  0.2965  0.2322 -0.9397
10936TIP3    H254224   6.675   4.815   2.283 -1.0274  0.8454  1.7437
10937TIP3   OH254225   4.781   2.208  11.267 -0.1699  0.0785  0.1463
10937TIP3    H154226   4.747   2.123  11.238 -0.5734  0.5033 -0.6753
10937TIP3    H254227   4.703   2.263  11.275  0.1677  0.6174 -0.2031
10938TIP3   OH254228   5.522   0.201  16.317 -0.0881  0.1843 -0.1516
10938TIP3    H154229   5.463   0.276  16.321 -0.7447 -0.2936 -0.4990
10938TIP3    H254230   5.595   0.224  16.374 -1.7075 -0.1538  2.2151
10939TIP3   OH254231   2.311   5.392   0.609  0.4332  0.5571  0.2815
10939TIP3    H154232   2.328   5.408   0.701 -0.6173 -0.0990  0.6017
10939TIP3    H254233   2.300   5.297   0.602 -1.1627  0.7543 -0.2178
10940TIP3   OH254234   2.712   5.864  16.024  0.1639  0.3276  0.1300
10940TIP3    H154235   2.660   5.807  16.081 -0.0192  0.5464  0.1820
10940TIP3    H254236   2.799   5.824  16.024 -0.3343 -0.7945 -1.0286
10941TIP3   OH254237   5.192   4.060  12.339 -0.0510  0.1663 -0.0431
10941TIP3    H154238   5.100   4.054  12.364 -0.2101  0.2932 -0.5696
10941TIP3    H254239   5.237   3.997  12.395 -0.4795 -0.0022  0.1159
10942TIP3   OH254240   2.879   3.194   3.886  0.2574  0.1602  0.3839
10942TIP3    H154241   2.958   3.141   3.887  0.6132  0.6848  1.3751
10942TIP3    H254242   2.814   3.140   3.840  1.2322 -0.1874 -0.6524
10943TIP3   OH254243   2.818   4.083  14.377 -0.4614 -0.0496  0.0519
10943TIP3    H154244   2.903   4.124  14.359  0.1994 -1.5919 -0.5117
10943TIP3    H254245   2.760   4.157  14.395  0.7818  1.1014 -0.4260
10944TIP3   OH254246   2.532   6.086   6.615  0.4412 -0.0493 -0.3067
10944TIP3    H154247   2.496   6.158   6.564  1.0650  0.7042  0.3009
10944TIP3    H254248   2.466   6.016   6.608 -0.8179  1.0410  0.1881
10945TIP3   OH254249   4.240   3.151  13.387  0.5227 -0.3295 -0.1300
10945TIP3    H154250   4.215   3.182  13.300 -0.1020  0.8153  0.4287
10945TIP3    H254251   4.323   3.195  13.405 -0.2528  0.8867  0.5740
10946TIP3   OH254252   1.035   0.835   5.650 -1.1576 -0.0315  0.1613
10946TIP3    H154253   1.048   0.817   5.743  0.4612  0.1164 -0.0168
10946TIP3    H254254   1.015   0.750   5.612  2.7198 -1.0278 -0.0513
10947TIP3   OH254255   6.468   4.512  17.134  0.4318  0.4271 -0.3313
10947TIP3    H154256   6.501   4.545  17.050 -1.6818  0.3952 -1.2508
10947TIP3    H254257   6.520   4.558  17.200  1.5781  1.0990 -1.6399
10948TIP3   OH254258   5.582   5.380   4.535  0.4217 -0.2518 -0.1643
10948TIP3    H154259   5.653   5.404   4.475  0.2668 -1.3319 -0.8117
10948TIP3    H254260   5.584   5.284   4.538  0.3526 -0.2223  1.4963
10949TIP3   OH254261   4.550   4.362   6.030  0.1781  0.3199 -0.1054
10949TIP3    H154262   4.502   4.435   6.070 -1.9182 -0.6441 -0.7736
10949TIP3    H254263   4.639   4.370   6.066 -1.2097  0.2573  3.7927
10950TIP3   OH254264   5.839   6.763  13.308  0.0141 -0.4893 -0.3899
10950TIP3    H154265   5.863   6.754  13.400 -0.8223 -0.4990 -0.1585
10950TIP3    H254266   5.922   6.774  13.262  0.5903 -2.1591  0.1710
10951TIP3   OH254267   1.214   3.496  12.023 -0.4589  0.2310 -0.2636
10951TIP3    H154268   1.202   3.588  12.003  1.0615  0.4824 -0.1358
10951TIP3    H254269   1.305   3.478  12.000 -0.2645 -0.8253  1.1790
10952TIP3   OH254270   3.126   0.072   3.181 -0.4975 -0.3563 -0.4215
10952TIP3    H154271   3.045   0.081   3.130 -1.6080  0.3029  1.3665
10952TIP3    H254272   3.104   0.010   3.250  0.8131 -0.8317 -0.3992
10953TIP3   OH254273   1.491   1.157   6.351  0.6201  0.1349 -0.0486
10953TIP3    H154274   1.539   1.075   6.334  0.4061 -0.0638  0.2873
10953TIP3    H254275   1.527   1.219   6.288  1.7029  0.1368  0.5481
10954TIP3   OH254276   4.089   3.156   2.156 -0.1893  0.6685  0.3574
10954TIP3    H154277   4.123   3.192   2.074 -1.4467  0.5288 -0.2435
10954TIP3    H254278   4.135   3.204   2.225  1.9978 -0.2253 -0.3794
10955TIP3   OH254279   0.731   5.367   3.866 -0.0935 -0.0559  0.0681
10955TIP3    H154280   0.820   5.333   3.853  1.2194  3.1170 -0.2584
10955TIP3    H254281   0.689   5.356   3.781  0.8946  0.6319 -0.5439
10956TIP3   OH254282   4.403   3.287  12.876  0.0181  0.5003  0.0402
10956TIP3    H154283   4.429   3.373  12.910 -2.6498  1.1761  0.6555
10956TIP3    H254284   4.403   3.297  12.781  1.7176  0.4865  0.0080
10957TIP3   OH254285   5.352   6.746   6.617 -0.1464 -0.3678  0.3839
10957TIP3    H154286   5.391   6.808   6.678  0.2463  0.1799 -0.4102
10957TIP3    H254287   5.306   6.801   6.553 -1.8100 -0.9757  1.0012
10958TIP3   OH254288   5.677   0.578  12.161  0.4087 -0.4267 -0.0863
10958TIP3    H154289   5.678   0.668  12.127 -1.6138 -0.4740 -0.4123
10958TIP3    H254290   5.765   0.545  12.143  0.7737  1.0347 -1.2250
10959TIP3   OH254291   3.719   4.884  13.230 -0.0138  0.0658 -0.4630
10959TIP3    H154292   3.742   4.940  13.156  0.6089  0.5168  0.0652
10959TIP3    H254293   3.740   4.795  13.201  1.2794  0.3506 -0.4288
10960TIP3   OH254294   3.113   1.476  15.838  0.2324 -0.0095 -0.2410
10960TIP3    H154295   3.175   1.476  15.765 -2.4135 -0.6379 -2.6498
10960TIP3    H254296   3.079   1.386  15.842 -0.2234  0.1896  1.3199
10961TIP3   OH254297   1.350   0.468   0.564 -0.0616 -0.0396 -0.1167
10961TIP3    H154298   1.335   0.562   0.554  0.1236 -0.1827 -2.0870
10961TIP3    H254299   1.287   0.428   0.504  1.9711 -1.0171 -1.6924
10962TIP3   OH254300   6.254   2.812  16.544  0.3902 -0.3408  0.9519
10962TIP3    H154301   6.197   2.737  16.526  0.8379 -0.5742  0.5006
10962TIP3    H254302   6.274   2.849  16.458  0.9746 -0.3042  1.0976
10963TIP3   OH254303   4.417   5.809   4.154 -0.4246 -0.2971  0.1797
10963TIP3    H154304   4.388   5.724   4.120  1.8001 -0.0799 -2.6368
10963TIP3    H254305   4.505   5.792   4.186 -1.0584  0.3889  2.4121
10964TIP3   OH254306   4.146   4.594   1.327  0.1759 -0.2035  0.1467
10964TIP3    H154307   4.193   4.585   1.244 -0.2960  1.6546 -0.3620
10964TIP3    H254308   4.212   4.624   1.390  0.1228  0.3277 -0.0488
10965TIP3   OH254309   2.097   1.658   1.389  0.0460  0.4627 -0.3327
10965TIP3    H154310   2.024   1.602   1.362 -1.2411  2.0471 -0.2515
10965TIP3    H254311   2.069   1.697   1.472  1.4146  0.3553  0.2189
10966TIP3   OH254312   0.454   3.389  16.776 -0.8929 -0.5148 -0.2173
10966TIP3    H154313   0.477   3.311  16.827  1.6349 -0.9860 -1.8582
10966TIP3    H254314   0.533   3.443  16.779 -2.0463  1.2652 -0.4488
10967TIP3   OH254315   4.093   3.726   2.193 -0.1482  0.3085 -0.8580
10967TIP3    H154316   4.033   3.662   2.155  0.8091 -1.4744  0.4672
10967TIP3    H254317   4.144   3.759   2.119  0.9237 -2.2458 -1.3821
10968TIP3   OH254318   4.036   5.233   2.317  0.2057 -0.2621  0.3291
10968TIP3    H154319   4.074   5.309   2.273 -1.0990  0.1792 -0.0698
10968TIP3    H254320   4.092   5.160   2.289  0.0718  0.1850 -1.2054
10969TIP3   OH254321   2.992   3.382  12.568  0.6315  0.4142  0.4548
10969TIP3    H154322   3.032   3.356  12.485  0.0444  2.4532 -0.5292
10969TIP3    H254323   3.019   3.314  12.630  1.7891 -0.7077 -1.2001
10970TIP3   OH254324   2.200   3.962   4.748  0.0291 -0.8426  0.5513
10970TIP3    H154325   2.105   3.973   4.738  0.1066 -1.1565 -0.7686
10970TIP3    H254326   2.210   3.872   4.778 -0.0722 -1.0225  0.0598
10971TIP3   OH254327   3.553   6.020  16.625  0.1186 -0.4040 -0.3060
10971TIP3    H154328   3.460   6.045  16.627  0.2302  0.0935 -1.0221
10971TIP3    H254329   3.553   5.927  16.647 -0.3667  0.0366  1.7015
10972TIP3   OH254330   1.153   5.256  11.050 -0.6195  0.3616 -0.0336
10972TIP3    H154331   1.201   5.227  11.129  1.2628  0.1360 -1.1975
10972TIP3    H254332   1.212   5.319  11.008 -1.3313  0.0481 -1.5622
10973TIP3   OH254333   4.109   6.765  13.635  0.0377 -0.2822 -0.2579
10973TIP3    H154334   4.028   6.716  13.622 -1.9487  2.7686 -0.4929
10973TIP3    H254335   4.107   6.792  13.727  0.8733 -0.3141 -0.2216
10974TIP3   OH254336   5.143   2.260  11.710 -0.5393 -0.2264  0.1499
10974TIP3    H154337   5.199   2.212  11.650 -0.1106  2.4276 -1.8042
10974TIP3    H254338   5.061   2.273  11.661 -0.9435  0.2808  0.9298
10975TIP3   OH254339   0.002   0.358   0.513  0.4262  0.4196 -0.7259
10975TIP3    H154340   0.036   0.442   0.542 -1.0468  0.6510  0.4372
10975TIP3    H254341   0.047   0.294   0.568  2.4351  0.2835 -2.4106
10976TIP3   OH254342   0.358   5.066   2.540  0.1268 -0.4699 -1.3119
10976TIP3    H154343   0.357   4.991   2.598  1.9016 -0.4172 -1.1605
10976TIP3    H254344   0.442   5.061   2.495  0.8611  2.0609 -0.4181
10977TIP3   OH254345   3.686   6.573  14.667  0.0045  0.4709 -0.0922
10977TIP3    H154346   3.759   6.531  14.712 -0.2538 -0.1383 -0.2256
10977TIP3    H254347   3.610   6.517  14.687 -0.4396  1.1434  0.1213
10978TIP3   OH254348   6.699   4.758   3.214 -0.3043 -0.4071 -0.0948
10978TIP3    H154349   6.637   4.691   3.185 -2.1354  1.0178  0.3738
10978TIP3    H254350   6.775   4.745   3.157 -1.2848 -1.7494 -1.1937
10979TIP3   OH254351   3.043   3.746  15.405  0.2604  0.0852 -0.7956
10979TIP3    H154352   2.955   3.773  15.382  0.2280 -0.6956 -1.6202
10979TIP3    H254353   3.062   3.792  15.487 -0.8101  0.4428 -0.7444
10980TIP3   OH254354   5.434   4.294   0.082  0.3186 -0.5752 -0.2250
10980TIP3    H154355   5.527   4.316   0.075  1.0224 -1.8214  3.0489
10980TIP3    H254356   5.403   4.345   0.157 -1.2784 -1.1603 -0.4547
10981TIP3   OH254357   4.072   0.011   2.549 -0.2687  0.2077 -0.3284
10981TIP3    H154358   4.056  -0.070   2.597 -1.4180  1.5324  1.6701
10981TIP3    H254359   4.156  -0.003   2.505  1.2204 -0.8944  2.6145
10982TIP3   OH254360   1.710   0.593  16.885 -0.1818  0.1526  0.1680
10982TIP3    H154361   1.792   0.544  16.893 -0.0816  0.3634  0.4508
10982TIP3    H254362   1.668   0.585  16.971 -1.1435 -1.1385 -0.3910
10983TIP3   OH254363   6.381   3.522   2.500 -0.1342 -0.6634  0.4686
10983TIP3    H154364   6.474   3.512   2.481 -0.2332  1.6223 -1.7007
10983TIP3    H254365   6.378   3.574   2.580  0.4689  0.0039  0.0584
10984TIP3   OH254366   4.439   4.528   3.093 -0.0557 -0.2016 -0.0802
10984TIP3    H154367   4.348   4.509   3.116 -0.4995  1.0849 -0.6213
10984TIP3    H254368   4.454   4.616   3.128  1.1656 -0.6055  0.4689
10985TIP3   OH254369   0.499   4.889   5.543 -0.4579  0.4812  0.1669
10985TIP3    H154370   0.456   4.803   5.552  0.3021 -0.1330 -1.6598
10985TIP3    H254371   0.586   4.868   5.509 -0.0605  1.9632  0.2324
10986TIP3   OH254372   2.465   6.567   5.103 -0.2861  0.1676 -0.0060
10986TIP3    H154373   2.393   6.545   5.044  0.0349 -0.4501 -0.1770
10986TIP3    H254374   2.436   6.538   5.189  0.2831 -1.3393 -0.2860
10987TIP3   OH254375   5.158   3.924   1.478  0.0070  0.0453 -0.2113
10987TIP3    H154376   5.072   3.962   1.495  0.1329 -0.1117  0.7985
10987TIP3    H254377   5.140   3.837   1.444 -0.2531  0.5108 -1.3111
10988TIP3   OH254378   4.794   4.723  14.644 -0.4646  0.3990  0.1741
10988TIP3    H154379   4.764   4.759  14.727  0.2412  0.7902  0.2614
10988TIP3    H254380   4.889   4.722  14.650 -0.3467  1.5610 -1.0944
10989TIP3   OH254381   2.734   1.866  11.003 -0.1473  0.2291  0.5701
10989TIP3    H154382   2.671   1.868  10.931 -0.5655  2.9064  0.8727
10989TIP3    H254383   2.680   1.861  11.082  0.1534  0.0388  0.7654
10990TIP3   OH254384   6.309   4.259   1.219 -0.3115 -0.0368  0.4543
10990TIP3    H154385   6.278   4.267   1.309  0.0148  0.7319  0.5081
10990TIP3    H254386   6.381   4.322   1.213 -0.5314  0.1431 -0.4288
10991TIP3   OH254387   6.561   6.532  11.351 -0.1967  0.4085  0.7968
10991TIP3    H154388   6.621   6.579  11.410  1.1080  0.2237 -0.3377
10991TIP3    H254389   6.583   6.564  11.264 -1.7655  0.3116  0.3479
10992TIP3   OH254390   3.593   3.901   1.782 -0.5023  0.2984 -0.1342
10992TIP3    H154391   3.614   3.872   1.871  1.7044  0.2692 -0.5892
10992TIP3    H254392   3.529   3.837   1.751  0.0457 -0.7685  0.8221
10993TIP3   OH254393   0.410   3.539  12.595 -0.3571 -0.3237 -0.1092
10993TIP3    H154394   0.386   3.551  12.503  0.3351 -0.5261 -0.3216
10993TIP3    H254395   0.442   3.625  12.622 -3.4839  0.6599  0.8761
10994TIP3   OH254396   5.834   0.104   3.990  0.2349 -0.2555 -0.4190
10994TIP3    H154397   5.864   0.018   3.959 -1.7463 -0.9669 -0.5592
10994TIP3    H254398   5.740   0.091   4.007 -0.1405  1.9361 -0.5777
10995TIP3   OH254399   0.112   4.627  15.904  0.6658  0.1773  0.1585
10995TIP3    H154400   0.019   4.622  15.923  0.5904  1.8875  0.4587
10995TIP3    H254401   0.117   4.631  15.809  0.6896 -3.0121 -0.0755
10996TIP3   OH254402   5.229   0.195   5.189 -0.3713  0.5825  1.6530
10996TIP3    H154403   5.250   0.168   5.279 -1.6789  1.7479  2.3422
10996TIP3    H254404   5.141   0.162   5.174  0.0788 -0.1683  0.5273
10997TIP3   OH254405   6.192   4.056  16.988 -0.4928  0.1197 -0.0223
10997TIP3    H154406   6.260   4.119  16.966  0.8400 -1.6814 -1.3972
10997TIP3    H254407   6.122   4.072  16.925 -0.0995  0.1526 -0.4582
10998TIP3   OH254408   0.707   3.841  14.393  0.0996 -0.1333  0.1272
10998TIP3    H154409   0.614   3.829  14.376 -0.3655  2.2152  0.6863
10998TIP3    H254410   0.748   3.759  14.363 -2.1242 -1.2737  0.0190
10999TIP3   OH254411   6.332   1.243  13.406 -0.0158 -0.6390 -0.2292
10999TIP3    H154412   6.407   1.268  13.351  1.0504 -0.6476  1.1592
10999TIP3    H254413   6.308   1.323  13.451 -0.2622 -0.8439  0.0054
11000TIP3   OH254414   4.936   2.878  11.678  0.1724 -0.1476 -0.2241
11000TIP3    H154415   4.998   2.826  11.729  1.3384  0.6751 -0.7461
11000TIP3    H254416   4.952   2.853  11.587  0.0352  0.3671 -0.3979
11001TIP3   OH254417   1.546   6.042   0.672 -0.1727  0.0556 -0.5902
11001TIP3    H154418   1.579   6.020   0.759  0.2810  0.2758 -0.7015
11001TIP3    H254419   1.504   6.127   0.682 -0.8972 -0.3230 -0.4036
11002TIP3   OH254420   6.661   6.504   2.922 -0.1737 -0.4103  0.2943
11002TIP3    H154421   6.674   6.411   2.903 -0.1556 -0.3618  0.0704
11002TIP3    H254422   6.638   6.506   3.015  0.1499 -0.6081  0.3804
11003TIP3   OH254423   1.559   3.038   6.223 -0.2644  0.3792 -0.5987
11003TIP3    H154424   1.477   2.989   6.227 -1.9779  3.0966  0.6216
11003TIP3    H254425   1.605   3.014   6.304 -0.4503 -0.2207 -0.6679
11004TIP3   OH254426   4.063   3.014  11.206 -0.0724  0.7810 -0.0519
11004TIP3    H154427   4.017   3.082  11.157 -0.8566  0.2753 -0.0219
11004TIP3    H254428   4.040   2.932  11.163  1.1823  0.5519 -0.3263
11005TIP3   OH254429   1.595   2.843  14.738 -1.0804 -0.6187 -0.5112
11005TIP3    H154430   1.567   2.803  14.656 -2.4083 -0.3445 -0.2101
11005TIP3    H254431   1.515   2.875  14.778 -0.7607 -2.4431  1.8297
11006TIP3   OH254432   6.151   2.405   2.255 -0.2266  0.5681  0.0045
11006TIP3    H154433   6.217   2.417   2.188  0.0883  2.5466  0.6010
11006TIP3    H254434   6.071   2.443   2.217  0.1181  2.3139  0.9581
11007TIP3   OH254435   1.408   2.631  14.645  0.4463 -0.0197 -0.0671
11007TIP3    H154436   1.422   2.548  14.599 -0.4467 -0.4605  0.4401
11007TIP3    H254437   1.426   2.697  14.578  1.1262 -0.6116 -0.4920
11008TIP3   OH254438   2.878   0.681   0.805  0.2347 -0.0327  0.4329
11008TIP3    H154439   2.796   0.677   0.756 -1.0032 -2.8859  2.4875
11008TIP3    H254440   2.928   0.605   0.774  2.1482  1.5433 -0.6474
11009TIP3   OH254441   2.126   3.456   0.652  0.1991 -0.3145  0.5225
11009TIP3    H154442   2.106   3.538   0.606  1.4699  0.0198  0.5263
11009TIP3    H254443   2.118   3.388   0.585  0.8107  0.0199  0.1083
11010TIP3   OH254444   5.469   0.032  13.951 -0.1277 -0.5570 -0.2926
11010TIP3    H154445   5.442   0.109  14.002  2.2972 -0.3333  0.8235
11010TIP3    H254446   5.428   0.044  13.866 -1.9727  0.5789  0.6943
11011TIP3   OH254447   4.314   2.741  13.931  0.1547 -0.2814 -0.1603
11011TIP3    H154448   4.324   2.670  13.994 -1.2805  0.1821  0.6387
11011TIP3    H254449   4.263   2.703  13.859 -1.5109  0.1449  0.7327
11012TIP3   OH254450   1.396   0.595   6.036 -0.3625 -0.3040  0.6458
11012TIP3    H154451   1.484   0.631   6.028 -0.7489  0.6703  0.6311
11012TIP3    H254452   1.364   0.588   5.946 -0.2832 -0.7357  0.6452
11013TIP3   OH254453   3.581   5.358  15.612  0.4170  0.6523 -0.0691
11013TIP3    H154454   3.502   5.386  15.658 -0.4385  1.1224 -1.7718
11013TIP3    H254455   3.573   5.262  15.607  1.2640  0.4041  1.9941
11014TIP3   OH254456   1.051   1.798   5.469 -0.7889 -0.1878 -0.6885
11014TIP3    H154457   0.971   1.783   5.520  0.4171 -0.4417  1.2246
11014TIP3    H254458   1.057   1.893   5.460 -1.4770 -0.1835 -1.1390
11015TIP3   OH254459   5.095   4.746  11.276  0.2718  0.0729 -0.2399
11015TIP3    H154460   5.164   4.782  11.220  2.5042  0.0628  2.3434
11015TIP3    H254461   5.042   4.822  11.300  0.1265  0.2898 -1.1865
11016TIP3   OH254462   0.663   3.826   5.274  0.3225  0.3625 -0.3727
11016TIP3    H154463   0.567   3.825   5.273  0.3229 -0.8760 -1.1990
11016TIP3    H254464   0.685   3.916   5.299 -1.0443  0.6148  0.0534
11017TIP3   OH254465   2.849   6.180  14.282  0.4852 -0.5219  1.0027
11017TIP3    H154466   2.762   6.156  14.251  0.3130 -1.0985  1.8997
11017TIP3    H254467   2.904   6.105  14.260  0.8469 -0.0188  0.1262
11018TIP3   OH254468   3.264   2.439  15.709  0.0904 -0.5391  0.0235
11018TIP3    H154469   3.290   2.444  15.616  1.4266 -2.2786  0.2504
11018TIP3    H254470   3.319   2.370  15.745 -0.9101 -0.3717  1.9774
11019TIP3   OH254471   4.817   1.937  12.827 -0.0882 -0.3563 -0.1087
11019TIP3    H154472   4.891   1.986  12.861  0.2696 -0.7706 -0.2877
11019TIP3    H254473   4.745   2.001  12.824  0.3731  0.1592 -0.3564
11020TIP3   OH254474   0.401   3.601  11.216  0.4121 -0.5127  0.5638
11020TIP3    H154475   0.439   3.526  11.170  1.1192  0.4818 -0.5052
11020TIP3    H254476   0.434   3.677  11.170 -0.8259  0.4647  1.2287
11021TIP3   OH254477   2.911   2.530   5.055 -0.2447  0.1227 -0.1134
11021TIP3    H154478   2.880   2.508   4.967  0.0624 -0.6981 -0.0179
11021TIP3    H254479   3.001   2.561   5.041 -1.2984  3.4382 -0.5185
11022TIP3   OH254480   2.941   1.742   5.888 -0.1306  0.5660 -0.4215
11022TIP3    H154481   2.987   1.668   5.928  1.4353  1.4685 -0.5030
11022TIP3    H254482   2.850   1.711   5.881 -0.4278  0.0765  3.1759
11023TIP3   OH254483   1.182   5.043   1.184  0.0015  0.1849 -0.2532
11023TIP3    H154484   1.236   5.081   1.115  0.1460 -0.6936 -0.6406
11023TIP3    H254485   1.180   5.109   1.253  0.4392  0.7818 -0.8090
11024TIP3   OH254486   3.884   3.597   6.205  0.2261  0.0333 -0.8449
11024TIP3    H154487   3.926   3.553   6.279 -1.3608 -1.1132 -0.5791
11024TIP3    H254488   3.867   3.686   6.237 -1.0017 -0.6188  0.4343
11025TIP3   OH254489   1.026   0.360   3.458 -0.3140  0.9054  0.1623
11025TIP3    H154490   0.934   0.336   3.468 -1.0748  3.2803 -0.5358
11025TIP3    H254491   1.042   0.422   3.529  0.7412  0.5950  0.2098
11026TIP3   OH254492   6.119   3.655   2.913  0.0959 -0.2419 -0.4338
11026TIP3    H154493   6.045   3.617   2.961  0.0247  0.3562 -0.0711
11026TIP3    H254494   6.137   3.591   2.844 -0.6732 -0.4544 -0.4461
11027TIP3   OH254495   4.055   2.722   6.957 -0.5318 -0.3613 -0.5131
11027TIP3    H154496   4.001   2.695   7.031  0.0265 -1.0752 -0.3542
11027TIP3    H254497   4.123   2.655   6.952 -0.0898  0.1315 -1.1612
11028TIP3   OH254498   2.259   0.020  15.473 -0.4501  0.7863 -0.6571
11028TIP3    H154499   2.254   0.100  15.420 -0.2350  1.5236  0.4048
11028TIP3    H254500   2.208  -0.044  15.424 -1.4066  1.8290 -1.0703
11029TIP3   OH254501   3.768   2.691   3.792 -0.1202 -0.6294 -0.3306
11029TIP3    H154502   3.851   2.646   3.777 -0.0985 -0.8431  0.3817
11029TIP3    H254503   3.768   2.711   3.886 -0.7439 -0.3784 -0.3786
11030TIP3   OH254504   3.064   4.922   2.927 -0.7742 -0.1518 -0.4587
11030TIP3    H154505   3.148   4.923   2.973 -1.8376  0.5750  1.5247
11030TIP3    H254506   3.006   4.872   2.984 -1.8134 -0.3273 -1.6357
11031TIP3   OH254507   0.093   4.855  11.992  0.1639 -0.4142  0.0526
11031TIP3    H154508   0.013   4.838  11.942 -0.7067  0.6617  1.0363
11031TIP3    H254509   0.097   4.784  12.056 -0.1990 -0.2618  0.2414
11032TIP3   OH254510   4.447   6.121  16.300  0.6714  0.0086  0.1935
11032TIP3    H154511   4.490   6.090  16.379  1.2001  0.0725 -0.0614
11032TIP3    H254512   4.368   6.165  16.331 -0.4287 -2.0658  0.5376
11033TIP3   OH254513   3.347   2.635  14.341  0.1339  0.0076  0.4424
11033TIP3    H154514   3.439   2.652  14.319  0.1123 -0.2763  0.1180
11033TIP3    H254515   3.326   2.701  14.407  0.0947  1.1438 -0.6645
11034TIP3   OH254516   5.255   1.027   2.599 -0.2926  0.3465  0.1405
11034TIP3    H154517   5.226   0.937   2.585  1.1359 -0.3142  1.2175
11034TIP3    H254518   5.309   1.046   2.522  1.3921 -0.6118  1.0387
11035TIP3   OH254519   4.705   1.149  12.337 -0.0327 -0.2139  0.4921
11035TIP3    H154520   4.685   1.194  12.255 -0.5780 -2.0172 -0.4041
11035TIP3    H254521   4.798   1.167  12.352 -0.1537  0.9101 -0.0019
11036TIP3   OH254522   4.736   0.459  11.440  0.1285 -0.1794  0.1709
11036TIP3    H154523   4.711   0.514  11.365 -1.8767 -0.5881  0.5116
11036TIP3    H254524   4.755   0.373  11.402 -1.6172 -0.5955  0.1720
11037TIP3   OH254525   1.194   2.146  15.143  0.3346 -0.1699  0.5592
11037TIP3    H154526   1.226   2.182  15.060  1.1845 -0.9542  0.5221
11037TIP3    H254527   1.216   2.212  15.208 -1.1764  0.8792  0.0657
11038TIP3   OH254528   0.481   5.605  12.890 -0.0732  0.0775 -0.4932
11038TIP3    H154529   0.468   5.542  12.962 -1.8008  0.4861 -0.3943
11038TIP3    H254530   0.567   5.584  12.856  0.3081 -0.9083  0.9486
11039TIP3   OH254531   4.011   4.549   1.705  0.3797  0.2225  0.0132
11039TIP3    H154532   4.084   4.493   1.731 -0.1888  0.4019  2.2018
11039TIP3    H254533   3.973   4.504   1.629  1.9452 -0.5537 -0.3596
11040TIP3   OH254534   1.640   6.602   5.423 -0.1843 -0.6498 -0.0853
11040TIP3    H154535   1.590   6.668   5.374 -0.6517  0.1110  1.3632
11040TIP3    H254536   1.585   6.524   5.420 -0.8856 -0.1961  0.3846
11041TIP3   OH254537   5.626   0.204  17.078 -0.0516 -0.4373 -0.1247
11041TIP3    H154538   5.556   0.202  17.143 -2.1352  1.5521 -2.1621
11041TIP3    H254539   5.704   0.229  17.128 -1.3202 -0.1396  1.7971
11042TIP3   OH254540   5.958   4.287  15.391 -0.7058 -0.2318 -0.1686
11042TIP3    H154541   5.968   4.285  15.296 -1.8573 -0.3475 -0.3006
11042TIP3    H254542   6.036   4.333  15.422  0.2821 -1.2100 -1.0718
11043TIP3   OH254543   4.503   3.599  14.998 -0.1262  0.4132 -0.0707
11043TIP3    H154544   4.416   3.603  15.038  0.2437  1.1083  0.6926
11043TIP3    H254545   4.564   3.600  15.072  0.5255 -2.6064 -0.4402
11044TIP3   OH254546   3.608   2.400  16.509 -0.1311  0.0051 -0.5505
11044TIP3    H154547   3.582   2.308  16.509  0.9336 -0.3385  1.0325
11044TIP3    H254548   3.527   2.448  16.493 -0.5646 -1.2067 -2.2684
11045TIP3   OH254549   3.728   5.756   3.459  0.2594 -0.2967 -0.1057
11045TIP3    H154550   3.749   5.780   3.368  0.8582 -1.3235 -0.2659
11045TIP3    H254551   3.718   5.661   3.456 -1.0066 -0.2011  0.6744
11046TIP3   OH254552   2.817   1.457  13.398  0.2461 -0.1480 -0.7774
11046TIP3    H154553   2.865   1.380  13.430  0.9296  0.2482 -0.8310
11046TIP3    H254554   2.731   1.451  13.441  0.3556 -0.8344 -0.6315
11047TIP3   OH254555   6.286   3.139  12.666  0.2013  0.0749 -0.3899
11047TIP3    H154556   6.335   3.217  12.641 -0.6909  0.3502 -1.3351
11047TIP3    H254557   6.312   3.072  12.602  0.1113 -0.0745 -0.2719
11048TIP3   OH254558   3.661   4.119   3.205 -0.3281 -0.6488  0.3906
11048TIP3    H154559   3.702   4.161   3.130  1.5739  0.4649  1.9350
11048TIP3    H254560   3.609   4.189   3.245 -1.4795 -1.2834  0.0319
11049TIP3   OH254561   2.502   1.500  11.156 -0.3857 -0.5410 -0.0352
11049TIP3    H154562   2.571   1.498  11.090  0.9269 -0.7309  1.2949
11049TIP3    H254563   2.444   1.428  11.132  0.9580 -1.6519 -0.0634
11050TIP3   OH254564   5.547   1.657   3.904  0.5797  0.3271 -0.7475
11050TIP3    H154565   5.534   1.742   3.947  1.2785 -0.1326  0.4332
11050TIP3    H254566   5.641   1.654   3.885  0.5924 -0.2455 -0.6209
11051TIP3   OH254567   5.481   1.216  15.064  0.3769 -0.6071  0.1430
11051TIP3    H154568   5.526   1.203  14.981  0.9447  0.0424  0.3379
11051TIP3    H254569   5.419   1.286  15.047  2.0779  1.1555  0.8127
11052TIP3   OH254570   1.058   2.530  14.984  0.5481  0.4433 -0.0263
11052TIP3    H154571   1.089   2.533  14.894  1.3498 -0.9790  0.1664
11052TIP3    H254572   0.993   2.600  14.990 -0.6786 -0.4382 -2.1172
11053TIP3   OH254573   3.427   5.577  16.916  0.1443  0.1529 -0.0757
11053TIP3    H154574   3.511   5.606  16.879  0.5367 -2.1666 -1.1409
11053TIP3    H254575   3.419   5.628  16.997  2.5214  0.5629 -0.0057
11054TIP3   OH254576   1.747   4.464   1.912  0.2856  0.0851 -0.5409
11054TIP3    H154577   1.775   4.505   1.994 -2.5044  0.4987  0.3039
11054TIP3    H254578   1.701   4.384   1.940 -1.5438  0.7221 -1.5909
11055TIP3   OH254579   1.238   4.275   2.907 -0.0210  0.4967  0.2156
11055TIP3    H154580   1.245   4.367   2.883  1.6482 -0.0692 -1.8126
11055TIP3    H254581   1.320   4.256   2.952 -0.8906  0.2574  1.7568
11056TIP3   OH254582   3.333   2.106  12.581 -0.2465  0.0010 -0.2512
11056TIP3    H154583   3.246   2.085  12.546 -0.1284  1.5571 -1.5775
11056TIP3    H254584   3.331   2.074  12.671 -2.0352 -0.4021 -0.4034
11057TIP3   OH254585   0.468   0.769  15.005 -0.2320 -0.5919  0.1006
11057TIP3    H154586   0.426   0.794  15.087  0.6078 -2.8253  1.2786
11057TIP3    H254587   0.554   0.735  15.031  0.1473 -1.1337 -1.7226
11058TIP3   OH254588   3.640   1.916  15.580 -0.5363 -0.0739  0.0619
11058TIP3    H154589   3.734   1.931  15.573 -0.3365 -1.0754  0.4358
11058TIP3    H254590   3.604   1.957  15.501  0.1676  0.6406  0.1016
11059TIP3   OH254591   2.795   3.046   2.856  0.2571  0.1119 -0.2351
11059TIP3    H154592   2.871   3.100   2.878  1.7437 -1.5682 -0.9979
11059TIP3    H254593   2.798   3.039   2.760  0.0434 -1.2022 -0.1624
11060TIP3   OH254594   1.110   3.365   4.721 -0.4250  0.4307  0.1250
11060TIP3    H154595   1.166   3.347   4.645  0.7533  0.9320  0.8423
11060TIP3    H254596   1.167   3.350   4.796 -2.0429 -1.6762  1.0144
11061TIP3   OH254597   3.872   0.597  12.829  0.0428 -0.0878 -0.0512
11061TIP3    H154598   3.962   0.621  12.806 -0.6578  2.4178 -0.5681
11061TIP3    H254599   3.860   0.631  12.918 -0.5846  0.2405 -0.2552
11062TIP3   OH254600   0.799   0.981  17.101  0.4303  0.7131  0.5378
11062TIP3    H154601   0.799   0.893  17.139  1.9592  0.4182 -0.0764
11062TIP3    H254602   0.731   1.028  17.150  1.3003 -0.0686  2.6346
11063TIP3   OH254603   0.322   3.372  13.440 -0.1112  0.2809 -0.4560
11063TIP3    H154604   0.377   3.429  13.386 -0.2552  0.7366 -0.1285
11063TIP3    H254605   0.358   3.284  13.426 -0.1764  0.3787 -1.3297
11064TIP3   OH254606   0.681   1.708   1.429  0.0341  0.2280  0.4297
11064TIP3    H154607   0.671   1.709   1.333 -1.6084  0.6590  0.5749
11064TIP3    H254608   0.682   1.801   1.454  0.6702  0.1207  0.8183
11065TIP3   OH254609   1.072   5.815   5.908 -0.3552 -0.3184  0.2029
11065TIP3    H154610   1.028   5.884   5.859  1.0937  1.2161  0.9909
11065TIP3    H254611   1.039   5.734   5.868 -1.9099  0.7863 -0.9076
11066TIP3   OH254612   1.623   1.920   0.284  0.1734 -0.1618 -0.0095
11066TIP3    H154613   1.590   2.003   0.249 -1.9617 -1.4980 -1.3824
11066TIP3    H254614   1.594   1.919   0.376  0.2387  0.6063  0.0238
11067TIP3   OH254615   3.315   2.667  12.455  0.5300  0.1109 -0.1573
11067TIP3    H154616   3.286   2.649  12.544 -1.1314  1.5000 -0.3598
11067TIP3    H254617   3.410   2.663  12.459  0.5655  1.7635  2.0480
11068TIP3   OH254618   0.715   6.635   3.606 -0.1396 -0.4297  0.1006
11068TIP3    H154619   0.747   6.713   3.560  2.8053 -1.1667  0.6827
11068TIP3    H254620   0.680   6.670   3.689 -0.7697  0.4276 -0.5059
11069TIP3   OH254621   2.409   2.051   0.582 -0.0035  0.1881 -0.3242
11069TIP3    H154622   2.498   2.031   0.609  0.2841 -0.1472 -1.4711
11069TIP3    H254623   2.354   1.989   0.630  0.5169 -0.5882 -0.7163
11070TIP3   OH254624   2.526   2.891   1.003  0.2054 -0.0253 -0.4872
11070TIP3    H154625   2.433   2.908   1.019  0.1842 -0.3480 -0.2665
11070TIP3    H254626   2.561   2.976   0.976 -0.2578 -0.0145 -1.0633
11071TIP3   OH254627   3.393   5.405  11.913 -0.0829  0.4303 -0.2628
11071TIP3    H154628   3.478   5.435  11.879  0.2535  0.4715  0.6022
11071TIP3    H254629   3.347   5.486  11.935 -0.6558  0.4427 -1.4253
11072TIP3   OH254630   5.367   2.211   5.954 -0.1195  0.1776  0.0678
11072TIP3    H154631   5.306   2.220   6.028 -0.2798  2.3177 -0.2594
11072TIP3    H254632   5.319   2.248   5.879  0.7915 -0.0698 -0.6563
11073TIP3   OH254633   3.345   5.397   5.169  0.6422  0.2327 -0.0309
11073TIP3    H154634   3.394   5.364   5.094  1.5351  2.1535 -0.3629
11073TIP3    H254635   3.294   5.322   5.200  0.7342 -0.7795 -2.1616
11074TIP3   OH254636   3.265   1.668   0.604  0.1624  0.0464 -0.7851
11074TIP3    H154637   3.184   1.620   0.617 -0.3384  0.2203 -2.9175
11074TIP3    H254638   3.239   1.746   0.554  1.8865 -1.0292 -3.5784
11075TIP3   OH254639   5.857   4.437   3.611  0.3050  0.1028 -0.1987
11075TIP3    H154640   5.825   4.527   3.618  0.6100  0.2503 -0.6436
11075TIP3    H254641   5.948   4.441   3.639  0.1641 -0.1739  0.3138
11076TIP3   OH254642   0.744   5.870   0.672 -0.5349  0.8445 -0.5069
11076TIP3    H154643   0.839   5.875   0.667 -0.4798 -0.7134 -1.4611
11076TIP3    H254644   0.724   5.884   0.765  0.8062 -1.2578  0.1575
11077TIP3   OH254645   2.713   5.293   0.391  0.3889  0.0606 -0.2243
11077TIP3    H154646   2.724   5.330   0.304 -1.2559 -0.5228 -0.7195
11077TIP3    H254647   2.802   5.284   0.425  0.9802  1.7017 -1.2308
11078TIP3   OH254648   0.003   0.183  13.312  0.1430  0.4345  0.5843
11078TIP3    H154649   0.019   0.116  13.246 -0.3407  0.0035  0.8984
11078TIP3    H254650  -0.044   0.252  13.264  0.5244  0.5003  0.2948
11079TIP3   OH254651   0.909   2.005  12.776  0.0881 -0.3618 -0.2694
11079TIP3    H154652   0.861   2.081  12.744 -2.2366 -0.9954  1.4467
11079TIP3    H254653   0.968   1.982  12.705 -0.1309  2.1745 -1.3899
11080TIP3   OH254654   0.426   3.950  14.566  0.1245  0.2156 -0.3467
11080TIP3    H154655   0.389   3.873  14.609  0.2346  0.4638  0.2008
11080TIP3    H254656   0.459   3.917  14.482  3.7245 -1.2341  1.4147
11081TIP3   OH254657   0.145   3.398  11.432 -0.4108 -0.8352 -0.0724
11081TIP3    H154658   0.112   3.326  11.487 -1.9886  0.1682  0.3916
11081TIP3    H254659   0.074   3.463  11.434  0.0967 -0.1504 -2.1582
11082TIP3   OH254660   0.748   1.648  13.233 -0.1884 -0.2556 -0.2782
11082TIP3    H154661   0.820   1.612  13.284  0.9247  1.3912 -0.6272
11082TIP3    H254662   0.730   1.733  13.272 -1.8074 -0.5256 -0.3492
11083TIP3   OH254663   1.112   2.413  13.281  0.1127 -0.0237 -0.2236
11083TIP3    H154664   1.022   2.397  13.308 -0.0428 -0.6941 -1.0551
11083TIP3    H254665   1.164   2.398  13.359 -0.1914 -3.2059 -0.4745
11084TIP3   OH254666   0.502   5.021  13.039  0.0362  0.5715  0.1348
11084TIP3    H154667   0.569   5.050  13.101  1.5095 -2.3372  0.0781
11084TIP3    H254668   0.543   5.029  12.953 -0.2456  0.1813 -0.0385
11085TIP3   OH254669   5.044   3.122  12.465 -0.2228  0.3671  0.3625
11085TIP3    H154670   5.118   3.115  12.525 -0.4364  1.3723  0.7611
11085TIP3    H254671   4.983   3.181  12.509 -1.3249 -0.5371  0.0996
11086TIP3   OH254672   2.294   0.995  11.671  0.2923  0.1558 -0.1200
11086TIP3    H154673   2.337   1.048  11.604  0.7574 -1.5356 -1.2029
11086TIP3    H254674   2.207   0.977  11.634 -0.1980  0.8580  0.6419
11087TIP3   OH254675   0.116   0.226   0.971 -0.0685 -0.2316 -0.2480
11087TIP3    H154676   0.175   0.211   1.044  1.7033 -0.3358 -1.6220
11087TIP3    H254677   0.136   0.315   0.941 -0.9583 -0.0870 -0.4410
11088TIP3   OH254678   2.052   2.436  13.494 -0.0098  0.7141 -0.1801
11088TIP3    H154679   2.043   2.411  13.586 -0.4008  3.4963  0.6111
11088TIP3    H254680   2.145   2.455  13.483 -0.1410  1.4136 -0.0737
11089TIP3   OH254681   4.688   5.595   5.839 -0.3556 -0.0274  0.3735
11089TIP3    H154682   4.623   5.566   5.776 -1.3995  1.6497  0.6168
11089TIP3    H254683   4.638   5.637   5.909  0.8459 -0.8268  1.7870
11090TIP3   OH254684   1.374   0.795  15.829  0.1842  0.5786  0.1425
11090TIP3    H154685   1.315   0.835  15.893 -1.0876  0.8101 -1.1263
11090TIP3    H254686   1.446   0.760  15.882 -0.7211  0.9200  1.6724
11091TIP3   OH254687   4.502   3.460   0.540  0.6924 -0.4948  0.1286
11091TIP3    H154688   4.579   3.459   0.483  0.1116  0.2677 -0.6963
11091TIP3    H254689   4.537   3.444   0.628  1.8877  0.5845 -0.1171
11092TIP3   OH254690   3.516   4.306  16.497  0.0486  0.3121 -0.6094
11092TIP3    H154691   3.549   4.386  16.536  1.0720 -1.3758  2.2883
11092TIP3    H254692   3.592   4.264  16.458 -0.3378  0.3381 -1.4264
11093TIP3   OH254693   1.461   2.079   5.234 -0.4550  0.8203  0.1713
11093TIP3    H154694   1.461   2.067   5.329 -0.2739  2.4522  0.4194
11093TIP3    H254695   1.520   2.012   5.201  0.1244  0.7475  1.2979
11094TIP3   OH254696   0.879   3.197  12.236  0.3778  0.1213  0.2532
11094TIP3    H154697   0.949   3.206  12.171  0.7607 -0.9929  0.4928
11094TIP3    H254698   0.874   3.283  12.277  0.6606  0.6165 -0.7109
11095TIP3   OH254699   6.575   3.440  13.345  0.4111 -0.1059  0.0231
11095TIP3    H154700   6.561   3.407  13.256  0.3547  0.0787 -0.0364
11095TIP3    H254701   6.667   3.423  13.363  0.1071 -1.4243  0.4521
11096TIP3   OH254702   5.753   2.352   2.862  0.1818  0.3446  0.0308
11096TIP3    H154703   5.830   2.306   2.828  0.8066  0.6037  1.0569
11096TIP3    H254704   5.690   2.350   2.790  1.9258  2.0513 -1.6698
11097TIP3   OH254705   4.665   3.073  15.233  0.3178 -0.0643  0.5727
11097TIP3    H154706   4.699   3.068  15.144  0.8262 -0.3283  0.7808
11097TIP3    H254707   4.631   2.985  15.250  1.7230 -0.5040  1.2296
11098TIP3   OH254708   0.295   5.320  12.880 -0.0798 -0.0284 -0.2398
11098TIP3    H154709   0.332   5.281  12.959 -2.5525 -1.0352  0.4850
11098TIP3    H254710   0.346   5.281  12.809  1.8204  0.4764  0.7636
11099TIP3   OH254711   4.571   4.899  11.385 -0.0864  0.2140  0.5124
11099TIP3    H154712   4.556   4.806  11.364 -0.6351  0.4044  0.0415
11099TIP3    H254713   4.514   4.917  11.459  1.8103 -0.4428  2.2167
11100TIP3   OH254714   6.136   3.882  16.454 -0.6344  0.6715  0.1389
11100TIP3    H154715   6.137   3.793  16.418 -0.7794  1.2018 -1.2466
11100TIP3    H254716   6.045   3.899  16.475 -0.6428  0.5843  0.1733
11101TIP3   OH254717   2.682   5.619  16.498  0.0683 -0.3494 -0.3147
11101TIP3    H154718   2.760   5.598  16.548 -0.9472 -0.0361  1.5222
11101TIP3    H254719   2.657   5.537  16.455  0.8997 -0.6697 -0.1953
11102TIP3   OH254720   3.968   2.609  11.836  0.2708  0.3648  0.2028
11102TIP3    H154721   4.019   2.548  11.889 -1.0912 -2.1878 -1.2202
11102TIP3    H254722   4.027   2.631  11.763  1.2318  1.8822  1.3772
11103TIP3   OH254723   3.269   2.360   4.595 -0.4179 -0.0791  0.3341
11103TIP3    H154724   3.204   2.335   4.661  0.1203  1.1854  1.4009
11103TIP3    H254725   3.351   2.367   4.645  0.3333 -0.6329 -0.7871
11104TIP3   OH254726   3.660   1.954  15.183 -1.0646 -0.0434  0.2928
11104TIP3    H154727   3.734   1.952  15.244 -1.2801  1.1594  0.6111
11104TIP3    H254728   3.675   1.879  15.126  0.2512  0.0045  0.5343
11105TIP3   OH254729   3.301   1.275  13.050 -0.5416  0.0978  0.1460
11105TIP3    H154730   3.215   1.298  13.015 -0.4066  0.9792  0.3622
11105TIP3    H254731   3.362   1.327  12.997 -0.1012 -0.8339 -0.2873
11106TIP3   OH254732   2.399   1.966   0.293  0.3802 -0.3895  0.2716
11106TIP3    H154733   2.456   1.984   0.368  0.2796 -0.5578  0.3912
11106TIP3    H254734   2.448   1.903   0.241  1.3775  1.2982 -0.9173
11107TIP3   OH254735   6.124   4.354   5.753  0.1190  0.1651 -0.5492
11107TIP3    H154736   6.131   4.414   5.828  1.4878  0.4152 -0.8527
11107TIP3    H254737   6.030   4.336   5.746  0.0375 -0.7673  1.9103
11108TIP3   OH254738   0.389   4.522   1.176 -0.1035  0.0089 -0.1419
11108TIP3    H154739   0.384   4.485   1.264  2.2888 -2.8679 -1.0502
11108TIP3    H254740   0.321   4.590   1.174 -0.7789 -0.3763  3.6057
11109TIP3   OH254741   3.291   2.175   0.061  0.1904  0.6475 -0.6592
11109TIP3    H154742   3.203   2.212   0.057 -0.1088 -0.1278 -1.7794
11109TIP3    H254743   3.329   2.211   0.141 -1.4322  0.3429  0.2958
11110TIP3   OH254744   3.626   3.971   4.102  0.3969  0.1650  0.0295
11110TIP3    H154745   3.563   3.961   4.173 -0.3750 -1.0105 -0.7716
11110TIP3    H254746   3.707   3.934   4.136 -0.4972 -2.3305 -0.3313
11111TIP3   OH254747   2.748   4.524   0.753 -0.1048  0.2503 -0.0894
11111TIP3    H154748   2.800   4.446   0.736 -0.6223 -0.2706  0.6212
11111TIP3    H254749   2.725   4.557   0.666 -0.2305 -0.6347 -0.4080
11112TIP3   OH254750   6.212   0.707   2.268  0.6428  0.1768  1.0620
11112TIP3    H154751   6.195   0.707   2.174  0.9644  1.4739  0.9773
11112TIP3    H254752   6.227   0.616   2.291  0.3443 -0.1759 -0.1021
11113TIP3   OH254753   3.469   0.445  15.354  0.2771 -0.5866  0.1520
11113TIP3    H154754   3.464   0.496  15.272 -1.0102 -0.3041  0.3854
11113TIP3    H254755   3.397   0.382  15.347  1.0218 -1.4876  0.4732
11114TIP3   OH254756   0.559   5.806   4.024  0.1823  0.0771  0.1675
11114TIP3    H154757   0.637   5.808   4.079  0.2317  0.7204  0.0851
11114TIP3    H254758   0.580   5.744   3.954  1.4545  1.7979 -1.0539
11115TIP3   OH254759   3.052   3.711   3.547 -0.0569 -0.1349  0.3993
11115TIP3    H154760   3.110   3.775   3.587  0.0589 -0.5582  0.9155
11115TIP3    H254761   3.015   3.756   3.471  0.6690  0.2543  0.2751
11116TIP3   OH254762   6.669   4.727  16.588 -0.1726  0.9010  0.2525
11116TIP3    H154763   6.681   4.671  16.665  0.7365  0.8832  0.1089
11116TIP3    H254764   6.605   4.680  16.534 -0.1626  0.4854  0.5960
11117TIP3   OH254765   0.226   2.110   2.300  0.6735 -0.0294  0.4083
11117TIP3    H154766   0.222   2.195   2.344 -0.6756  0.2287 -0.1598
11117TIP3    H254767   0.272   2.127   2.219  0.5873  0.1184  0.3900
11118TIP3   OH254768   6.381   0.753   4.024 -0.0620  0.4170 -0.2330
11118TIP3    H154769   6.353   0.834   3.980 -1.2919  0.2554  0.2188
11118TIP3    H254770   6.475   0.766   4.040 -0.1176  1.5080 -0.6905
11119TIP3   OH254771   2.383   2.279  16.419  0.5542 -0.0364 -0.5498
11119TIP3    H154772   2.296   2.308  16.392  0.3199 -1.2936 -1.2417
11119TIP3    H254773   2.366   2.212  16.485  0.8944 -1.5778 -1.9611
11120TIP3   OH254774   4.650   0.063   2.869  0.6683 -0.1008 -0.2400
11120TIP3    H154775   4.573   0.116   2.888  0.3376 -0.2725 -1.0551
11120TIP3    H254776   4.619  -0.027   2.872  0.9956 -0.2039  0.1119
11121TIP3   OH254777   4.907   1.112   6.500  0.1856 -0.0283  0.4296
11121TIP3    H154778   4.997   1.080   6.507  0.4756  0.2043 -1.6351
11121TIP3    H254779   4.916   1.207   6.485 -0.5146  0.3932  2.4019
11122TIP3   OH254780   5.109   5.440  13.920 -0.4157 -0.6049  0.0853
11122TIP3    H154781   5.015   5.433  13.903 -0.6134  0.4512  0.6575
11122TIP3    H254782   5.150   5.396  13.845 -1.3293  0.5648 -1.1531
11123TIP3   OH254783   5.412   2.620   1.616  0.3976  0.1343 -0.4014
11123TIP3    H154784   5.431   2.550   1.554  0.1758  0.2929 -0.6465
11123TIP3    H254785   5.365   2.685   1.566 -1.6383 -0.6445  0.4022
11124TIP3   OH254786   3.661   0.264  13.315  0.4603  0.3058  0.4874
11124TIP3    H154787   3.687   0.262  13.222  0.4027  0.7747  0.4584
11124TIP3    H254788   3.724   0.324  13.356 -0.0673  0.8050  0.5772
11125TIP3   OH254789   6.293   4.525  15.819 -0.7144  0.7358  0.6337
11125TIP3    H154790   6.256   4.452  15.868 -1.5508  0.4697 -0.3709
11125TIP3    H254791   6.366   4.487  15.770  0.1577  1.0132  1.6719
11126TIP3   OH254792   0.078   5.509  16.757 -0.4207 -0.3131  0.3595
11126TIP3    H154793   0.076   5.418  16.728 -0.8233 -0.5172  0.9880
11126TIP3    H254794   0.018   5.554  16.698  2.0312  0.2001 -1.9252
11127TIP3   OH254795   4.758   0.914  11.248 -0.5155  0.6973 -0.1490
11127TIP3    H154796   4.766   0.869  11.164 -3.8475 -1.7485  0.6266
11127TIP3    H254797   4.785   0.849  11.313 -0.0804  1.7923  0.8065
11128TIP3   OH254798   6.619   2.448   4.534 -0.1599  0.3796  0.5357
11128TIP3    H154799   6.658   2.372   4.577 -0.3627  0.4094  0.7747
11128TIP3    H254800   6.612   2.513   4.604 -2.2266 -0.1957  0.9261
11129TIP3   OH254801   3.174   5.766  17.289  0.3679 -0.0190  0.2486
11129TIP3    H154802   3.183   5.833  17.357  2.3159 -1.1250  1.1805
11129TIP3    H254803   3.094   5.719  17.312  0.1617  0.6075  0.8542
11130TIP3   OH254804   3.651   1.045  12.547 -0.1756 -0.1448  0.4534
11130TIP3    H154805   3.591   0.971  12.556 -0.0722 -0.0679  2.1158
11130TIP3    H254806   3.595   1.122  12.555  0.0950 -0.0715  2.1289
11131TIP3   OH254807   0.053   6.715  11.447 -0.5967  0.0480 -0.2177
11131TIP3    H154808   0.127   6.773  11.464  0.6508 -1.6240  0.2606
11131TIP3    H254809   0.077   6.632  11.487 -3.9795  0.1903  2.5431
11132TIP3   OH254810   0.494   5.236   6.522  0.4310  0.1953 -0.1396
11132TIP3    H154811   0.459   5.186   6.448 -0.0988  0.5986 -0.1702
11132TIP3    H254812   0.426   5.231   6.588 -0.5855  2.5819 -0.8868
11133TIP3   OH254813   6.265   1.172   4.553  0.1503 -0.2066 -0.0634
11133TIP3    H154814   6.309   1.090   4.576 -1.1845 -0.8503  0.3219
11133TIP3    H254815   6.233   1.205   4.637 -0.4682  0.0074 -0.3777
11134TIP3   OH254816   6.187   2.922  10.399 -0.0342  0.7714 -1.2445
11134TIP3    H154817   6.129   2.915  10.324 -2.5598  0.4373  0.6319
11134TIP3    H254818   6.136   2.967  10.466  1.8363  0.3846  0.5627
11135TIP3   OH254819   0.801   0.386   0.558 -0.4625 -0.5904 -0.1341
11135TIP3    H154820   0.875   0.338   0.520 -1.9090 -0.2936 -3.8085
11135TIP3    H254821   0.726   0.328   0.544 -1.4772  0.6398  0.0319
11136TIP3   OH254822   1.842   1.561   3.420  0.1778  0.5071  0.4060
11136TIP3    H154823   1.803   1.623   3.481 -0.6069 -1.2168  1.7181
11136TIP3    H254824   1.937   1.575   3.429  0.0387  0.9307  1.2971
11137TIP3   OH254825   2.687   6.619   3.981 -0.6275  0.4231  0.0981
11137TIP3    H154826   2.594   6.606   3.960 -0.7408  1.2794  0.0506
11137TIP3    H254827   2.696   6.583   4.069 -0.9296  0.0509 -0.0161
11138TIP3   OH254828   5.715   6.102   2.316  0.0764 -0.2831 -0.8445
11138TIP3    H154829   5.731   6.097   2.411  0.2735  0.8094 -0.8057
11138TIP3    H254830   5.752   6.187   2.290 -0.4847 -0.3176 -1.8002
11139TIP3   OH254831   0.161   2.486   5.214 -0.4318 -0.1098  0.4920
11139TIP3    H154832   0.240   2.434   5.198 -0.0974  0.6714 -0.5309
11139TIP3    H254833   0.147   2.534   5.132 -2.4417 -0.8347  0.3502
11140TIP3   OH254834   4.342   0.798  16.872 -0.1359 -0.3036  0.1163
11140TIP3    H154835   4.294   0.793  16.954 -0.9942  0.3340 -0.3286
11140TIP3    H254836   4.281   0.839  16.811  0.2554 -1.3511 -1.0189
11141TIP3   OH254837   0.387   6.702   5.650  0.8034  0.1477 -0.0388
11141TIP3    H154838   0.385   6.790   5.612  2.4358  0.2942  0.1214
11141TIP3    H254839   0.350   6.714   5.738 -0.3861  0.3529 -0.5448
11142TIP3   OH254840   4.645   2.121   3.799 -0.4758  0.2737  0.9168
11142TIP3    H154841   4.736   2.150   3.800 -1.1510  2.5578  1.0250
11142TIP3    H254842   4.645   2.042   3.745  1.4558  0.5860  0.4133
11143TIP3   OH254843   0.830   6.129   5.137  0.4003  0.0110  0.2057
11143TIP3    H154844   0.857   6.077   5.213  1.1862 -0.6988 -0.5491
11143TIP3    H254845   0.771   6.072   5.088  0.4984  0.1848 -0.1175
11144TIP3   OH254846   3.327   4.789   5.687 -0.1130 -0.3856 -0.2532
11144TIP3    H154847   3.394   4.798   5.755 -0.0611 -1.0367 -0.2135
11144TIP3    H254848   3.251   4.836   5.722 -0.0259 -0.5529  0.1737
11145TIP3   OH254849   4.947   3.898   5.978  0.4572  0.1808 -0.2060
11145TIP3    H154850   4.948   3.813   6.023 -1.2735 -0.8133 -1.8861
11145TIP3    H254851   5.025   3.895   5.922  1.1209  0.2823  0.6851
11146TIP3   OH254852   6.739   6.212  12.003 -0.1302 -0.6418  0.4804
11146TIP3    H154853   6.664   6.264  12.031 -0.4878 -0.9922  0.1831
11146TIP3    H254854   6.737   6.135  12.060  0.4039 -0.3332  0.9270
11147TIP3   OH254855   5.432   0.134   2.201 -0.3695  0.0894 -0.2148
11147TIP3    H154856   5.380   0.095   2.271 -1.7997 -0.3051 -1.4610
11147TIP3    H254857   5.481   0.061   2.163 -0.5389  0.0842 -0.4235
11148TIP3   OH254858   1.633   5.582  15.938 -0.3333  0.2693 -0.4714
11148TIP3    H154859   1.708   5.522  15.940 -0.7897 -0.2986 -0.1217
11148TIP3    H254860   1.598   5.579  16.027 -0.6009  0.7590 -0.5587
11149TIP3   OH254861   2.890   1.899  13.834 -0.4598  0.2778 -0.2296
11149TIP3    H154862   2.957   1.867  13.774 -0.5788  0.3467 -0.4011
11149TIP3    H254863   2.814   1.917  13.778 -0.0689  1.8325 -0.3063
11150TIP3   OH254864   5.948   3.188   3.802  0.4815  0.5612  0.3568
11150TIP3    H154865   5.936   3.098   3.771  4.4539  0.5415 -1.7728
11150TIP3    H254866   5.919   3.243   3.730  1.7688  0.8004 -0.0059
11151TIP3   OH254867   3.995   4.060  13.367  0.3768 -0.0227 -0.2002
11151TIP3    H154868   3.948   4.003  13.305  0.1848  1.8370 -1.8437
11151TIP3    H254869   3.960   4.147  13.351  1.9776  0.8859  0.9533
11152TIP3   OH254870   5.262   0.775  13.932 -0.6546  0.3304 -0.5548
11152TIP3    H154871   5.347   0.741  13.906 -1.0809 -1.1663 -0.0740
11152TIP3    H254872   5.271   0.870  13.926  1.0730  0.2000 -0.4238
11153TIP3   OH254873   0.254   2.079   0.240  0.4140  0.5731  0.4297
11153TIP3    H154874   0.307   2.015   0.193  0.0843 -0.6281  1.6374
11153TIP3    H254875   0.317   2.130   0.291  0.7591  1.7887 -1.1271
11154TIP3   OH254876   6.387   5.165   4.570  0.4766 -0.1386  0.4473
11154TIP3    H154877   6.323   5.121   4.514  0.3816  0.7573 -0.1640
11154TIP3    H254878   6.449   5.096   4.594  1.1697 -0.3377 -1.6691
11155TIP3   OH254879   2.156   3.592  13.165  0.3138 -0.0240 -0.2450
11155TIP3    H154880   2.105   3.662  13.205  1.7023  0.3797  0.8944
11155TIP3    H254881   2.247   3.619  13.177  0.8416 -1.3611 -1.0352
11156TIP3   OH254882   2.112   2.590  16.939  0.0693 -0.1313  0.0255
11156TIP3    H154883   2.134   2.500  16.964  0.1669 -0.3156 -0.6857
11156TIP3    H254884   2.062   2.580  16.857 -0.8595  0.4035  0.5134
11157TIP3   OH254885   6.687   5.625  14.649  0.2100  0.3076  0.2273
11157TIP3    H154886   6.709   5.603  14.558 -2.7176 -2.0987 -0.0579
11157TIP3    H254887   6.629   5.701  14.641 -2.8197 -1.8814 -0.4105
11158TIP3   OH254888   6.151   2.366  16.063 -0.3276 -0.2919 -0.1277
11158TIP3    H154889   6.174   2.432  15.998 -0.8681 -1.3440 -1.4301
11158TIP3    H254890   6.225   2.305  16.063 -0.3419 -0.3087  0.2199
11159TIP3   OH254891   4.457   3.392  15.713 -0.0138  0.0441 -0.0500
11159TIP3    H154892   4.421   3.375  15.626 -0.3324  0.6389 -0.0387
11159TIP3    H254893   4.552   3.392  15.699 -0.0617  0.1662 -0.4083
11160TIP3   OH254894   2.804   5.845   4.478 -0.0010 -0.3009  0.2258
11160TIP3    H154895   2.778   5.875   4.566  0.7336 -1.7276  0.9595
11160TIP3    H254896   2.882   5.896   4.458  0.5245 -0.8035  0.9343
11161TIP3   OH254897   2.728   2.369   1.874 -0.2864 -0.0106  0.2148
11161TIP3    H154898   2.673   2.295   1.901 -1.2055  1.4420  2.6631
11161TIP3    H254899   2.673   2.419   1.813 -0.5576 -0.1155  0.3719
11162TIP3   OH254900   6.532   0.806   3.087 -0.0035  0.0575 -0.2199
11162TIP3    H154901   6.537   0.794   3.181 -0.9756  0.3648 -0.1211
11162TIP3    H254902   6.496   0.723   3.054 -1.5196  0.6403 -0.1021
11163TIP3   OH254903   4.305   4.535   3.504 -0.2249  0.2699 -0.3513
11163TIP3    H154904   4.297   4.531   3.599 -2.6357  1.6975 -0.4287
11163TIP3    H254905   4.293   4.444   3.476 -0.1395 -0.0673  0.6517
11164TIP3   OH254906   0.161   0.828   2.630  0.1097  0.3383  0.1497
11164TIP3    H154907   0.129   0.787   2.550 -0.2116 -0.7865  0.8381
11164TIP3    H254908   0.244   0.868   2.604  0.6229 -1.0577 -0.4681
11165TIP3   OH254909   3.681   0.731  15.054 -0.0439 -0.1779  0.2283
11165TIP3    H154910   3.753   0.713  15.115 -0.5924 -0.1306  0.9103
11165TIP3    H254911   3.614   0.666  15.077  0.4595 -1.4431 -1.6124
11166TIP3   OH254912   1.164   5.204  12.928  0.0431 -0.1206 -0.2175
11166TIP3    H154913   1.199   5.290  12.952  2.3175 -0.5474 -1.7239
11166TIP3    H254914   1.188   5.148  13.002 -1.5889  0.5045  0.8442
11167TIP3   OH254915   4.621   0.093   3.407 -0.6439 -0.3662 -0.0893
11167TIP3    H154916   4.695   0.042   3.374 -1.6822 -1.0396 -1.4894
11167TIP3    H254917   4.655   0.136   3.485  1.5728  0.3027 -1.3348
11168TIP3   OH254918   1.944   1.134  16.173  0.3879 -0.0328  0.0319
11168TIP3    H154919   2.017   1.072  16.180  1.5130  0.9951 -2.0028
11168TIP3    H254920   1.975   1.214  16.215 -0.4161 -0.2311  1.0717
11169TIP3   OH254921   0.678   3.575  13.224 -0.5584 -0.2720 -0.2865
11169TIP3    H154922   0.738   3.644  13.195  0.3964 -1.5075 -1.3703
11169TIP3    H254923   0.633   3.612  13.299  0.8254  1.0772 -0.0851
11170TIP3   OH254924   2.213   6.527   1.806  0.4130  0.0055  0.4775
11170TIP3    H154925   2.145   6.563   1.863  0.5099 -1.0372  1.2691
11170TIP3    H254926   2.295   6.563   1.840  0.2050  2.9861 -1.7463
11171TIP3   OH254927   6.678   2.420  12.910 -0.1553 -0.0801  0.0013
11171TIP3    H154928   6.611   2.460  12.965 -0.6009  0.5713 -0.9833
11171TIP3    H254929   6.751   2.404  12.969 -0.9604 -0.2655  0.9768
11172TIP3   OH254930   4.980   2.006  16.435  0.0338  0.2877 -0.3929
11172TIP3    H154931   4.945   1.927  16.476  0.7234  0.2575  0.1476
11172TIP3    H254932   4.990   1.983  16.343  0.6705 -0.4147 -0.1583
11173TIP3   OH254933   1.640   6.457   1.561  0.3295 -0.4743  0.0521
11173TIP3    H154934   1.631   6.530   1.500  0.4282  0.4164  1.0628
11173TIP3    H254935   1.551   6.439   1.590  0.4531  0.4220  1.0911
11174TIP3   OH254936   0.717   5.869   0.957 -0.0335 -0.0291 -0.0194
11174TIP3    H154937   0.769   5.913   1.024 -0.2737 -0.1501  0.2507
11174TIP3    H254938   0.761   5.785   0.944 -0.8315 -0.6625  1.1047
11175TIP3   OH254939   3.910   5.193  14.592  0.5364 -0.2408  0.3913
11175TIP3    H154940   3.897   5.257  14.522 -2.9920  0.5912  1.6395
11175TIP3    H254941   3.944   5.115  14.547 -0.4424  0.6459 -2.0587
11176TIP3   OH254942   6.496   3.954  16.961 -0.1682 -0.2375  0.4550
11176TIP3    H154943   6.576   4.004  16.976 -1.5862  1.8962  1.6064
11176TIP3    H254944   6.512   3.870  17.003  0.5667  1.1178  3.1456
11177TIP3   OH254945   6.665   3.556   1.496  0.1824 -0.2583 -0.2227
11177TIP3    H154946   6.693   3.480   1.445  1.1385  1.3632 -2.2703
11177TIP3    H254947   6.718   3.628   1.461  0.5547  1.0723  2.8024
11178TIP3   OH254948   0.865   5.854  16.345  0.0222  0.0938  0.2639
11178TIP3    H154949   0.850   5.760  16.357  0.1414  0.1374  0.7653
11178TIP3    H254950   0.785   5.895  16.376 -0.8923  0.0650 -1.9128
11179TIP3   OH254951   6.490   6.299  16.881 -0.2976 -0.2481  0.3638
11179TIP3    H154952   6.551   6.249  16.935  0.5896 -0.7307 -1.0223
11179TIP3    H254953   6.507   6.391  16.905  0.3238 -0.4305  0.6504
11180TIP3   OH254954   0.200   4.198   0.302  0.4618 -0.1889 -0.1466
11180TIP3    H154955   0.114   4.239   0.302 -0.0095 -1.0098 -2.6068
11180TIP3    H254956   0.244   4.232   0.381 -1.3694  1.7438  0.1037
11181TIP3   OH254957   2.069   5.244   5.412 -0.0136  0.0763 -0.3043
11181TIP3    H154958   1.979   5.227   5.385 -0.0434  0.1092 -0.2256
11181TIP3    H254959   2.121   5.176   5.370 -0.2114 -0.5997  0.5240
11182TIP3   OH254960   4.223   5.745   0.077 -0.4288  0.2434 -0.2559
11182TIP3    H154961   4.212   5.650   0.071 -0.6121  0.2067  0.5193
11182TIP3    H254962   4.134   5.778   0.088 -0.2555  0.3841  0.8419
11183TIP3   OH254963   4.618   6.470  15.306  0.2075 -0.1354 -0.4304
11183TIP3    H154964   4.591   6.468  15.214 -1.9476 -0.5424  0.1419
11183TIP3    H254965   4.598   6.382  15.338  0.4468  0.1585  0.5473
11184TIP3   OH254966   4.154   4.476  16.637 -0.2850 -0.0490 -0.7172
11184TIP3    H154967   4.211   4.522  16.698  0.7146 -0.7737 -1.0748
11184TIP3    H254968   4.135   4.392  16.680  0.6137 -0.6621 -1.4721
11185TIP3   OH254969   4.453   4.849  10.338  0.5115  0.4040  0.5457
11185TIP3    H154970   4.411   4.896  10.267  1.1305  0.4772  0.2197
11185TIP3    H254971   4.399   4.868  10.415 -2.0358 -2.2311 -0.4202
11186TIP3   OH254972   6.576   2.223   5.568 -0.2692  0.1296  0.1750
11186TIP3    H154973   6.618   2.303   5.535 -0.3222 -0.7298 -2.0944
11186TIP3    H254974   6.492   2.220   5.524 -0.1401 -1.3371 -0.0083
11187TIP3   OH254975   2.514   2.290   3.224 -0.5938 -0.0043  0.4381
11187TIP3    H154976   2.518   2.208   3.274  0.6913 -0.1465  0.1414
11187TIP3    H254977   2.511   2.359   3.290 -3.4139 -0.2739  0.7339
11188TIP3   OH254978   0.067   2.280   3.177  0.1821 -0.1347 -0.4091
11188TIP3    H154979   0.115   2.242   3.104  0.7488 -0.2859  0.0390
11188TIP3    H254980   0.049   2.370   3.150  1.6413  0.2577 -0.1533
11189TIP3   OH254981   3.648   3.906  15.404 -0.2712  0.6107  0.0307
11189TIP3    H154982   3.690   3.838  15.352 -0.2211  1.0320 -0.4869
11189TIP3    H254983   3.688   3.988  15.374 -0.5519  0.8986  0.4265
11190TIP3   OH254984   5.461   5.381   1.713 -0.1826 -0.2733 -0.4101
11190TIP3    H154985   5.401   5.333   1.770  0.9677 -0.3327  0.8017
11190TIP3    H254986   5.548   5.361   1.747  0.4417  1.1421 -1.0699
11191TIP3   OH254987   2.941   4.182   5.210  0.3493  0.0901 -0.0151
11191TIP3    H154988   2.915   4.167   5.119  0.1438  0.5166 -0.0313
11191TIP3    H254989   2.973   4.097   5.240 -0.3540 -0.2635 -0.2352
11192TIP3   OH254990   1.701   1.077   1.284  0.2369 -0.0449  0.0953
11192TIP3    H154991   1.676   1.091   1.193 -1.3320 -1.6828  0.2208
11192TIP3    H254992   1.642   1.133   1.334  0.7951  0.5088  0.1483
11193TIP3   OH254993   3.219   4.454   2.379  0.4383 -0.2712  0.1284
11193TIP3    H154994   3.295   4.446   2.320  1.1365  0.2069  0.9338
11193TIP3    H254995   3.145   4.471   2.321  1.4303  2.2857 -0.5266
11194TIP3   OH254996   4.103   6.545  13.118  0.0087  0.2621  0.2373
11194TIP3    H154997   4.087   6.597  13.039 -0.8030  0.5932  0.6104
11194TIP3    H254998   4.184   6.580  13.154  0.1421  0.4106 -0.2032
11195TIP3   OH254999   5.900   2.608   4.386 -0.0636  0.9035  0.1090
11195TIP3    H155000   5.870   2.520   4.410 -0.5548  1.4384  1.5476
11195TIP3    H255001   5.978   2.622   4.440 -1.1207  2.1010  1.3760
11196TIP3   OH255002   4.886   5.233   5.900 -0.0262  0.6600  0.0927
11196TIP3    H155003   4.792   5.234   5.921  0.0769 -0.2988  0.6158
11196TIP3    H255004   4.930   5.236   5.984  0.4127  0.2620 -0.1201
11197TIP3   OH255005   2.691   1.785  14.712  0.3687  0.2317  0.5719
11197TIP3    H155006   2.690   1.879  14.728  1.2863  0.5650 -1.1682
11197TIP3    H255007   2.781   1.765  14.688 -0.1860 -0.7688 -0.8128
11198TIP3   OH255008   2.566   4.146   3.266 -0.0958 -0.2331  0.3805
11198TIP3    H155009   2.476   4.152   3.299 -0.4915 -2.9249 -0.0006
11198TIP3    H255010   2.620   4.155   3.344 -0.7092  0.5781  0.7327
11199TIP3   OH255011   1.870   3.937   6.118  0.2146 -0.0809  0.4897
11199TIP3    H155012   1.817   3.991   6.177  0.3392  1.3790 -0.6716
11199TIP3    H255013   1.925   3.884   6.176 -0.4686  0.4818  1.6826
11200TIP3   OH255014   4.679   5.317  12.340 -0.3940 -0.2230  0.4570
11200TIP3    H155015   4.729   5.336  12.261 -1.7921 -1.0431 -0.6665
11200TIP3    H255016   4.742   5.273  12.398  0.1613 -1.3486 -0.9549
11201TIP3   OH255017   1.083   3.071  13.423  0.2309  0.1552  0.0355
11201TIP3    H155018   1.046   2.992  13.383 -1.2630  1.2319 -0.7756
11201TIP3    H255019   1.082   3.052  13.517  0.8410 -1.1702 -0.1936
11202TIP3   OH255020   1.674   1.738   5.043  0.0833  0.2463  0.3233
11202TIP3    H155021   1.580   1.736   5.028 -0.1430 -0.0460  1.6771
11202TIP3    H255022   1.684   1.766   5.134  1.2631 -0.7192  0.5167
11203TIP3   OH255023   3.969   3.265   5.228  0.2130  0.2162  0.2286
11203TIP3    H155024   3.913   3.278   5.305  1.9469  1.4349  1.3477
11203TIP3    H255025   4.006   3.178   5.239  0.2744  0.2959  0.6464
11204TIP3   OH255026   2.039   6.679  16.340 -0.4626  0.0424 -0.1165
11204TIP3    H155027   2.060   6.637  16.424  0.1728 -0.6379 -0.5946
11204TIP3    H255028   2.113   6.736  16.323 -0.5110  0.0540 -0.2888
11205TIP3   OH255029   6.167   3.555   3.191  0.1801 -0.0579  0.0764
11205TIP3    H155030   6.093   3.530   3.136  0.3861 -0.6962  0.0869
11205TIP3    H255031   6.133   3.626   3.246 -0.1705  0.2357 -0.5199
11206TIP3   OH255032   1.990   1.298   3.710 -0.2196 -0.1012 -0.4169
11206TIP3    H155033   2.009   1.213   3.750 -0.4284  0.6354  1.3735
11206TIP3    H255034   2.072   1.325   3.668  0.2997 -0.5266  0.3060
11207TIP3   OH255035   1.961   3.470   1.230  0.3266 -0.5813  0.1257
11207TIP3    H155036   1.979   3.546   1.284  0.0300 -0.1561 -0.3596
11207TIP3    H255037   1.966   3.396   1.290 -0.2207 -0.0999  0.7790
11208TIP3   OH255038   2.840   1.616   5.256 -0.1768  0.4513 -0.5413
11208TIP3    H155039   2.882   1.559   5.320  1.1472  3.2565  1.2496
11208TIP3    H255040   2.882   1.701   5.267 -3.4750  2.3992 -1.5669
11209TIP3   OH255041   6.399   4.814  12.425 -0.1684  0.2706  0.0502
11209TIP3    H155042   6.457   4.850  12.491  1.6160 -0.0426 -1.2697
11209TIP3    H255043   6.455   4.799  12.349 -1.1777 -3.3530 -0.1894
11210TIP3   OH255044   6.657   1.627  13.975  0.5774 -0.2574 -0.0716
11210TIP3    H155045   6.576   1.619  13.926 -0.6519  1.3996  1.5530
11210TIP3    H255046   6.691   1.714  13.951 -0.5361  1.0108  2.5120
11211TIP3   OH255047   4.950   0.669  16.029 -0.0760 -0.0266 -0.2993
11211TIP3    H155048   5.019   0.684  16.093 -0.5631 -0.5422  0.3604
11211TIP3    H255049   4.974   0.724  15.954 -0.4256  1.9956  1.0056
11212TIP3   OH255050   2.895   5.680  16.688 -0.3612 -0.3091 -0.6860
11212TIP3    H155051   2.842   5.760  16.682  1.3648  0.9994  0.7193
11212TIP3    H255052   2.982   5.710  16.711  0.2958 -2.6443  0.1388
11213TIP3   OH255053   5.594   2.953   0.054  0.1018 -0.3922 -0.0067
11213TIP3    H155054   5.613   2.861   0.070  2.1686  0.3462  2.3656
11213TIP3    H255055   5.600   2.994   0.140 -1.1967  1.9233 -0.9265
11214TIP3   OH255056   1.870   2.809   4.261  0.4441  0.1776  0.3092
11214TIP3    H155057   1.787   2.763   4.265 -0.5096  1.8907  1.2158
11214TIP3    H255058   1.860   2.884   4.320  2.8082  0.1658  0.8604
11215TIP3   OH255059   0.094   6.488  15.989  0.1940 -0.4125 -0.5213
11215TIP3    H155060   0.028   6.517  15.926 -0.5245  2.1963  1.2944
11215TIP3    H255061   0.043   6.450  16.061  0.3823  2.8303  1.5160
11216TIP3   OH255062   0.895   0.098  13.602  0.2492 -0.3399  0.4864
11216TIP3    H155063   0.865   0.160  13.535  1.0085 -0.7362 -0.2355
11216TIP3    H255064   0.884   0.012  13.562  2.6294 -0.4892  0.0493
11217TIP3   OH255065   5.732   5.856  12.186  0.0645  0.3288 -0.8099
11217TIP3    H155066   5.808   5.881  12.238  0.1189  0.9248 -1.1754
11217TIP3    H255067   5.672   5.930  12.194 -0.7013 -0.3311 -0.1226
11218TIP3   OH255068   5.225   1.406  14.617 -0.1760 -0.0259  0.1670
11218TIP3    H155069   5.202   1.378  14.706  0.5372 -0.2002  0.3026
11218TIP3    H255070   5.196   1.334  14.561  0.1002 -0.2756  0.3416
11219TIP3   OH255071   6.340   0.467   3.216  0.5744 -0.0666 -0.0207
11219TIP3    H155072   6.414   0.471   3.155 -0.4710  2.8171 -1.2353
11219TIP3    H255073   6.379   0.439   3.298  2.7368 -0.1688 -1.0082
11220TIP3   OH255074   4.056   2.480   5.812  0.0346 -0.0288 -0.9868
11220TIP3    H155075   4.039   2.386   5.813 -1.2643  0.1834 -1.2851
11220TIP3    H255076   4.144   2.489   5.849 -0.2284 -1.2745  0.0014
11221TIP3   OH255077   0.122   1.092   4.565 -0.3666 -0.0537 -0.4821
11221TIP3    H155078   0.066   1.088   4.488 -0.3459 -0.6958 -0.4701
11221TIP3    H255079   0.197   1.036   4.542  0.6027  1.3174 -0.7624
11222TIP3   OH255080   1.646   2.478   0.394 -0.2121  0.3406  0.2644
11222TIP3    H155081   1.702   2.549   0.426 -0.2549  0.6623 -0.3545
11222TIP3    H255082   1.643   2.415   0.466  2.3629 -0.5363 -0.2986
11223TIP3   OH255083   0.329   2.338   3.297 -0.1228  0.0254 -0.5501
11223TIP3    H155084   0.246   2.365   3.260  1.0809  0.0569 -3.4553
11223TIP3    H255085   0.306   2.267   3.358 -2.2206 -0.3601 -1.6939
11224TIP3   OH255086   3.324   2.011   1.294  0.8000  0.3207 -0.0135
11224TIP3    H155087   3.349   2.094   1.336  0.1606 -0.2040  1.4673
11224TIP3    H255088   3.269   2.037   1.220  0.4554  1.2064  0.5408
11225TIP3   OH255089   5.917   4.661   1.905  0.6520  0.1282 -0.4419
11225TIP3    H155090   5.906   4.720   1.830 -0.4321 -0.5022 -0.7963
11225TIP3    H255091   5.835   4.612   1.909  1.0464 -0.4687  0.6264
11226TIP3   OH255092   0.739   1.459   0.337 -0.1706  0.2981 -0.0736
11226TIP3    H155093   0.716   1.465   0.244  0.2163  0.8660 -0.1361
11226TIP3    H255094   0.722   1.368   0.360  1.2324 -0.2575 -1.1005
11227TIP3   OH255095   5.623   6.724   4.272 -0.1903  0.2585  0.5485
11227TIP3    H155096   5.574   6.770   4.204  1.1273  0.0871 -0.5576
11227TIP3    H255097   5.640   6.638   4.234  2.2068  0.8021  0.2628
11228TIP3   OH255098   6.657   4.944  16.984 -0.6293 -0.3847  0.3331
11228TIP3    H155099   6.572   4.899  16.984 -0.4901 -0.6601  0.6595
11228TIP3    H255100   6.713   4.888  17.039 -0.1558 -0.3595 -0.1117
11229TIP3   OH255101   4.627   4.417  12.024  0.5364  0.3867  0.2561
11229TIP3    H155102   4.707   4.469  12.016  0.1542  0.7690 -1.6139
11229TIP3    H255103   4.566   4.458  11.962  0.2668 -2.3215 -1.4314
11230TIP3   OH255104   3.070   0.253  14.770 -0.1073 -0.2590 -0.3561
11230TIP3    H155105   3.060   0.192  14.697 -2.3025 -0.5770  0.1405
11230TIP3    H255106   3.131   0.319  14.738  1.4051 -2.0483 -1.3270
11231TIP3   OH255107   1.078   2.283   4.733  0.3142  0.2748 -0.0778
11231TIP3    H155108   0.997   2.292   4.783  0.6997  2.7763  0.2617
11231TIP3    H255109   1.061   2.213   4.671 -1.1035 -1.1589  1.8244
11232TIP3   OH255110   2.783   3.721  11.074 -0.0781  0.3936 -0.5251
11232TIP3    H155111   2.789   3.631  11.105  0.1675  0.0602 -1.5255
11232TIP3    H255112   2.715   3.720  11.007 -0.3011  1.0173 -0.3136
11233TIP3   OH255113   2.963   6.444   2.137 -0.0507 -0.0005 -0.2761
11233TIP3    H155114   2.919   6.431   2.221 -1.2402  1.6374 -0.6046
11233TIP3    H255115   2.941   6.533   2.112 -0.8777 -0.8864 -2.9994
11234TIP3   OH255116   1.791   5.093   4.399  0.0845  0.3466 -0.1217
11234TIP3    H155117   1.786   5.154   4.325 -1.0009  0.8533  0.3362
11234TIP3    H255118   1.797   5.006   4.359  1.1804  0.7127 -0.7890
11235TIP3   OH255119   0.267   5.983  16.991 -0.0552 -0.8417  0.3794
11235TIP3    H155120   0.311   5.988  17.076  0.5183  0.5168  0.0272
11235TIP3    H255121   0.326   6.029  16.931 -1.3250 -0.1503 -0.3825
11236TIP3   OH255122   2.072   0.427   3.436  0.4193  0.3531 -0.0707
11236TIP3    H155123   2.153   0.384   3.411 -0.2000 -1.0511  0.1906
11236TIP3    H255124   2.008   0.398   3.371 -0.2862 -0.1145  0.7954
11237TIP3   OH255125   0.025   5.185  12.372 -0.1985 -0.0317 -0.1318
11237TIP3    H155126   0.045   5.146  12.287  1.3488  0.4891 -0.0346
11237TIP3    H255127   0.095   5.155  12.430 -0.9025  0.1048  0.8224
11238TIP3   OH255128   0.484   0.386  13.998  0.0098  0.3428  0.2667
11238TIP3    H155129   0.514   0.335  13.922 -0.2440  1.3737 -0.5617
11238TIP3    H255130   0.526   0.345  14.073  1.0374 -0.1185 -0.5401
11239TIP3   OH255131   5.165   0.264  13.550  0.1441  0.7004  0.0544
11239TIP3    H155132   5.131   0.306  13.629 -0.6765 -0.6154  0.4281
11239TIP3    H255133   5.231   0.325  13.517  0.3293  1.3907  1.6221
11240TIP3   OH255134   1.050   4.715   1.697 -0.2772  0.4907 -0.6010
11240TIP3    H155135   1.131   4.738   1.744 -0.6256  0.4891  0.0098
11240TIP3    H255136   1.075   4.715   1.605  1.4067 -3.1629 -0.3158
11241TIP3   OH255137   4.655   3.777  15.779  0.3343  0.6233  0.2220
11241TIP3    H155138   4.687   3.863  15.807 -0.9976  0.8779  1.0544
11241TIP3    H255139   4.716   3.715  15.819  1.0139  1.1541  0.0356
11242TIP3   OH255140   2.747   2.527   1.212 -0.3399  0.4540 -0.3243
11242TIP3    H155141   2.718   2.438   1.192  0.7258 -0.0735  0.4114
11242TIP3    H255142   2.666   2.576   1.223 -0.9738  0.0731 -2.7634
11243TIP3   OH255143   6.688   0.982  12.896 -0.4691  0.0316 -1.0070
11243TIP3    H155144   6.650   1.005  12.981  1.0167  5.0371 -1.3424
11243TIP3    H255145   6.624   1.014  12.833  0.7834  1.4631 -1.6124
11244TIP3   OH255146   3.382   5.420  13.267 -0.0292  0.5077 -0.3966
11244TIP3    H155147   3.305   5.470  13.293 -0.7662 -1.0374  0.5962
11244TIP3    H255148   3.433   5.411  13.347 -0.8245 -1.7830 -0.0653
11245TIP3   OH255149   6.191   1.452   4.670 -0.2050  0.4812 -0.1417
11245TIP3    H155150   6.152   1.448   4.757 -0.5684 -1.4212 -0.3439
11245TIP3    H255151   6.284   1.465   4.686  0.0988 -2.1172  0.6971
11246TIP3   OH255152   3.936   5.133   0.883 -0.0369  0.3033  0.2468
11246TIP3    H155153   3.912   5.143   0.975  1.6523  0.3582  0.7174
11246TIP3    H255154   3.876   5.191   0.836 -0.7830  0.4323  1.3309
11247TIP3   OH255155   2.795   4.521   1.648 -0.3772 -0.0271  0.9124
11247TIP3    H155156   2.728   4.459   1.675 -0.3191  0.1172  1.3961
11247TIP3    H255157   2.864   4.513   1.714 -1.4154  2.2611  2.4149
11248TIP3   OH255158   4.397   4.082   3.715  0.6877 -0.5627  0.3106
11248TIP3    H155159   4.392   3.995   3.754  0.6376 -0.4463  0.5635
11248TIP3    H255160   4.442   4.135   3.780 -0.1320 -0.1657  0.5702
11249TIP3   OH255161   6.404   4.790   0.704 -0.4290  0.0243  0.3131
11249TIP3    H155162   6.335   4.848   0.735 -0.3824  0.3470 -0.1708
11249TIP3    H255163   6.370   4.753   0.623 -1.2557 -2.1354  1.5493
11250TIP3   OH255164   3.980   6.725  11.351 -0.0466 -0.0928 -0.0903
11250TIP3    H155165   3.945   6.733  11.263  0.1693  1.5964 -0.0646
11250TIP3    H255166   3.906   6.696  11.404 -0.7566  0.9126 -0.4864
11251TIP3   OH255167   5.160   6.087  14.848  0.0860 -0.4059  0.0098
11251TIP3    H155168   5.098   6.159  14.852  0.2255 -0.3422  1.5561
11251TIP3    H255169   5.246   6.127  14.863  0.4391 -0.5872 -1.4263
11252TIP3   OH255170   1.022   0.951  13.068  0.3479  0.2177  0.3056
11252TIP3    H155171   1.118   0.943  13.061  0.2543  0.4907 -1.9052
11252TIP3    H255172   0.994   0.869  13.110  1.4999 -0.0662  0.5608
11253TIP3   OH255173   3.167   6.507  14.255  0.0352  0.0282 -1.5135
11253TIP3    H155174   3.212   6.431  14.217 -0.7257 -1.6240  0.6584
11253TIP3    H255175   3.122   6.471  14.331 -1.0464  2.5546 -0.8945
11254TIP3   OH255176   5.690   1.251   1.790  0.1813 -0.3180 -0.2484
11254TIP3    H155177   5.635   1.191   1.738 -0.5866  0.9764 -0.9865
11254TIP3    H255178   5.709   1.323   1.730 -0.3464  1.0014  1.1268
11255TIP3   OH255179   6.660   0.899   5.012 -0.5345 -0.3440 -0.4467
11255TIP3    H155180   6.736   0.952   5.036 -0.2802 -1.7267  2.1267
11255TIP3    H255181   6.639   0.926   4.922  1.9342  1.2672 -0.6203
11256TIP3   OH255182   1.015   6.278  11.568 -0.0778  0.3067 -0.0474
11256TIP3    H155183   0.989   6.253  11.480  0.0223 -0.2099  0.0658
11256TIP3    H255184   0.935   6.271  11.620  0.4642 -2.6041  0.5937
11257TIP3   OH255185   2.104   6.582  17.240  0.1632  0.5619  0.0816
11257TIP3    H155186   2.164   6.510  17.261 -0.8372 -0.3274 -0.0153
11257TIP3    H255187   2.064   6.606  17.323 -0.0427  0.4984  0.0036
11258TIP3   OH255188   0.164   4.385   1.802 -0.2615  0.0255 -0.2189
11258TIP3    H155189   0.133   4.476   1.802 -1.4789 -0.3628 -1.0367
11258TIP3    H255190   0.245   4.387   1.752 -0.6875  0.5490 -0.9029
11259TIP3   OH255191   4.265   0.781   2.809 -0.0793  0.4782  0.2514
11259TIP3    H155192   4.181   0.823   2.789 -1.3848 -0.2400  3.5327
11259TIP3    H255193   4.276   0.793   2.903  1.9320 -2.2054  0.4824
11260TIP3   OH255194   5.349   2.573   6.033  0.1241 -0.7508 -0.0351
11260TIP3    H155195   5.301   2.507   6.083 -0.8464 -0.1119 -0.1076
11260TIP3    H255196   5.282   2.624   5.989  0.8902 -0.0899 -0.4652
11261TIP3   OH255197   3.537   0.032  13.858  0.1791  0.6043 -0.4275
11261TIP3    H155198   3.631   0.043  13.846  0.5513  0.6442  1.9949
11261TIP3    H255199   3.497   0.078  13.784  2.0165  2.4476 -0.3419
11262TIP3   OH255200   4.386   3.653   2.240 -0.2304  0.2339  0.2587
11262TIP3    H155201   4.292   3.670   2.243 -0.0383  1.3153  0.5549
11262TIP3    H255202   4.418   3.706   2.167  0.1776  0.0120  0.2690
11263TIP3   OH255203   0.454   2.317  14.583 -0.2420  0.3388  0.6812
11263TIP3    H155204   0.411   2.345  14.503  0.4556 -2.6361 -0.8782
11263TIP3    H255205   0.529   2.265  14.553  1.5577  1.1847  3.2921
11264TIP3   OH255206   5.088   2.765  11.967 -0.4851 -0.2934  0.1149
11264TIP3    H155207   5.065   2.698  12.031  2.2720 -1.8886 -0.4162
11264TIP3    H255208   5.077   2.847  12.014 -1.5195 -1.2292  1.6204
11265TIP3   OH255209   1.766   6.468   2.873  0.0030  0.0138  0.6025
11265TIP3    H155210   1.686   6.480   2.925 -0.1974 -1.2670  0.6124
11265TIP3    H255211   1.831   6.436   2.935 -0.5807 -2.7772 -0.0660
11266TIP3   OH255212   1.285   1.067  11.274 -0.3927  0.0818  0.4835
11266TIP3    H155213   1.276   0.990  11.330 -1.0149 -0.7089 -0.6713
11266TIP3    H255214   1.209   1.063  11.216  1.6413 -0.7254 -2.3488
11267TIP3   OH255215   4.726   0.090  12.013 -0.4136  0.1133 -0.1340
11267TIP3    H155216   4.738   0.050  11.927  0.0055 -0.2626  0.0973
11267TIP3    H255217   4.636   0.069  12.037  0.1763 -1.8084  0.5466
11268TIP3   OH255218   2.166   3.987  11.729 -0.6055  0.4757  0.3148
11268TIP3    H155219   2.091   4.020  11.680  0.3467  0.1183 -1.4549
11268TIP3    H255220   2.234   3.975  11.663  1.3203  1.6422  1.9816
11269TIP3   OH255221   0.074   0.652  12.418 -0.2258 -0.3444  0.3095
11269TIP3    H155222   0.014   0.695  12.479 -0.3570  0.3509 -0.2908
11269TIP3    H255223   0.038   0.672  12.331  1.5114  1.1184 -0.1288
11270TIP3   OH255224   1.478   0.069  17.061 -0.4297 -0.1601  0.2485
11270TIP3    H155225   1.424   0.118  16.999 -0.5007  1.0759  1.2534
11270TIP3    H255226   1.496  -0.014  17.016 -0.0022  0.9011 -1.6376
11271TIP3   OH255227   6.661   0.587  16.117 -0.1350  0.3954  0.0067
11271TIP3    H155228   6.698   0.642  16.186 -1.4866  1.7824 -0.3214
11271TIP3    H255229   6.719   0.598  16.043 -0.3854  1.4093 -0.0529
11272TIP3   OH255230   1.168   4.007   4.217 -0.4472 -0.3013  0.1435
11272TIP3    H155231   1.098   3.995   4.281 -1.0233 -1.7060 -0.7078
11272TIP3    H255232   1.138   3.959   4.140  1.3857 -0.7768 -0.3065
11273TIP3   OH255233   1.051   3.626   4.974  0.1202 -0.0440 -0.1371
11273TIP3    H155234   0.974   3.682   4.984 -0.3077 -0.5106 -0.6716
11273TIP3    H255235   1.049   3.569   5.051  1.7769  2.0330  1.5582
11274TIP3   OH255236   1.272   5.835  16.639 -0.1327 -0.1485  0.1879
11274TIP3    H155237   1.177   5.846  16.634 -0.1047 -0.2473 -0.7432
11274TIP3    H255238   1.305   5.880  16.561  0.6386  0.4452  0.8418
11275TIP3   OH255239   3.916   4.443   5.545 -0.1216 -0.2533 -0.1913
11275TIP3    H155240   3.958   4.432   5.460 -0.0756 -1.7102 -0.0027
11275TIP3    H255241   3.873   4.529   5.539  1.3500  0.4653 -1.0196
11276TIP3   OH255242   0.971   1.264  12.959  0.3518  0.0782 -0.2980
11276TIP3    H155243   0.879   1.253  12.935  0.3197 -0.0981 -0.1047
11276TIP3    H255244   0.977   1.227  13.047  0.0771  2.3140  0.7398
11277TIP3   OH255245   4.207   4.861  13.800 -0.0765 -0.5162 -0.4286
11277TIP3    H155246   4.189   4.955  13.797 -1.2874 -0.7361 -0.7492
11277TIP3    H255247   4.268   4.850  13.873 -1.7352  0.2627  1.1417
11278TIP3   OH255248   3.288   3.984  14.455  0.2618  0.1166 -0.2930
11278TIP3    H155249   3.351   3.916  14.430  0.1224 -0.4261  0.7769
11278TIP3    H255250   3.210   3.934  14.480 -0.2917  0.7437 -0.7397
11279TIP3   OH255251   3.925   3.069   4.804  0.2941  0.0308  0.0244
11279TIP3    H155252   3.943   3.135   4.871 -0.4350  0.5494 -0.2785
11279TIP3    H255253   3.999   3.074   4.744  0.3998  0.3440  0.1793
11280TIP3   OH255254   5.003   0.338   0.085 -0.0723 -0.6391 -0.2319
11280TIP3    H155255   5.043   0.252   0.076  1.4410 -0.0271  0.3506
11280TIP3    H255256   5.050   0.393   0.022  0.0763  0.1065  0.5050
11281TIP3   OH255257   3.551   5.300  16.125  0.1847 -0.6626  0.3289
11281TIP3    H155258   3.496   5.222  16.123 -1.2129  0.2777  0.2756
11281TIP3    H255259   3.553   5.326  16.217  1.6466 -1.4014  0.5388
11282TIP3   OH255260   2.311   5.215  14.758  0.0619 -0.1105 -0.5410
11282TIP3    H155261   2.373   5.149  14.727 -1.1581 -0.9985 -1.1387
11282TIP3    H255262   2.266   5.245  14.680 -0.1383  0.6675 -0.1341
11283TIP3   OH255263   0.709   3.131  14.109  0.4774  0.1903 -0.1082
11283TIP3    H155264   0.642   3.080  14.156  3.2328 -1.6432  2.1586
11283TIP3    H255265   0.681   3.222  14.118 -1.2437 -0.4370  1.5580
11284TIP3   OH255266   5.772   5.245  14.464  0.4663 -0.2004 -0.0555
11284TIP3    H155267   5.766   5.150  14.454 -0.1640 -0.1314 -0.3939
11284TIP3    H255268   5.692   5.270  14.510  1.5538 -0.0472  1.8714
11285TIP3   OH255269   4.059   4.945  14.464 -0.3120 -0.9929  0.0673
11285TIP3    H155270   4.147   4.906  14.459  0.0812 -0.2388  0.8866
11285TIP3    H255271   4.014   4.892  14.530 -0.4196 -1.2688 -0.2248
11286TIP3   OH255272   0.619   5.291  15.310 -0.3022 -0.6055 -0.0507
11286TIP3    H155273   0.625   5.386  15.298  3.2028 -0.4408  1.6824
11286TIP3    H255274   0.657   5.255  15.230 -1.0786 -0.5609 -0.4497
11287TIP3   OH255275   4.222   5.436  13.772 -0.4149  0.2567 -0.6240
11287TIP3    H155276   4.128   5.454  13.770 -0.6754 -0.9964 -0.8685
11287TIP3    H255277   4.259   5.488  13.701 -0.8411  1.1712 -0.1849
11288TIP3   OH255278   0.757   6.452   5.940  0.3369 -0.3667  0.3822
11288TIP3    H155279   0.664   6.447   5.964  0.7284 -1.4942  1.7751
11288TIP3    H255280   0.804   6.432   6.021  1.8215  0.4971 -0.2271
11289TIP3   OH255281   0.553   0.688   6.339 -0.2660 -0.0928  0.2494
11289TIP3    H155282   0.527   0.718   6.426  1.4561 -0.7818  1.0294
11289TIP3    H255283   0.606   0.759   6.304 -0.0444 -0.2746  0.2143
11290TIP3   OH255284   4.795   0.968  16.761 -0.4757  0.2060 -0.0965
11290TIP3    H155285   4.731   0.961  16.833 -0.5458 -0.6533 -0.2260
11290TIP3    H255286   4.843   0.885  16.764  0.2409  0.6038 -0.3786
11291TIP3   OH255287   1.029   1.524  13.238  0.2387 -0.9582 -0.4738
11291TIP3    H155288   1.053   1.437  13.270  1.6609 -0.6157 -0.5360
11291TIP3    H255289   1.036   1.580  13.315 -0.6503 -0.8686 -0.4410
11292TIP3   OH255290   2.235   1.095  15.065  0.3770  0.2300 -0.5072
11292TIP3    H155291   2.331   1.089  15.071  0.2554 -0.7835  0.6013
11292TIP3    H255292   2.203   1.031  15.127 -1.0389 -0.7943 -2.2149
11293TIP3   OH255293   0.124   3.384   0.686 -0.6610 -0.0403  0.7572
11293TIP3    H155294   0.115   3.437   0.607  0.0884  0.4705  1.0040
11293TIP3    H255295   0.034   3.362   0.710 -0.9056 -0.0898 -0.1524
11294TIP3   OH255296   5.733   0.468   1.045  0.0969  0.0983  0.2012
11294TIP3    H155297   5.741   0.415   0.965  0.2428 -1.8877  1.4612
11294TIP3    H255298   5.642   0.456   1.073 -0.5170  2.2996 -0.5911
11295TIP3   OH255299   6.531   2.609  14.393  0.0252  0.2734 -0.4561
11295TIP3    H155300   6.616   2.567  14.378  0.4688  1.6506 -2.2244
11295TIP3    H255301   6.549   2.702  14.382 -1.7891  0.5649 -1.3518
11296TIP3   OH255302   0.297   1.315   1.878  0.0690  0.3674  0.0105
11296TIP3    H155303   0.245   1.235   1.883  0.2958  0.0055 -2.1387
11296TIP3    H255304   0.290   1.355   1.964 -2.6001 -0.3702  0.2028
11297TIP3   OH255305   3.307   4.791   2.562 -0.1918 -0.8126  0.2548
11297TIP3    H155306   3.274   4.860   2.620 -0.8534 -0.5728 -0.3869
11297TIP3    H255307   3.388   4.761   2.603  0.4921  0.8374  0.1775
11298TIP3   OH255308   1.303   3.649   0.283 -0.0780  0.0394  0.0480
11298TIP3    H155309   1.338   3.565   0.314  0.3229  0.0010 -0.5060
11298TIP3    H255310   1.379   3.700   0.257 -0.3418  0.4658  0.0944
11299TIP3   OH255311   5.709   6.684   1.407  0.1019  0.1541  0.0938
11299TIP3    H155312   5.750   6.740   1.474 -0.3713  1.1316 -0.4143
11299TIP3    H255313   5.726   6.729   1.325 -0.7748 -0.1686 -0.2702
11300TIP3   OH255314   0.209   4.530  14.589 -0.2842 -0.9940  0.4591
11300TIP3    H155315   0.241   4.453  14.542  0.7565 -0.7463  0.7436
11300TIP3    H255316   0.169   4.584  14.522  1.7150 -0.3645 -0.2809
11301TIP3   OH255317   3.694   4.914  13.499 -0.6743  0.4081 -0.0987
11301TIP3    H155318   3.735   4.831  13.524 -0.5231  1.0120  1.7700
11301TIP3    H255319   3.700   4.915  13.403 -0.5378 -1.6545 -0.1562
11302TIP3   OH255320   2.581   0.159   1.330  0.2652  0.3114  0.0546
11302TIP3    H155321   2.503   0.104   1.343  0.8988 -0.2355  1.9631
11302TIP3    H255322   2.645   0.100   1.289  0.3457  0.1316  0.4289
11303TIP3   OH255323   0.947   3.967  11.467  0.5819 -0.3532 -0.0749
11303TIP3    H155324   0.916   3.931  11.384  2.0072 -1.1778 -0.2866
11303TIP3    H255325   1.017   3.908  11.494 -0.4799 -0.6607  2.2206
11304TIP3   OH255326   4.844   5.095  12.439 -0.5055  0.4366  0.3433
11304TIP3    H155327   4.795   5.056  12.367 -1.7326  0.4247  1.1628
11304TIP3    H255328   4.920   5.038  12.451 -1.6611 -1.0453  0.7655
11305TIP3   OH255329   3.216   2.113   1.737  0.5471  0.5306  0.4382
11305TIP3    H155330   3.235   2.172   1.664 -0.6114  0.1141 -0.2220
11305TIP3    H255331   3.202   2.172   1.812  0.4834  1.0295  0.0402
11306TIP3   OH255332   5.079   1.015  16.835 -0.2895 -0.4027 -0.4108
11306TIP3    H155333   5.049   1.085  16.892 -0.2343  0.8736 -1.8975
11306TIP3    H255334   4.999   0.982  16.794 -0.2261 -0.6850 -0.3124
11307TIP3   OH255335   3.461   0.928   1.640 -0.4505 -0.4344  0.4014
11307TIP3    H155336   3.551   0.896   1.637 -0.2338  0.2065 -0.0425
11307TIP3    H255337   3.462   1.000   1.703 -0.7087 -0.5955  0.5922
11308TIP3   OH255338   0.877   4.125   3.388 -1.1492  0.5803 -0.2117
11308TIP3    H155339   0.928   4.045   3.399  1.1625  1.9596 -0.1254
11308TIP3    H255340   0.818   4.126   3.464 -0.5753 -0.5740  0.2817
11309TIP3   OH255341   3.353   2.273   0.545  0.4509  0.7035 -0.8486
11309TIP3    H155342   3.387   2.208   0.484  0.1787 -0.8472  0.5803
11309TIP3    H255343   3.426   2.333   0.560  0.8188  0.5392 -1.9225
11310TIP3   OH255344   2.780   1.569   4.576  0.1568 -0.1264 -0.3537
11310TIP3    H155345   2.740   1.530   4.654  0.2903  2.2359  0.9926
11310TIP3    H255346   2.707   1.602   4.525  0.0644  3.4287  1.6951
11311TIP3   OH255347   1.967   5.011  15.028  0.1687  0.2856 -0.4002
11311TIP3    H155348   1.874   4.995  15.041 -0.0349  2.1493  0.7425
11311TIP3    H255349   1.997   4.935  14.976 -1.8802 -0.5054 -0.5327
11312TIP3   OH255350   3.415   6.036  12.478 -0.2901  0.1411  0.2394
11312TIP3    H155351   3.329   6.078  12.490  0.0611  0.6497  1.0133
11312TIP3    H255352   3.399   5.944  12.498 -0.6116  0.2693  0.5885
11313TIP3   OH255353   3.907   0.832  11.095 -0.4428 -0.3324  0.4400
11313TIP3    H155354   3.937   0.744  11.071  2.2969  0.2296  1.5012
11313TIP3    H255355   3.884   0.873  11.012  0.3202 -1.3290 -0.2887
11314TIP3   OH255356   3.709   0.310  17.181  0.5278  0.1843  0.7248
11314TIP3    H155357   3.772   0.297  17.110  0.6813  1.3274  0.6297
11314TIP3    H255358   3.763   0.315  17.260  0.6162  1.5733  0.5963
11315TIP3   OH255359   3.979   0.129   3.082  0.3475  0.4835 -0.1308
11315TIP3    H155360   3.947   0.167   3.001  3.2541  3.0207 -0.2952
11315TIP3    H255361   4.059   0.082   3.057 -1.0858 -2.6357  0.7027
11316TIP3   OH255362   2.426   1.736  13.935 -0.4179 -0.3038 -0.5323
11316TIP3    H155363   2.466   1.654  13.906 -0.7745 -0.5167 -0.4164
11316TIP3    H255364   2.349   1.710  13.984  0.6847 -0.0031  1.4795
11317TIP3   OH255365   6.119   4.311   4.349  0.1055  0.1055  0.1804
11317TIP3    H155366   6.051   4.375   4.370 -1.2543 -1.2270 -0.0021
11317TIP3    H255367   6.074   4.245   4.296  1.7019 -0.4933 -0.4716
11318TIP3   OH255368   0.438   0.551  16.392 -0.2864 -0.0560 -0.5053
11318TIP3    H155369   0.530   0.544  16.366 -0.8748  0.2075 -2.9619
11318TIP3    H255370   0.439   0.603  16.472  1.5872  1.6501 -1.5469
11319TIP3   OH255371   5.816   1.514  11.632  0.6747  0.1140  0.4767
11319TIP3    H155372   5.729   1.555  11.627  0.8360  0.4973  0.6983
11319TIP3    H255373   5.877   1.588  11.628  0.9998 -0.1743  0.0606
11320TIP3   OH255374   1.550   2.356   0.653 -0.1876 -0.1160  0.3793
11320TIP3    H155375   1.598   2.424   0.700 -0.8046  0.1025  0.7030
11320TIP3    H255376   1.513   2.301   0.722  1.2109 -1.4394  0.1285
11321TIP3   OH255377   2.952   4.811  11.722 -0.7886 -0.2354  0.3921
11321TIP3    H155378   2.949   4.881  11.787  1.2854  0.7284 -0.4626
11321TIP3    H255379   2.905   4.846  11.647 -0.1900  0.0619  0.1484
11322TIP3   OH255380   0.211   3.176   4.977 -0.0997 -0.3064 -0.0510
11322TIP3    H155381   0.199   3.263   5.015  1.1352 -0.7230  1.3813
11322TIP3    H255382   0.132   3.162   4.924 -2.1741  0.1721  2.6737
11323TIP3   OH255383   2.019   1.528  15.078 -0.0058 -0.0328 -0.2248
11323TIP3    H155384   2.057   1.480  15.005  1.6893  1.1563 -0.1973
11323TIP3    H255385   1.938   1.565  15.044  0.2490 -0.3295 -1.1744
11324TIP3   OH255386   2.831   0.008   4.554  0.1890  0.1944 -0.4377
11324TIP3    H155387   2.877  -0.042   4.621  1.8471  0.3817 -1.3731
11324TIP3    H255388   2.783   0.075   4.602  0.6739 -0.1803  0.6028
11325TIP3   OH255389   4.057   5.956   4.767  0.7679 -0.0159 -0.2022
11325TIP3    H155390   3.986   6.009   4.729  0.0340 -2.1025 -1.8990
11325TIP3    H255391   4.110   6.020   4.816  0.3300  2.4333 -2.6622
11326TIP3   OH255392   5.403   2.524   0.255  0.0279  0.2659 -0.9079
11326TIP3    H155393   5.438   2.439   0.281 -0.8699 -0.2902 -1.4777
11326TIP3    H255394   5.481   2.578   0.240  0.6213  0.2053  1.5038
11327TIP3   OH255395   1.410   6.290   1.425 -0.1978  0.3267 -0.3063
11327TIP3    H155396   1.373   6.328   1.504 -0.4456  0.5714 -0.5345
11327TIP3    H255397   1.433   6.366   1.371  0.1288  0.1658 -0.3990
11328TIP3   OH255398   2.364   1.188  13.316  0.0843  0.0893 -0.3820
11328TIP3    H155399   2.279   1.156  13.346  0.0611  2.5485  2.7127
11328TIP3    H255400   2.423   1.113  13.323 -1.1864 -0.8473  0.5983
11329TIP3   OH255401   5.107   6.397  14.271  0.2682 -0.0655 -0.2862
11329TIP3    H155402   5.103   6.418  14.178 -0.1959  2.7405  0.2816
11329TIP3    H255403   5.029   6.344  14.288  0.5339 -0.8833 -1.5216
11330TIP3   OH255404   0.476   2.103  12.866  0.2676  0.2638  0.1991
11330TIP3    H155405   0.506   2.187  12.900  0.3762  0.3337 -0.0631
11330TIP3    H255406   0.381   2.107  12.872  0.2203  0.8340 -0.7970
11331TIP3   OH255407   5.112   3.176  13.004  0.3684  0.4133 -0.7572
11331TIP3    H155408   5.194   3.166  12.955  1.2467 -0.1014  0.7497
11331TIP3    H255409   5.137   3.222  13.084 -0.9077  0.6941 -0.4995
11332TIP3   OH255410   5.923   6.494  15.988 -0.6013  0.6542 -0.7000
11332TIP3    H155411   5.878   6.499  15.904  0.1679 -1.1070 -1.2585
11332TIP3    H255412   5.964   6.407  15.989 -0.4787  0.6800  1.4409
11333TIP3   OH255413   2.174   2.538   3.867 -0.0759 -0.4120  0.3671
11333TIP3    H155414   2.206   2.464   3.920  0.7080  0.0414  0.5400
11333TIP3    H255415   2.142   2.601   3.932 -0.4120 -0.4501  0.2365
11334TIP3   OH255416   6.093   3.794   3.343  0.2749 -0.1461 -0.3656
11334TIP3    H155417   6.050   3.793   3.429  1.5644 -0.4067  0.3138
11334TIP3    H255418   6.148   3.872   3.344  2.7553 -1.7686  0.3882
11335TIP3   OH255419   5.602   1.610  16.136  0.7950  0.3969 -0.0457
11335TIP3    H155420   5.536   1.557  16.181 -0.7948  0.1921 -2.4348
11335TIP3    H255421   5.568   1.699  16.141  1.3360  0.5891  0.3331
11336TIP3   OH255422   2.617   3.612  14.565 -0.0805  0.0168 -0.2500
11336TIP3    H155423   2.677   3.596  14.491 -0.2447  0.8688 -0.5846
11336TIP3    H255424   2.579   3.527  14.584 -0.0050 -0.2251 -1.1294
11337TIP3   OH255425   2.430   6.494  16.468  0.0066 -0.1007  0.4177
11337TIP3    H155426   2.398   6.463  16.553 -2.0546 -0.3345 -0.3780
11337TIP3    H255427   2.406   6.424  16.406 -1.2182  1.3391 -0.8004
11338TIP3   OH255428   5.373   2.946  15.379 -0.0906 -0.3431  0.2721
11338TIP3    H155429   5.308   2.990  15.326 -0.5065 -0.1232  0.9467
11338TIP3    H255430   5.365   2.854  15.355  0.6443 -0.0962 -0.9979
11339TIP3   OH255431   6.123   5.269   0.748  0.0845  0.2022  0.1794
11339TIP3    H155432   6.153   5.357   0.724  1.1169 -0.4624 -1.1228
11339TIP3    H255433   6.182   5.241   0.817  0.1346  0.3061  0.1784
11340TIP3   OH255434   6.492   3.731  14.990  0.0133  0.6148 -0.0149
11340TIP3    H155435   6.567   3.741  15.049  1.7369  0.0541 -1.9415
11340TIP3    H255436   6.525   3.673  14.921 -1.4212  2.2205 -2.1881
11341TIP3   OH255437   0.962   5.274  13.868  0.1379 -0.2514  0.2313
11341TIP3    H155438   1.031   5.337  13.849 -0.2871  0.1170 -0.1063
11341TIP3    H255439   0.881   5.317  13.840 -0.0986 -1.1676 -0.5223
11342TIP3   OH255440   6.685   6.097   6.163  0.3298 -0.3739 -0.0591
11342TIP3    H155441   6.635   6.163   6.114  0.6127 -0.2350 -0.1664
11342TIP3    H255442   6.620   6.033   6.191 -0.0638  0.3458  0.7019
11343TIP3   OH255443   1.191   3.897  16.348 -0.9017  0.0224  0.3493
11343TIP3    H155444   1.108   3.933  16.381 -0.8474 -0.0771  0.5976
11343TIP3    H255445   1.166   3.851  16.267 -1.0424  0.2381  0.2692
11344TIP3   OH255446   0.378   1.493  16.569  0.3206  0.0296 -0.2032
11344TIP3    H155447   0.457   1.461  16.526  0.2594 -0.9719  0.3987
11344TIP3    H255448   0.383   1.588  16.562  2.0200  0.0249  0.6126
11345TIP3   OH255449   0.732   6.662  15.276  0.1167 -0.1680  0.0059
11345TIP3    H155450   0.779   6.743  15.297  0.2075 -0.1777 -0.1631
11345TIP3    H255451   0.735   6.656  15.181  1.1569 -0.9982  0.0814
11346TIP3   OH255452   0.157   1.226  17.179 -0.0207  0.5509  0.3232
11346TIP3    H155453   0.211   1.244  17.102 -0.4656 -0.2309 -0.1796
11346TIP3    H255454   0.073   1.268  17.160 -0.1617  0.2794  0.3379
11347TIP3   OH255455   3.136   3.354  14.189  0.4030 -0.5999  0.5582
11347TIP3    H155456   3.182   3.355  14.105  0.7246 -0.5580  0.7329
11347TIP3    H255457   3.046   3.380  14.167  0.0489 -2.2040 -0.0294
11348TIP3   OH255458   5.520   3.460   5.844 -0.1235  0.1807 -0.2063
11348TIP3    H155459   5.563   3.505   5.771 -1.4137  1.2469 -0.3587
11348TIP3    H255460   5.481   3.382   5.804 -1.0205  0.8758 -0.7588
11349TIP3   OH255461   0.572   1.040  14.925 -0.0330 -0.1029 -0.2677
11349TIP3    H155462   0.509   1.099  14.886 -0.3703  0.7132  1.4127
11349TIP3    H255463   0.520   0.964  14.952 -0.2227  0.3151  0.5862
11350TIP3   OH255464   1.711   0.668  13.414 -0.0724  0.0951  0.4718
11350TIP3    H155465   1.777   0.644  13.349 -0.2647 -1.0161  0.6632
11350TIP3    H255466   1.634   0.691  13.361 -0.1881 -0.6800  0.2904
11351TIP3   OH255467   3.957   6.722  14.055 -0.0741  0.3567  0.4189
11351TIP3    H155468   3.977   6.754  14.143 -0.1896  0.8769  0.2583
11351TIP3    H255469   4.008   6.778  13.996  0.4474 -0.3589  0.1797
11352TIP3   OH255470   1.073   6.356  13.921 -0.3976 -0.3193 -0.7081
11352TIP3    H155471   1.056   6.298  13.996 -0.3970  0.5767  0.0023
11352TIP3    H255472   1.026   6.315  13.848 -0.5459 -1.1134 -0.1830
11353TIP3   OH255473   5.229   3.230  10.576  0.3443  0.1269  0.1391
11353TIP3    H155474   5.191   3.174  10.508 -1.4805  0.0441  1.1557
11353TIP3    H255475   5.189   3.199  10.658  2.7335 -0.0096  1.3293
11354TIP3   OH255476   2.479   6.129  16.306  0.3159 -0.3521  0.3142
11354TIP3    H155477   2.470   6.034  16.314  0.5016 -0.4860 -0.8343
11354TIP3    H255478   2.543   6.141  16.236  0.3499  0.6212  0.4993
11355TIP3   OH255479   0.478   4.037   0.696  0.3739 -0.2993 -0.4485
11355TIP3    H155480   0.395   3.990   0.696  0.4409 -0.4389 -1.9746
11355TIP3    H255481   0.509   4.033   0.606  3.0326 -1.9635  0.4243
11356TIP3   OH255482   2.306   4.028   6.159 -0.5511  0.1615  0.2865
11356TIP3    H155483   2.276   3.949   6.114  0.9530 -0.8082  0.9306
11356TIP3    H255484   2.300   4.007   6.252  0.1130  0.7239  0.4659
11357TIP3   OH255485   1.580   5.581   2.623 -0.7311 -0.0143 -0.2827
11357TIP3    H155486   1.643   5.572   2.551  0.2173  1.4324  0.3364
11357TIP3    H255487   1.548   5.491   2.637  2.9494 -1.2975  0.9484
11358TIP3   OH255488   1.485   4.515  14.564  0.1191 -0.0101  0.4748
11358TIP3    H155489   1.481   4.439  14.506  0.5364  0.1292  0.2598
11358TIP3    H255490   1.395   4.547  14.567  0.2972  0.7706 -1.1703
11359TIP3   OH255491   6.412   0.883   5.412  0.0229  0.1290  0.1522
11359TIP3    H155492   6.474   0.950   5.442  0.2225  0.4537 -0.9039
11359TIP3    H255493   6.347   0.932   5.361 -0.2091 -0.4017 -0.0682
11360TIP3   OH255494   4.859   4.619   1.006 -0.2034 -0.2652 -0.3123
11360TIP3    H155495   4.869   4.535   0.961  1.3767 -0.2694 -0.0188
11360TIP3    H255496   4.876   4.685   0.939 -1.0058 -0.1862 -0.4410
11361TIP3   OH255497   5.453   2.787   4.806  0.4261 -0.1099  0.2093
11361TIP3    H155498   5.405   2.713   4.771  0.2983  0.2549 -0.4064
11361TIP3    H255499   5.423   2.795   4.897  2.6194 -2.6497  1.2997
11362TIP3   OH255500   6.155   1.121  17.015 -0.0525  0.0468 -0.0455
11362TIP3    H155501   6.202   1.108  16.932  1.2041  1.7898  0.3186
11362TIP3    H255502   6.198   1.061  17.076 -0.3641 -0.5785 -0.4366
11363TIP3   OH255503   1.909   1.227   5.006 -0.3912  0.1880 -0.8496
11363TIP3    H155504   1.951   1.144   4.983  0.3346  0.6665 -1.3049
11363TIP3    H255505   1.922   1.283   4.929  1.1837  1.4737  0.2728
11364TIP3   OH255506   0.108   5.038  14.001  0.6353 -0.3881  0.4655
11364TIP3    H155507   0.056   5.017  14.078  0.8583  1.7201  1.2558
11364TIP3    H255508   0.196   5.009  14.023  0.9893  1.4174  1.6285
11365TIP3   OH255509   1.097   5.030   1.507 -0.9230 -0.0319 -0.2899
11365TIP3    H155510   1.032   5.078   1.557 -0.3236  0.6444 -0.1465
11365TIP3    H255511   1.048   4.990   1.435 -1.9223 -1.6196  1.2105
11366TIP3   OH255512   1.612   6.425   3.944 -0.5261 -0.6418 -0.5469
11366TIP3    H155513   1.592   6.344   3.992 -2.3351 -1.3667 -2.3650
11366TIP3    H255514   1.663   6.395   3.868  0.4650  0.2138 -0.2486
11367TIP3   OH255515   6.625   0.563   5.956 -0.0620  0.0443 -0.2942
11367TIP3    H155516   6.588   0.524   6.035 -0.5809  0.5335 -0.2843
11367TIP3    H255517   6.639   0.655   5.980  0.6100 -0.0040 -0.4918
11368TIP3   OH255518   6.031   1.797  11.268  0.5050 -0.7807 -0.3694
11368TIP3    H155519   6.078   1.842  11.198  0.2277  0.6665  0.3238
11368TIP3    H255520   5.967   1.862  11.298 -0.5348 -1.9772  0.0844
11369TIP3   OH255521   1.191   5.424  15.952  0.0852  0.3435  0.3325
11369TIP3    H155522   1.243   5.443  16.030  1.2133 -0.1229 -0.2763
11369TIP3    H255523   1.116   5.483  15.959 -0.3574 -0.3701  2.2472
11370TIP3   OH255524   3.363   0.893  15.635 -0.6272  0.3766  0.5711
11370TIP3    H155525   3.324   0.878  15.549 -2.0734 -0.0742  1.2738
11370TIP3    H255526   3.300   0.948  15.682  0.0124  0.4131  1.4282
11371TIP3   OH255527   1.932   0.221   4.074  0.3178  0.7478  0.0050
11371TIP3    H155528   1.847   0.252   4.105  0.8841  0.6709  1.7546
11371TIP3    H255529   1.992   0.242   4.145  1.5060 -0.4776 -0.5953
11372TIP3   OH255530   1.683   0.226  16.618  0.7319  0.5625  0.4192
11372TIP3    H155531   1.690   0.314  16.656 -0.9693  0.5895  0.7555
11372TIP3    H255532   1.651   0.241  16.529  0.7929  0.2912  0.3497
11373TIP3   OH255533   0.514   0.316  16.206 -0.1102 -0.0893  0.8578
11373TIP3    H155534   0.552   0.237  16.245  0.7424 -0.7135 -1.1413
11373TIP3    H255535   0.589   0.363  16.169 -0.7514  1.1027  1.0149
11374TIP3   OH255536   2.625   4.046   1.433 -0.0066  0.0869  0.0192
11374TIP3    H155537   2.554   3.994   1.472 -1.2130  1.2365 -0.5239
11374TIP3    H255538   2.662   4.095   1.507  0.3898 -0.6949  0.3460
11375TIP3   OH255539   0.354   1.800  12.960  0.4727  0.1377  0.5384
11375TIP3    H155540   0.320   1.710  12.954  1.3767 -0.2790  1.4301
11375TIP3    H255541   0.408   1.810  12.883  1.2989 -0.5061  1.0155
11376TIP3   OH255542   3.533   0.749  16.781  0.2053  0.2881  0.2162
11376TIP3    H155543   3.521   0.825  16.725  0.7100  2.0326  2.3195
11376TIP3    H255544   3.445   0.716  16.797 -0.0366  0.5406 -0.5378
11377TIP3   OH255545   1.580   4.449   0.962 -0.0348  0.4920  0.3844
11377TIP3    H155546   1.608   4.531   0.921 -2.8023  1.0262 -0.5950
11377TIP3    H255547   1.568   4.388   0.889 -3.0473  0.8432  0.4916
11378TIP3   OH255548   2.070   4.933  12.974 -0.1258  0.1469 -0.1753
11378TIP3    H155549   2.050   5.002  12.910 -0.9984  0.9941  0.9701
11378TIP3    H255550   2.113   4.979  13.047 -0.7683 -0.5034  0.6351
11379TIP3   OH255551   5.025   1.440   0.207 -0.6963  0.0342  0.3756
11379TIP3    H155552   5.011   1.410   0.118 -2.3578  0.0939  0.5723
11379TIP3    H255553   5.006   1.534   0.204  0.3787  0.2708  0.5776
11380TIP3   OH255554   6.071   1.927  15.094  0.2532  0.6698 -0.5285
11380TIP3    H155555   6.023   1.862  15.043  0.4597 -0.1571  0.3301
11380TIP3    H255556   6.009   1.957  15.160  0.4150  0.7717 -0.4210
11381TIP3   OH255557   3.237   4.556  14.043  0.2678  0.9965 -0.1475
11381TIP3    H155558   3.271   4.573  14.131  0.3801  1.1658 -0.2253
11381TIP3    H255559   3.277   4.623  13.988  1.3102  0.0514 -0.5899
11382TIP3   OH255560   0.755   4.404   5.179 -0.0663  0.2644 -0.0732
11382TIP3    H155561   0.735   4.311   5.188  1.7108 -0.3354 -1.8022
11382TIP3    H255562   0.671   4.444   5.156 -0.7023 -1.0043 -0.0648
11383TIP3   OH255563   3.752   5.066  17.143  0.4500  0.1098 -0.1257
11383TIP3    H155564   3.778   5.131  17.209  1.2497 -1.4376  1.1436
11383TIP3    H255565   3.670   5.029  17.176 -0.6487  1.2350 -1.4435
11384TIP3   OH255566   2.322   4.302  15.334 -0.2015  0.3657 -0.1685
11384TIP3    H155567   2.409   4.286  15.371  0.3524 -0.9176 -1.8752
11384TIP3    H255568   2.264   4.307  15.409  0.8294 -2.2582  0.9177
11385TIP3   OH255569   1.338   3.007  16.203  0.3061 -0.8487 -0.0311
11385TIP3    H155570   1.263   2.954  16.230  0.3904 -1.1293 -0.3483
11385TIP3    H255571   1.301   3.070  16.141  0.1527 -0.3442  0.5606
11386TIP3   OH255572   3.761   0.909  14.838 -0.3102 -0.5677  0.1764
11386TIP3    H155573   3.765   0.865  14.922 -1.5258 -0.5905  0.2381
11386TIP3    H255574   3.851   0.908  14.806  0.1135 -0.8111  1.3370
11387TIP3   OH255575   5.142   0.905  13.655  0.1547 -0.0588  0.2677
11387TIP3    H155576   5.208   0.932  13.720  0.1558  0.2432  0.1375
11387TIP3    H255577   5.150   0.809  13.653  1.2147  0.0286 -0.4037
11388TIP3   OH255578   5.759   0.879  13.431 -0.1857  0.7185  0.5541
11388TIP3    H155579   5.853   0.862  13.441  0.2197  1.6371 -1.3238
11388TIP3    H255580   5.732   0.822  13.360 -0.5699  1.9366 -0.3112
11389TIP3   OH255581   2.739   2.522  13.353  0.8255  0.4848  0.2808
11389TIP3    H155582   2.677   2.554  13.287  0.5637  0.7420  0.6498
11389TIP3    H255583   2.753   2.431  13.329  0.6829  0.5561 -0.0947
11390TIP3   OH255584   2.419   6.330  15.687  0.2318 -0.2001  0.0641
11390TIP3    H155585   2.383   6.410  15.725 -0.5728 -0.3901 -0.2754
11390TIP3    H255586   2.407   6.264  15.756 -0.7602 -0.4282 -0.3085
11391TIP3   OH255587   5.827   6.542   2.092  0.9435  0.3228 -0.2946
11391TIP3    H155588   5.824   6.628   2.134  1.9055 -0.3767  1.3415
11391TIP3    H255589   5.805   6.481   2.163 -0.1685 -0.7575 -1.5313
11392TIP3   OH255590   0.156   6.004   6.058  0.1075 -0.0746 -0.5659
11392TIP3    H155591   0.220   6.067   6.091  0.2442 -1.0270  1.0677
11392TIP3    H255592   0.072   6.036   6.091  0.0868 -0.3331 -0.3666
11393TIP3   OH255593   4.683   4.154   5.744  0.5191  0.2178 -1.2932
11393TIP3    H155594   4.713   4.121   5.829  0.9365 -1.8726 -2.2063
11393TIP3    H255595   4.742   4.227   5.725  0.3349  0.8071  0.2493
11394TIP3   OH255596   3.689   6.656  14.062  0.0563  0.1795  0.0007
11394TIP3    H155597   3.767   6.620  14.103 -0.0257  0.2046  0.1812
11394TIP3    H255598   3.721   6.707  13.988  0.1195 -1.1381 -0.9198
11395TIP3   OH255599   2.638   4.740   2.944 -0.5748 -0.2572 -0.0476
11395TIP3    H155600   2.550   4.775   2.961 -0.0086  0.6984  0.9944
11395TIP3    H255601   2.653   4.759   2.852  0.0350  3.0964  0.6475
11396TIP3   OH255602   5.436   1.581  14.578 -0.0542 -0.2141 -0.5468
11396TIP3    H155603   5.354   1.533  14.573  0.0773 -0.5189  0.1842
11396TIP3    H255604   5.410   1.673  14.573 -0.3710 -0.3287 -1.1005
11397TIP3   OH255605   5.351   1.485  10.912  0.5858 -0.2933 -0.0199
11397TIP3    H155606   5.443   1.468  10.895  0.7027 -0.8416  1.0845
11397TIP3    H255607   5.350   1.533  10.995 -0.1492 -0.8365  0.3054
11398TIP3   OH255608   0.581   2.766   0.400  0.1890  0.1688 -0.6070
11398TIP3    H155609   0.559   2.833   0.336  2.1421  0.5009 -1.0073
11398TIP3    H255610   0.530   2.789   0.477 -0.3633  1.1969 -1.2517
11399TIP3   OH255611   5.152   3.199  14.867 -0.0912 -0.5345  0.1574
11399TIP3    H155612   5.231   3.215  14.815 -1.5001  0.8293 -1.6780
11399TIP3    H255613   5.139   3.104  14.862  1.1426 -0.7206  0.0790
11400TIP3   OH255614   3.177   3.730   6.000 -0.6017 -0.3662  0.2434
11400TIP3    H155615   3.108   3.743   6.064 -0.9643 -1.9413  0.2195
11400TIP3    H255616   3.239   3.802   6.015 -2.5888  1.5548 -0.2625
11401TIP3   OH255617   4.215   2.161  14.126  0.0945  0.6008  0.4489
11401TIP3    H155618   4.195   2.148  14.033  0.0073  0.0348  0.5465
11401TIP3    H255619   4.129   2.170  14.168  0.0280 -1.0652  0.7528
11402TIP3   OH255620   0.760   0.212  11.835 -0.4708  0.6750 -0.0393
11402TIP3    H155621   0.774   0.172  11.921 -2.0280  0.4903  0.1568
11402TIP3    H255622   0.778   0.305  11.849 -0.8502  0.6705  0.5278
11403TIP3   OH255623   3.599   5.507  11.739 -0.2892 -0.3299  0.3104
11403TIP3    H155624   3.690   5.534  11.748  0.4011 -2.3379 -0.2602
11403TIP3    H255625   3.565   5.560  11.667  0.2593  0.7452  0.8148
11404TIP3   OH255626   0.258   5.898  13.965 -0.1938 -0.3726 -0.0308
11404TIP3    H155627   0.168   5.912  13.996 -0.9856 -1.3147 -1.7122
11404TIP3    H255628   0.295   5.986  13.959 -1.5332  0.1867 -0.7071
11405TIP3   OH255629   5.159   0.399   3.592  0.1660 -0.1875 -0.3676
11405TIP3    H155630   5.179   0.475   3.537  1.3655 -0.1787  0.0551
11405TIP3    H255631   5.101   0.434   3.660  1.3929  0.5649  0.3231
11406TIP3   OH255632   6.725   4.821  10.656  0.0129  0.5387  0.6099
11406TIP3    H155633   6.656   4.817  10.721 -3.9862  1.1095 -3.1459
11406TIP3    H255634   6.723   4.734  10.614  0.9278  0.8808 -0.1802
11407TIP3   OH255635   5.185   0.036   2.293  0.0477  0.2135  0.3029
11407TIP3    H155636   5.155   0.113   2.342  0.7421 -0.4862  1.9128
11407TIP3    H255637   5.174  -0.036   2.354  1.3657 -0.6465 -0.4376
11408TIP3   OH255638   5.109   4.523  13.184  0.0833  0.1104  0.0699
11408TIP3    H155639   5.073   4.440  13.213 -1.7421  0.5487 -0.7710
11408TIP3    H255640   5.065   4.589  13.238  1.0452  0.5717  0.3054
11409TIP3   OH255641   3.907   0.968   0.564 -0.7971  0.0070  0.5384
11409TIP3    H155642   3.951   1.040   0.609 -1.3110  1.5644 -1.3074
11409TIP3    H255643   3.963   0.892   0.579  0.1151  0.9188  1.9845
11410TIP3   OH255644   4.443   0.114   4.656  0.0624 -0.2789 -0.0439
11410TIP3    H155645   4.522   0.133   4.605 -0.4619 -1.5990 -1.4124
11410TIP3    H255646   4.466   0.140   4.746  2.1574 -0.8839 -0.3445
11411TIP3   OH255647   1.059   1.957   2.795  1.0394 -0.1562 -0.6211
11411TIP3    H155648   1.078   1.920   2.709  0.7998  0.6757 -1.0450
11411TIP3    H255649   0.970   1.927   2.815  1.3892 -0.9980 -0.3042
11412TIP3   OH255650   4.226   5.373  16.583  0.2195  0.3151 -0.3982
11412TIP3    H155651   4.164   5.444  16.566  0.2921  0.2138 -1.0961
11412TIP3    H255652   4.258   5.390  16.672 -1.1283  0.1278  0.1486
11413TIP3   OH255653   5.769   5.067   4.769  0.1098 -0.1056  0.1501
11413TIP3    H155654   5.798   4.979   4.793 -1.7026 -0.4239  1.3135
11413TIP3    H255655   5.762   5.113   4.853 -0.1601  0.7682 -0.3445
11414TIP3   OH255656   3.145   1.706   2.026 -0.5240  0.4888  0.0355
11414TIP3    H155657   3.166   1.762   1.951 -0.3591  0.1794 -0.1522
11414TIP3    H255658   3.196   1.627   2.012 -0.0921  0.6304  0.7416
11415TIP3   OH255659   3.629   2.646  12.825 -0.5987 -0.2611 -0.4356
11415TIP3    H155660   3.584   2.662  12.742 -2.6641 -0.1285  0.6358
11415TIP3    H255661   3.559   2.621  12.885  0.5265  1.5761  1.7754
11416TIP3   OH255662   3.918   1.218  16.422  0.7539 -0.2258 -0.0370
11416TIP3    H155663   3.903   1.277  16.495 -0.0979 -0.7464  0.2163
11416TIP3    H255664   3.900   1.270  16.344  0.6513  0.0338  0.1618
11417TIP3   OH255665   5.202   0.324   3.222 -0.0148 -0.7693 -0.2394
11417TIP3    H155666   5.274   0.379   3.193  0.8772 -1.6533  0.2284
11417TIP3    H255667   5.163   0.372   3.295 -1.7340  1.0534 -2.2433
11418TIP3   OH255668   0.407   4.058  13.130  0.2403 -0.6712 -0.1166
11418TIP3    H155669   0.419   3.975  13.083 -0.0488 -0.3385 -0.7938
11418TIP3    H255670   0.489   4.105  13.118 -1.3622  1.5868 -4.7078
11419TIP3   OH255671   1.430   2.813   1.460 -0.1666  0.2533 -0.1752
11419TIP3    H155672   1.481   2.764   1.524  0.0719  0.0573 -0.5115
11419TIP3    H255673   1.395   2.887   1.509  1.2726  0.9557 -0.1415
11420TIP3   OH255674   4.668   1.837   3.495 -0.1810  0.1131 -0.1120
11420TIP3    H155675   4.714   1.821   3.577 -0.2657 -2.2775 -0.4460
11420TIP3    H255676   4.734   1.824   3.427 -0.5820 -0.0485 -0.4771
11421TIP3   OH255677   5.241   1.765   2.561  0.1356 -0.2868  0.2118
11421TIP3    H155678   5.242   1.838   2.499  1.1249 -1.2600 -0.9686
11421TIP3    H255679   5.189   1.697   2.517  1.9683 -1.4926 -0.2240
11422TIP3   OH255680   5.502   0.699  13.820  0.3432 -0.1187 -0.3171
11422TIP3    H155681   5.577   0.641  13.835  0.2196 -0.4294 -0.8800
11422TIP3    H255682   5.524   0.746  13.740  0.5385  0.7783  0.2572
11423TIP3   OH255683   4.783   3.391   1.685  0.2709  0.1640  0.1019
11423TIP3    H155684   4.848   3.383   1.755  0.3132  1.1108  0.1847
11423TIP3    H255685   4.761   3.484   1.683 -0.3078  0.0235 -0.6286
11424TIP3   OH255686   3.677   1.138   3.212  0.3001  0.0902  0.1094
11424TIP3    H155687   3.705   1.062   3.262  0.8918  0.3004  0.1092
11424TIP3    H255688   3.582   1.137   3.218  0.2761 -0.8898 -0.2564
11425TIP3   OH255689   3.993   2.872   2.080 -0.1541 -0.2654  0.0540
11425TIP3    H155690   4.076   2.831   2.103 -0.1439 -0.9986 -1.1875
11425TIP3    H255691   4.016   2.959   2.046  0.0765 -0.3242  0.0641
11426TIP3   OH255692   3.065   1.545   6.037  0.5720 -1.0851  0.1415
11426TIP3    H155693   3.155   1.514   6.034  1.7895  1.9385  1.0212
11426TIP3    H255694   3.048   1.561   6.130 -0.3748 -0.4217 -0.1258
11427TIP3   OH255695   5.363   0.566  12.701 -0.3922  0.0026 -0.2422
11427TIP3    H155696   5.333   0.544  12.790  2.8479  0.5072  1.1464
11427TIP3    H255697   5.404   0.485  12.670 -0.1002  0.2777 -0.5790
11428TIP3   OH255698   2.360   1.828   1.439 -0.4771 -0.4029 -0.3563
11428TIP3    H155699   2.341   1.901   1.497 -2.8831 -1.3080  0.1057
11428TIP3    H255700   2.318   1.753   1.480  0.4656 -1.7222 -1.6866
11429TIP3   OH255701   5.093   2.577  14.038  0.1304 -0.0504  0.1192
11429TIP3    H155702   5.069   2.544  13.952  0.0614 -0.6420  0.3574
11429TIP3    H255703   5.033   2.650  14.055  0.8407  0.7624 -0.7742
11430TIP3   OH255704   6.131   5.895  16.329  0.0341  0.0045  0.0829
11430TIP3    H155705   6.214   5.888  16.377 -0.7980  0.9174  1.7523
11430TIP3    H255706   6.132   5.984  16.294 -0.3909  0.1363  0.4063
11431TIP3   OH255707   6.732   1.930   3.989 -0.1663  0.0181 -0.3303
11431TIP3    H155708   6.794   1.983   3.940  2.0457 -1.5500  0.5975
11431TIP3    H255709   6.691   1.874   3.923  1.1505 -0.5273 -0.7186
11432TIP3   OH255710   6.381   6.354  12.789  0.3621 -0.0873 -0.2496
11432TIP3    H155711   6.442   6.282  12.797  0.9179  0.2904 -0.9993
11432TIP3    H255712   6.347   6.348  12.700 -0.0640  0.1999 -0.1126
11433TIP3   OH255713   2.233   3.051   1.626 -0.0952 -0.3351 -0.4763
11433TIP3    H155714   2.225   3.144   1.646  1.0049 -0.6793  1.9559
11433TIP3    H255715   2.316   3.044   1.578 -0.7117  0.0400 -1.6196
11434TIP3   OH255716   4.276   3.246   3.807 -0.4417 -0.3096 -0.0731
11434TIP3    H155717   4.190   3.204   3.810 -0.8731  0.5823  0.1524
11434TIP3    H255718   4.262   3.333   3.844  0.6765 -0.3586  0.5060
11435TIP3   OH255719   4.842   4.726  15.490 -1.1776  0.8020  0.0482
11435TIP3    H155720   4.816   4.634  15.482 -1.6735  0.9456  0.0223
11435TIP3    H255721   4.768   4.776  15.455 -0.1805  1.1661 -1.6347
11436TIP3   OH255722   4.385   2.908   3.567 -0.0341  0.6345 -0.4010
11436TIP3    H155723   4.337   2.850   3.508 -0.1588  0.3345 -0.0054
11436TIP3    H255724   4.356   2.996   3.543 -0.5693  0.4726 -0.3553
11437TIP3   OH255725   3.432   2.697   2.823 -0.7183 -0.1024 -0.0452
11437TIP3    H155726   3.387   2.634   2.766 -0.1807  0.8694 -1.5829
11437TIP3    H255727   3.364   2.760   2.846 -0.9808 -0.5949  0.5783
11438TIP3   OH255728   6.532   2.058   4.216 -0.4539 -0.3247  0.4516
11438TIP3    H155729   6.464   2.082   4.153  0.4783 -1.6160 -1.1486
11438TIP3    H255730   6.530   1.962   4.217  0.7475 -0.3603  1.0442
11439TIP3   OH255731   5.593   2.417   0.774 -0.2823 -0.0523 -0.0737
11439TIP3    H155732   5.508   2.411   0.817 -0.0845  1.7122  0.6703
11439TIP3    H255733   5.578   2.380   0.687 -1.6793 -0.2525  0.2198
11440TIP3   OH255734   5.844   1.785   3.992 -0.5986 -0.0943 -0.3512
11440TIP3    H155735   5.905   1.842   3.943 -1.6665  0.3262 -1.2217
11440TIP3    H255736   5.900   1.715   4.026  0.5710  0.8873 -0.1616
11441TIP3   OH255737   3.519   0.196  14.079 -0.0327  0.0972 -0.4260
11441TIP3    H155738   3.517   0.117  14.026  1.2457  0.2193 -0.7075
11441TIP3    H255739   3.532   0.267  14.016 -0.8192  0.5018 -0.1475
11442TIP3   OH255740   3.496   5.617   4.508  0.6973  0.2266 -0.0010
11442TIP3    H155741   3.568   5.569   4.549  1.7896 -0.6102 -2.7041
11442TIP3    H255742   3.451   5.552   4.454 -1.0403  1.1398  0.2666
11443TIP3   OH255743   6.543   3.129  12.445 -0.3475 -0.1017  0.0192
11443TIP3    H155744   6.606   3.163  12.382 -0.0302  1.0904  0.9542
11443TIP3    H255745   6.516   3.205  12.497 -1.3788 -0.8688  0.6542
11444TIP3   OH255746   5.335   6.452  11.710 -0.1061 -0.3355  0.3456
11444TIP3    H155747   5.401   6.396  11.669  0.0035 -0.2709  0.4346
11444TIP3    H255748   5.384   6.525  11.746 -0.2480 -0.1930  0.2516
11445TIP3   OH255749   1.784   3.361   2.712  0.0477  0.4392 -0.5993
11445TIP3    H155750   1.703   3.310   2.706 -0.2527  0.6854  0.9726
11445TIP3    H255751   1.854   3.296   2.702 -0.3351 -0.0003 -0.4331
11446TIP3   OH255752   4.406   4.995  11.625  0.2378  0.0881 -0.0590
11446TIP3    H155753   4.326   4.972  11.579  0.6249 -0.0137 -0.7017
11446TIP3    H255754   4.420   4.923  11.687  0.0384 -0.0846 -0.2145
11447TIP3   OH255755   6.623   4.779   2.613 -0.1934 -0.0378 -0.1112
11447TIP3    H155756   6.573   4.813   2.687  0.6841  1.3745 -0.1213
11447TIP3    H255757   6.606   4.841   2.542  0.1301 -0.5514 -0.6475
11448TIP3   OH255758   5.772   0.745   5.814 -0.6289  0.3011 -0.4560
11448TIP3    H155759   5.833   0.784   5.752  0.3313  0.9761  0.8753
11448TIP3    H255760   5.685   0.761   5.775 -0.1514  2.0741 -0.8934
11449TIP3   OH255761   1.566   0.241   5.894 -0.1138  0.3813 -0.0732
11449TIP3    H155762   1.600   0.152   5.903 -0.2204  0.4559  1.3640
11449TIP3    H255763   1.497   0.247   5.960 -1.1325  1.0690 -1.1726
11450TIP3   OH255764   6.670   2.698   5.482  0.4563 -0.1548  0.0544
11450TIP3    H155765   6.734   2.763   5.512 -0.3969  1.0781 -0.6577
11450TIP3    H255766   6.655   2.722   5.390 -1.2454 -0.2003  0.2991
11451TIP3   OH255767   5.657   3.073   1.834  0.0381  0.5891 -0.1340
11451TIP3    H155768   5.673   3.063   1.740  0.5901 -0.4280  0.0531
11451TIP3    H255769   5.741   3.101   1.870 -0.2986  1.4501 -0.0014
11452TIP3   OH255770   4.211   1.153   5.545  0.0547 -0.2012  0.1180
11452TIP3    H155771   4.148   1.135   5.615  1.1927 -1.4371  0.8759
11452TIP3    H255772   4.160   1.145   5.465 -0.4942 -2.8215  0.6162
11453TIP3   OH255773   2.969   6.454   1.330 -0.1370 -0.0177  0.4144
11453TIP3    H155774   3.012   6.490   1.252 -0.1516  1.5185  1.0865
11453TIP3    H255775   2.971   6.359   1.316  0.5742  0.1807 -1.0762
11454TIP3   OH255776   5.180   1.655  15.230 -0.4702  0.0517 -0.0285
11454TIP3    H155777   5.149   1.742  15.204 -1.7194 -0.3821 -0.0711
11454TIP3    H255778   5.180   1.658  15.326 -0.3649  0.1446 -0.0308
11455TIP3   OH255779   0.448   2.073  11.713  0.0953  0.3536 -0.2611
11455TIP3    H155780   0.542   2.076  11.696  0.7234 -2.3930  2.0322
11455TIP3    H255781   0.410   2.034  11.634  1.2979 -1.1235 -0.1426
11456TIP3   OH255782   0.188   1.526   1.436  0.4266  0.2246  0.5087
11456TIP3    H155783   0.217   1.604   1.389 -0.0577 -0.0586 -0.2889
11456TIP3    H255784   0.268   1.476   1.451  0.5059 -0.1221 -0.8638
11457TIP3   OH255785   4.202   6.430  13.512  0.0168 -0.3476  0.4963
11457TIP3    H155786   4.250   6.481  13.447 -1.9799  0.8981 -0.0869
11457TIP3    H255787   4.269   6.401  13.574  1.5756  0.8427 -0.5526
11458TIP3   OH255788   1.330   3.513  12.591 -0.6097  0.1967 -0.0407
11458TIP3    H155789   1.281   3.437  12.623  2.0925 -2.3417 -1.4552
11458TIP3    H255790   1.416   3.506  12.634 -0.4108  2.8122  0.1699
11459TIP3   OH255791   0.497   3.316   1.029  0.7801  0.2216 -0.0273
11459TIP3    H155792   0.494   3.334   0.935  1.2729 -1.3599 -0.3875
11459TIP3    H255793   0.534   3.228   1.035  0.3504  0.1178  1.6364
11460TIP3   OH255794   0.985   5.985   1.027 -0.0876  0.1419 -0.1568
11460TIP3    H155795   1.022   5.908   0.984 -2.6869 -0.8191 -0.9022
11460TIP3    H255796   1.012   5.977   1.119  0.5069 -1.1217 -0.4229
11461TIP3   OH255797   2.303   4.958   1.893 -0.0017 -0.6108 -0.1641
11461TIP3    H155798   2.367   4.983   1.826  0.0831 -1.5175 -0.4291
11461TIP3    H255799   2.240   5.030   1.893  0.1359 -0.4757 -1.0330
11462TIP3   OH255800   4.319   3.880   5.031 -0.3143 -0.3975 -0.5120
11462TIP3    H155801   4.385   3.906   5.094 -0.2102 -0.4875 -0.5842
11462TIP3    H255802   4.236   3.890   5.078 -0.4413  1.8827 -1.1143
11463TIP3   OH255803   0.413   0.423   2.443  0.1578 -0.1864 -0.1667
11463TIP3    H155804   0.492   0.407   2.392 -0.3245  1.0322 -1.3430
11463TIP3    H255805   0.424   0.511   2.479 -0.5588 -0.0942 -0.1470
11464TIP3   OH255806   6.443   3.323   1.741  0.7259  0.6621 -0.1171
11464TIP3    H155807   6.402   3.382   1.678  0.4416 -0.2093 -0.7785
11464TIP3    H255808   6.473   3.380   1.812 -0.5702  1.4595 -0.1774
11465TIP3   OH255809   4.769   4.097  16.149 -0.0011 -0.9658 -0.6366
11465TIP3    H155810   4.774   4.012  16.193 -1.4866 -0.7987 -0.0759
11465TIP3    H255811   4.694   4.140  16.190  0.5386  0.4951 -1.1369
11466TIP3   OH255812   4.580   6.040  17.254  0.3459  0.1471 -0.0078
11466TIP3    H155813   4.549   6.049  17.344 -0.4913 -2.4486  0.0480
11466TIP3    H255814   4.503   6.057  17.200  0.6573  0.9242 -0.2171
11467TIP3   OH255815   2.082   5.857   6.651 -0.0182 -0.1982 -0.5184
11467TIP3    H155816   2.044   5.779   6.691  1.3813  0.1075  1.5943
11467TIP3    H255817   2.080   5.840   6.557 -1.2695 -2.0285 -0.2074
11468TIP3   OH255818   3.824   1.993  13.342  0.3113 -0.6173  0.0637
11468TIP3    H155819   3.789   1.916  13.297  0.4729 -0.5173 -0.2324
11468TIP3    H255820   3.868   2.043  13.274 -0.3071  0.0419  0.1283
11469TIP3   OH255821   3.568   2.864  14.460 -0.0859  0.1537 -0.1607
11469TIP3    H155822   3.563   2.873  14.365 -0.4591  0.7135 -0.0882
11469TIP3    H255823   3.603   2.947  14.491 -0.3946  0.1447  0.2285
11470TIP3   OH255824   6.547   2.890  12.553 -0.0021  0.0261  0.0601
11470TIP3    H155825   6.543   2.982  12.530 -1.4718  0.0632  0.3845
11470TIP3    H255826   6.460   2.855  12.531 -0.3635 -0.6815  2.2985
11471TIP3   OH255827   0.053   1.571   3.042  0.1774 -0.1485  0.1078
11471TIP3    H155828   0.076   1.663   3.027  2.3530 -0.9040 -1.6932
11471TIP3    H255829  -0.014   1.574   3.111  1.5872  2.6478  1.5046
11472TIP3   OH255830   3.738   0.504   1.878  0.2275 -0.1967  0.2155
11472TIP3    H155831   3.681   0.464   1.944 -1.7369  1.0755 -0.6183
11472TIP3    H255832   3.811   0.443   1.870  1.0468 -0.0532  4.1563
11473TIP3   OH255833   3.368   6.223   5.951 -0.2881  0.1244  0.1455
11473TIP3    H155834   3.289   6.242   6.000 -0.0047 -1.7125  1.3961
11473TIP3    H255835   3.350   6.140   5.906  0.8284 -0.2032  0.2642
11474TIP3   OH255836   6.077   4.774   0.041 -0.5953 -0.2723 -0.1466
11474TIP3    H155837   6.064   4.813  -0.046  2.0088  0.0332 -0.4669
11474TIP3    H255838   6.155   4.719   0.031  1.3248  1.7350  2.5651
11475TIP3   OH255839   4.824   4.117  15.249 -0.2638 -0.0100 -0.1475
11475TIP3    H155840   4.759   4.047  15.262  1.5828 -1.6031  1.1056
11475TIP3    H255841   4.841   4.116  15.155  0.4962 -2.0857 -0.0553
11476TIP3   OH255842   3.746   4.237   1.570 -0.0224  0.7751 -0.2301
11476TIP3    H155843   3.760   4.299   1.642 -0.6541 -0.8402  1.3651
11476TIP3    H255844   3.666   4.191   1.594 -1.0262  1.1085 -2.7083
11477TIP3   OH255845   0.759   2.843  15.642 -0.0992 -0.0036  0.0550
11477TIP3    H155846   0.833   2.862  15.700 -0.1036  1.4382 -0.3846
11477TIP3    H255847   0.708   2.777  15.690  0.7928 -0.0843  0.9325
11478TIP3   OH255848   3.029   3.025   4.956  0.1261 -0.0605 -0.5986
11478TIP3    H155849   2.971   2.952   4.934  1.6923 -0.9299 -2.0904
11478TIP3    H255850   3.030   3.080   4.877 -0.1979  1.0145  0.1220
11479TIP3   OH255851   4.346   3.275   2.302  0.0213 -0.0037 -0.0549
11479TIP3    H155852   4.292   3.353   2.304  0.3298  0.3093 -1.9900
11479TIP3    H255853   4.436   3.308   2.309  0.1313 -0.2148 -0.4453
11480TIP3   OH255854   6.492   0.511   6.170 -0.1917  0.2504  0.0852
11480TIP3    H155855   6.464   0.425   6.200  1.4673 -0.0176  1.0028
11480TIP3    H255856   6.462   0.571   6.238  0.0665  0.1735  0.2687
11481TIP3   OH255857   6.370   0.426  13.341 -0.6307  0.0934  0.0866
11481TIP3    H155858   6.399   0.394  13.426  0.0689  1.5346  0.4285
11481TIP3    H255859   6.450   0.429  13.288 -1.1055 -1.1060 -0.7721
11482TIP3   OH255860   5.177   2.989   3.704  0.0215 -0.4951  0.2041
11482TIP3    H155861   5.142   2.979   3.793  0.3999 -0.1976  0.3871
11482TIP3    H255862   5.171   2.901   3.667  0.7935 -0.8504  0.8731
11483TIP3   OH255863   4.392   2.527   1.468 -0.2877  0.0519 -0.2408
11483TIP3    H155864   4.370   2.461   1.534  1.7071 -0.9141 -0.4692
11483TIP3    H255865   4.307   2.558   1.437 -1.2970 -1.7546  0.5254
11484TIP3   OH255866   5.945   0.010   0.630 -0.1718  0.7175  0.7646
11484TIP3    H155867   6.027  -0.004   0.581 -0.6325  1.1905 -0.1834
11484TIP3    H255868   5.902   0.082   0.583 -1.1680  0.4204  1.2078
11485TIP3   OH255869   4.532   5.904   5.729 -0.3604  0.0260 -0.1889
11485TIP3    H155870   4.591   5.904   5.653 -2.5638 -0.3962 -2.0264
11485TIP3    H255871   4.478   5.982   5.716 -0.1256  0.5175  1.5656
11486TIP3   OH255872   2.840   0.208  11.368  0.7027  0.4052  0.2074
11486TIP3    H155873   2.842   0.155  11.289 -0.1824 -0.0316  0.4606
11486TIP3    H255874   2.810   0.294  11.339  1.8847  0.7040 -0.1626
11487TIP3   OH255875   0.730   3.036   1.003  0.3739  0.4662  0.1575
11487TIP3    H155876   0.656   3.030   0.944  0.1573  1.4701  0.3142
11487TIP3    H255877   0.692   3.036   1.091  0.5668  0.7708  0.2447
11488TIP3   OH255878   0.631   5.213  10.526 -0.0462  0.0798 -0.0431
11488TIP3    H155879   0.714   5.260  10.520  0.9577 -1.1669  2.5927
11488TIP3    H255880   0.566   5.275  10.493  1.7813  1.4369 -1.2808
11489TIP3   OH255881   2.280   6.130  12.899  0.2416  0.7308 -0.1953
11489TIP3    H155882   2.188   6.116  12.874  0.5903 -0.7720 -0.7297
11489TIP3    H255883   2.309   6.202  12.843 -0.5017  0.9646 -0.2961
11490TIP3   OH255884   2.915   5.452   1.811  0.2826  0.3079 -0.2738
11490TIP3    H155885   2.974   5.448   1.887  0.6467 -2.9147 -0.5760
11490TIP3    H255886   2.831   5.420   1.845 -0.6958  2.5425 -0.4232
11491TIP3   OH255887   2.115   3.843  11.982 -0.7211 -0.1885 -0.0125
11491TIP3    H155888   2.160   3.895  11.915  1.0484 -2.2604 -0.5410
11491TIP3    H255889   2.160   3.864  12.063 -2.0195  1.3300  0.3787
11492TIP3   OH255890   0.676   4.083   5.441  0.1422 -0.3888 -0.0201
11492TIP3    H155891   0.646   4.043   5.523  0.2798 -0.6614 -0.1032
11492TIP3    H255892   0.701   4.172   5.466  2.9551 -1.3085  0.8593
11493TIP3   OH255893   2.472   6.744   1.616 -0.5456  0.0718 -0.4343
11493TIP3    H155894   2.405   6.686   1.652 -0.2683  1.7524  3.3281
11493TIP3    H255895   2.555   6.705   1.644 -0.2997  1.3688  0.7671
11494TIP3   OH255896   5.430   0.502  15.454  0.2705 -0.0487  0.5820
11494TIP3    H155897   5.501   0.498  15.519  0.3708 -2.0655  0.4159
11494TIP3    H255898   5.474   0.487  15.370 -0.0205  1.3519  0.1598
11495TIP3   OH255899   0.871   2.759   1.843 -0.2374 -0.0936 -0.1157
11495TIP3    H155900   0.872   2.854   1.830 -2.5870 -0.0851 -0.6898
11495TIP3    H255901   0.813   2.746   1.918  1.6024 -1.0187  1.2243
11496TIP3   OH255902   3.801   3.154  16.512  0.4992 -0.2017 -0.0705
11496TIP3    H155903   3.762   3.078  16.470 -1.5020  0.5697  0.2737
11496TIP3    H255904   3.780   3.227  16.453  2.8374  0.0572 -0.6644
11497TIP3   OH255905   0.969   4.059   6.205  0.0729 -0.1109 -0.2534
11497TIP3    H155906   1.000   3.970   6.221 -0.9655 -0.3375  0.5931
11497TIP3    H255907   0.874   4.051   6.200  0.0560  0.6933 -1.9502
11498TIP3   OH255908   6.405   4.730  10.836  0.0122  0.0556  0.5175
11498TIP3    H155909   6.342   4.802  10.834 -0.6869 -0.5424  0.6912
11498TIP3    H255910   6.379   4.673  10.763  0.6296  0.0284  0.3089
11499TIP3   OH255911   3.531   0.375  10.440  0.1777 -0.4129 -0.1188
11499TIP3    H155912   3.456   0.317  10.451 -0.1649  0.1457  0.5562
11499TIP3    H255913   3.582   0.362  10.520 -0.1264  0.5387  0.2376
11500TIP3   OH255914   6.033   2.825  16.909  0.3433  0.5727  0.5611
11500TIP3    H155915   6.025   2.782  16.824 -0.2477 -0.2884  1.0311
11500TIP3    H255916   5.945   2.859  16.927  0.7720  1.8823  0.2596
11501TIP3   OH255917   1.809   5.914   1.000 -0.2368  0.1010  0.1764
11501TIP3    H155918   1.875   5.966   0.954  0.2475 -1.0638 -0.4810
11501TIP3    H255919   1.788   5.966   1.078  0.8425  0.8835 -0.0267
11502TIP3   OH255920   0.307   2.404  13.676  0.7508 -0.7004 -0.2388
11502TIP3    H155921   0.339   2.325  13.720 -0.2947 -0.8597  0.2550
11502TIP3    H255922   0.224   2.424  13.719  1.2902  1.0396  0.0704
11503TIP3   OH255923   0.641   5.178  12.279  0.1446  0.1711  0.2772
11503TIP3    H155924   0.668   5.143  12.364 -1.4840 -0.9819  0.3542
11503TIP3    H255925   0.661   5.109  12.216  2.1044  1.3262 -0.4647
11504TIP3   OH255926   2.771   4.186  15.860  0.6010 -0.0873  0.4008
11504TIP3    H155927   2.690   4.230  15.832  0.2793 -0.5716  0.5413
11504TIP3    H255928   2.803   4.143  15.781  1.2297  0.8614  0.1259
11505TIP3   OH255929   5.503   2.823  16.723  0.0491 -0.0386  0.2893
11505TIP3    H155930   5.542   2.761  16.660  0.7259 -1.1465  1.7422
11505TIP3    H255931   5.408   2.814  16.709  0.1703 -0.6894 -0.1797
11506TIP3   OH255932   3.972   2.246  15.635 -0.3058 -0.4330 -0.2768
11506TIP3    H155933   3.934   2.302  15.702  0.8975  0.0841  0.0012
11506TIP3    H255934   4.046   2.204  15.679  0.1137 -0.5691 -1.0990
11507TIP3   OH255935   6.371   3.489   0.808  0.0840  0.2417  0.1285
11507TIP3    H155936   6.392   3.555   0.873  0.4189 -0.9282  1.2537
11507TIP3    H255937   6.455   3.450   0.785 -0.0007  0.7847 -1.1924
11508TIP3   OH255938   5.541   1.393  15.274 -0.2027 -0.5939 -0.3110
11508TIP3    H155939   5.543   1.299  15.259  0.0461 -0.5490 -0.5587
11508TIP3    H255940   5.482   1.427  15.206 -0.0192 -0.5307 -0.4392
11509TIP3   OH255941   3.120   2.255   2.675  0.1447  0.3764  0.7548
11509TIP3    H155942   3.098   2.214   2.591 -2.8573 -0.5277  1.8560
11509TIP3    H255943   3.213   2.236   2.687  0.5950  0.2622 -2.1780
11510TIP3   OH255944   4.634   0.314   1.323 -0.1398 -0.0318  0.2197
11510TIP3    H155945   4.729   0.327   1.313 -0.4192  0.8375 -1.8276
11510TIP3    H255946   4.624   0.218   1.328  0.7486 -0.2544 -1.4584
11511TIP3   OH255947   1.686   1.023  14.292 -0.1614 -0.2630 -0.1828
11511TIP3    H155948   1.660   0.966  14.365  0.0840 -1.5422 -1.0644
11511TIP3    H255949   1.662   0.974  14.213  2.2572 -0.2629 -1.0003
11512TIP3   OH255950   3.380   4.901  17.009 -0.1939  0.4865 -0.3117
11512TIP3    H155951   3.414   4.949  17.084 -1.9590  0.6023  0.4729
11512TIP3    H255952   3.309   4.956  16.976 -0.1909 -0.1086 -1.3509
11513TIP3   OH255953   1.047   2.165  13.104 -0.1448 -0.0650  0.6861
11513TIP3    H155954   1.048   2.246  13.156 -1.4803  1.8689 -2.0321
11513TIP3    H255955   1.088   2.189  13.021 -0.4824 -2.2371 -0.1750
11514TIP3   OH255956   6.602   5.336  11.299 -0.1945 -0.1672  0.7087
11514TIP3    H155957   6.623   5.244  11.282  0.4169 -0.0661  0.8836
11514TIP3    H255958   6.666   5.385  11.248 -0.9153  0.1781  0.1116
11515TIP3   OH255959   0.420   1.421   0.516  0.0099  0.0515 -0.2080
11515TIP3    H155960   0.438   1.512   0.494 -2.8461  0.6605 -0.3542
11515TIP3    H255961   0.429   1.374   0.434  4.8120 -0.5645  0.3944
11516TIP3   OH255962   3.332   1.491  11.876  0.5768  0.7787  0.0171
11516TIP3    H155963   3.243   1.504  11.842  0.5608 -0.9000 -0.7257
11516TIP3    H255964   3.325   1.412  11.929  1.5191  0.9622  0.4212
11517TIP3   OH255965   0.522   6.274  13.346 -0.3066 -0.1853  0.9599
11517TIP3    H155966   0.587   6.331  13.305 -0.6564 -1.0977 -0.9910
11517TIP3    H255967   0.574   6.206  13.390  0.2632 -2.4200 -2.7342
11518TIP3   OH255968   2.338   3.626   2.108  0.0866  0.0169  0.3765
11518TIP3    H155969   2.285   3.699   2.075 -0.1548 -0.6961 -0.8449
11518TIP3    H255970   2.381   3.662   2.186 -2.9248  0.3593  2.0515
11519TIP3   OH255971   3.302   1.644  12.682 -0.3669 -0.0278 -0.1117
11519TIP3    H155972   3.254   1.719  12.717  1.2084 -0.4178  3.2688
11519TIP3    H255973   3.240   1.571  12.688 -1.4056  0.6426 -1.9929
11520TIP3   OH255974   6.761   1.825   1.033  0.0219 -0.3431 -0.1923
11520TIP3    H155975   6.811   1.759   0.984 -0.4574  1.4062 -3.2840
11520TIP3    H255976   6.822   1.897   1.046 -0.4696  0.0643 -0.0960
11521TIP3   OH255977   4.410   4.335  14.562  0.5744 -0.1391 -0.2945
11521TIP3    H155978   4.499   4.312  14.588  0.2023 -0.7154  0.4950
11521TIP3    H255979   4.354   4.286  14.622 -0.2769  0.2316 -0.7740
11522TIP3   OH255980   2.907   3.425  14.059  0.0602  0.0155 -0.1128
11522TIP3    H155981   2.913   3.469  13.974  0.2320 -1.3826 -0.8514
11522TIP3    H255982   2.814   3.407  14.070  0.3573 -4.0594 -2.3509
11523TIP3   OH255983   1.160   5.485   0.585  0.4260  0.0128  0.2354
11523TIP3    H155984   1.239   5.538   0.593  0.1564  0.1538  2.9666
11523TIP3    H255985   1.141   5.484   0.491  2.0227  2.3782 -0.1982
11524TIP3   OH255986   2.482   1.827  12.165  0.6287 -0.6606 -0.2679
11524TIP3    H155987   2.560   1.801  12.116  0.9729  1.5693 -1.0251
11524TIP3    H255988   2.430   1.747  12.172  2.8707 -2.1828  0.1121
11525TIP3   OH255989   0.716   5.177   5.456 -0.0480 -0.0020  0.2510
11525TIP3    H155990   0.713   5.272   5.444 -2.1554  0.0912  1.0631
11525TIP3    H255991   0.770   5.145   5.383 -1.2764  1.6356 -1.4714
11526TIP3   OH255992   5.089   2.127  12.502  0.0683 -0.2928  0.2878
11526TIP3    H155993   5.112   2.061  12.566  0.1490 -1.0176 -0.4727
11526TIP3    H255994   5.123   2.093  12.419 -1.2894 -0.0665 -0.3895
11527TIP3   OH255995   4.196   6.163  14.805  0.4407  0.0961  0.2777
11527TIP3    H155996   4.128   6.175  14.738  1.7239  1.2813 -0.8697
11527TIP3    H255997   4.241   6.083  14.779 -0.7879 -1.0120  1.3559
11528TIP3   OH255998   1.418   6.155  14.932  0.5928 -1.0103  0.3174
11528TIP3    H155999   1.353   6.196  14.875  0.5762 -2.0769 -0.4456
11528TIP3    H256000   1.386   6.066  14.945  1.5438 -1.3308  0.5076
11529TIP3   OH256001   2.244   0.819   3.933 -1.1338 -0.2853  0.1358
11529TIP3    H156002   2.173   0.756   3.947 -0.3195 -0.7668  2.6132
11529TIP3    H256003   2.236   0.880   4.006 -0.2214  0.8646 -0.7003
11530TIP3   OH256004   2.666   1.927   0.472  0.0857 -0.0620 -0.3507
11530TIP3    H156005   2.714   1.846   0.459 -0.1524 -0.2998  0.2581
11530TIP3    H256006   2.705   1.988   0.408  1.1341 -0.2709  0.0769
11531TIP3   OH256007   6.592   1.257   4.731 -0.0249  0.8287 -0.1552
11531TIP3    H156008   6.590   1.289   4.640 -2.8344  2.4682  0.3709
11531TIP3    H256009   6.637   1.327   4.779 -0.7926  1.1883  0.0621
11532TIP3   OH256010   3.600   4.075   5.959 -0.5305 -0.1021  0.4990
11532TIP3    H156011   3.662   4.027   5.904 -1.0084  0.7515 -0.8174
11532TIP3    H256012   3.641   4.074   6.046  0.4928 -1.0273  0.0370
11533TIP3   OH256013   1.232   4.539   3.313 -0.0821 -0.0783  0.5931
11533TIP3    H156014   1.217   4.547   3.407 -1.4028  0.3757  0.3554
11533TIP3    H256015   1.145   4.538   3.274  0.4555  0.5504 -0.6957
11534TIP3   OH256016   2.996   2.652   4.097  0.1919  0.5174 -0.4831
11534TIP3    H156017   2.958   2.564   4.100  1.7522 -0.1755  2.3764
11534TIP3    H256018   3.082   2.640   4.056  0.5872  0.6007  0.3037
11535TIP3   OH256019   0.496   0.754   0.930 -0.3052  0.0923 -0.0148
11535TIP3    H156020   0.524   0.835   0.974  2.7010 -0.5077 -0.5889
11535TIP3    H256021   0.573   0.698   0.933 -2.5266 -3.2101  1.1879
11536TIP3   OH256022   5.644   1.194   5.260  0.1177 -0.1590  0.1032
11536TIP3    H156023   5.615   1.116   5.213  0.0362  0.7264 -1.4034
11536TIP3    H256024   5.681   1.162   5.342  1.9079 -1.9719 -1.3138
11537TIP3   OH256025   4.742   3.345  11.406 -0.0383  0.2407  0.7400
11537TIP3    H156026   4.751   3.250  11.419 -1.3611  0.1667  1.3468
11537TIP3    H256027   4.820   3.382  11.448 -0.3471 -0.4948  2.0176
11538TIP3   OH256028   2.093   1.113   1.781 -0.4071  0.6619 -0.4313
11538TIP3    H156029   2.037   1.190   1.783 -2.0818 -0.4230 -2.2406
11538TIP3    H256030   2.049   1.052   1.722  1.4395 -1.2472  0.0210
11539TIP3   OH256031   1.826   5.177  14.784 -0.3504  0.3577  0.6445
11539TIP3    H156032   1.754   5.162  14.723 -1.3208  2.1793  1.2733
11539TIP3    H256033   1.813   5.112  14.853 -1.2648  0.5396  0.6457
11540TIP3   OH256034   5.193   0.969   1.562  0.5062 -0.2672 -0.4665
11540TIP3    H156035   5.238   0.896   1.605  0.7255  0.8709  1.3498
11540TIP3    H256036   5.104   0.937   1.548 -0.6188  0.2888  3.9197
11541TIP3   OH256037   3.609   2.991   0.037  0.2303  0.5726  0.1667
11541TIP3    H156038   3.643   2.906   0.009  1.6790  1.4495 -0.8519
11541TIP3    H256039   3.591   2.980   0.130 -2.2666 -1.6565 -0.4736
11542TIP3   OH256040   3.002   1.770  13.153  0.1033 -0.2103 -0.3108
11542TIP3    H156041   2.998   1.845  13.211 -0.9162  0.3184 -1.0273
11542TIP3    H256042   2.912   1.758  13.123  0.2731 -1.6283 -0.3274
11543TIP3   OH256043   1.657   2.299  16.014  0.1065  0.3397 -0.5369
11543TIP3    H156044   1.727   2.353  16.051 -0.1716  0.3563 -0.0233
11543TIP3    H256045   1.588   2.300  16.081  1.1392 -2.8270  0.8025
11544TIP3   OH256046   2.605   6.078   4.793 -0.2286 -0.5665 -0.2753
11544TIP3    H156047   2.536   6.098   4.730 -0.3470  0.1396  0.0707
11544TIP3    H256048   2.641   6.163   4.818  1.1183 -0.9468 -0.8199
11545TIP3   OH256049   5.637   3.196  16.529  0.4318  0.4011  0.1952
11545TIP3    H156050   5.608   3.287  16.540  0.3237  0.2641  1.1769
11545TIP3    H256051   5.643   3.162  16.619 -1.7212 -1.2675 -0.1962
11546TIP3   OH256052   6.314   1.077  14.729  0.3183  0.1896 -0.0526
11546TIP3    H156053   6.254   1.003  14.721 -1.4866  1.7093 -1.4243
11546TIP3    H256054   6.328   1.086  14.823  1.7251 -2.6857  0.1194
11547TIP3   OH256055   5.396   3.320  16.951  0.9073  0.0443  0.3844
11547TIP3    H156056   5.389   3.390  16.886 -0.7472  0.5426  1.0596
11547TIP3    H256057   5.488   3.294  16.947  1.2362  1.2416 -0.9202
11548TIP3   OH256058   4.747   4.276   4.620  0.1486 -0.2017  0.4371
11548TIP3    H156059   4.731   4.272   4.526 -0.1210 -0.3867  0.4904
11548TIP3    H256060   4.757   4.370   4.639 -0.5508 -0.1067  0.3480
11549TIP3   OH256061   2.133   1.718  15.299 -0.7637 -0.1827  0.8698
11549TIP3    H156062   2.114   1.637  15.346  2.3944 -0.8603  1.2540
11549TIP3    H256063   2.131   1.694  15.207  0.5479 -0.8907  0.9917
11550TIP3   OH256064   2.201   2.185  15.846 -0.0385 -0.0558 -0.1754
11550TIP3    H156065   2.131   2.163  15.908  2.0011  0.0846  2.3614
11550TIP3    H256066   2.168   2.263  15.800 -1.5115  0.0662  1.0037
11551TIP3   OH256067   2.137   5.306  14.468  0.0296  0.0706  0.1166
11551TIP3    H156068   2.061   5.315  14.525  0.2033  0.6296  0.2650
11551TIP3    H256069   2.154   5.212  14.464 -0.5461 -0.0392  0.2433
11552TIP3   OH256070   4.938   5.429  16.315 -0.2650  0.3887  0.0947
11552TIP3    H156071   5.009   5.391  16.367 -0.5092  0.1053  0.2227
11552TIP3    H256072   4.968   5.422  16.224 -0.6456 -0.8610  0.0469
11553TIP3   OH256073   6.454   1.366   0.877  0.3217  0.3267  0.2324
11553TIP3    H156074   6.453   1.270   0.879  0.7349  0.3199  0.4455
11553TIP3    H256075   6.514   1.390   0.948  0.2769  0.7402  0.1328
11554TIP3   OH256076   5.052   1.161   3.553 -0.0881 -0.4865 -0.5456
11554TIP3    H156077   5.088   1.248   3.534 -2.6125  1.0610  1.0651
11554TIP3    H256078   5.026   1.127   3.467 -0.5054  1.0674 -1.0786
11555TIP3   OH256079   5.811   0.650  17.226  0.0219  0.2649  0.9466
11555TIP3    H156080   5.846   0.591  17.292 -1.0765 -0.6053  0.7945
11555TIP3    H256081   5.730   0.607  17.197 -0.8964  1.9193  0.9387
11556TIP3   OH256082   5.803   2.635   2.927  0.1097  0.1887 -0.2560
11556TIP3    H156083   5.876   2.671   2.878  0.4988  1.1521  0.9758
11556TIP3    H256084   5.812   2.540   2.918 -0.2880  0.3135 -2.6425
11557TIP3   OH256085   2.385   2.985   3.661  0.0301 -0.4720  0.0522
11557TIP3    H156086   2.387   2.947   3.574 -0.0187 -1.0169  0.2827
11557TIP3    H256087   2.403   2.912   3.720  0.5639 -0.0169  0.4730
11558TIP3   OH256088   1.225   2.284  14.559  0.4462  0.1242  0.3455
11558TIP3    H156089   1.168   2.250  14.490  1.3875  0.0344 -0.3967
11558TIP3    H256090   1.310   2.243  14.544  0.7829  0.4401  1.2950
11559TIP3   OH256091   4.528   2.468  12.942 -0.1259 -0.1517 -0.2177
11559TIP3    H156092   4.441   2.503  12.924  0.4017 -0.3454 -3.8523
11559TIP3    H256093   4.516   2.410  13.017 -3.1485 -0.2515 -0.6811
11560TIP3   OH256094   3.987   0.084   4.355  0.2547 -0.1011 -0.1515
11560TIP3    H156095   4.006   0.123   4.440  0.2945 -0.5144  0.0313
11560TIP3    H256096   3.959  -0.006   4.375 -1.3556  0.3003 -0.4460
11561TIP3   OH256097   1.085   1.222   6.190 -0.0105  0.2009  0.1789
11561TIP3    H156098   1.037   1.294   6.231 -0.7006 -0.2467  0.1708
11561TIP3    H256099   1.019   1.155   6.174  0.7810 -0.8530  1.1188
11562TIP3   OH256100   2.515   4.622  17.299  0.4130 -0.4498  0.2746
11562TIP3    H156101   2.464   4.634  17.379  0.2077  0.6469 -0.0062
11562TIP3    H256102   2.588   4.682  17.308  1.0401 -1.1776  0.1513
11563TIP3   OH256103   4.014   6.732  14.345 -0.1521 -0.0652 -0.5138
11563TIP3    H156104   3.927   6.695  14.360 -1.0278  1.5173 -1.3954
11563TIP3    H256105   4.009   6.820  14.380  0.1921  0.9887 -2.8951
11564TIP3   OH256106   2.206   6.144   1.334 -0.3151 -0.3523 -0.1091
11564TIP3    H156107   2.178   6.235   1.348 -2.7130 -0.8409 -1.1991
11564TIP3    H256108   2.241   6.144   1.245 -1.5087 -0.7110 -0.5979
11565TIP3   OH256109   5.297   0.018   4.647 -0.1510  0.2691  0.0505
11565TIP3    H156110   5.370   0.034   4.588  0.0147 -0.1807  0.1302
11565TIP3    H256111   5.223   0.066   4.609 -0.7893 -2.1415 -2.0102
11566TIP3   OH256112   4.786   3.821  12.811  0.9273 -0.3649  0.2277
11566TIP3    H156113   4.758   3.816  12.720 -1.7387 -0.0109  0.9531
11566TIP3    H256114   4.798   3.730  12.838  1.6751 -0.4713 -0.4346
11567TIP3   OH256115   3.593   0.515   0.043  0.1037 -0.3660 -0.7748
11567TIP3    H156116   3.635   0.589   0.087 -0.3103 -0.7194  0.2334
11567TIP3    H256117   3.650   0.497  -0.032  0.0453  1.1553 -1.2088
11568TIP3   OH256118   1.449   4.542  11.578  0.0402  0.1562  0.0345
11568TIP3    H156119   1.438   4.457  11.620 -0.5418 -0.4270 -1.2684
11568TIP3    H256120   1.362   4.564  11.545  0.1283  1.3800  0.5438
11569TIP3   OH256121   3.350   0.712   6.180 -0.2154  0.0678  0.0412
11569TIP3    H156122   3.311   0.625   6.189  3.8027 -1.7869  1.6629
11569TIP3    H256123   3.341   0.751   6.267 -0.6833  0.6762 -0.2762
11570TIP3   OH256124   0.963   2.150  13.870  0.0071 -0.3374  0.4086
11570TIP3    H156125   0.930   2.102  13.793  0.7656  0.9440 -0.7492
11570TIP3    H256126   0.918   2.109  13.944 -0.4001 -1.9172 -0.6605
11571TIP3   OH256127   4.890   6.280  15.977  0.3931 -0.2323  0.3823
11571TIP3    H156128   4.830   6.263  15.905  0.8072 -1.6745  0.3491
11571TIP3    H256129   4.842   6.339  16.035 -0.8327 -0.8978  0.0771
11572TIP3   OH256130   5.780   1.957  14.409  0.4603 -0.0951 -0.5051
11572TIP3    H156131   5.822   2.025  14.462 -0.3195  0.2333 -0.2819
11572TIP3    H256132   5.774   1.881  14.467 -0.8095  0.4078  0.0695
11573TIP3   OH256133   1.214   3.066  15.701 -0.0162 -0.0980 -0.6870
11573TIP3    H156134   1.145   3.132  15.710  0.9849  1.2673 -2.4306
11573TIP3    H256135   1.292   3.106  15.737  0.5366 -0.4494 -1.4595
11574TIP3   OH256136   6.745   3.077  10.987 -0.2309  0.1742  0.6082
11574TIP3    H156137   6.806   3.045  10.921  0.0618  2.1289 -0.1121
11574TIP3    H256138   6.800   3.093  11.064  0.2385  1.9525 -0.0455
11575TIP3   OH256139   4.906   2.262  16.834 -0.0163  0.3984 -0.1416
11575TIP3    H156140   4.864   2.315  16.766  3.5614  3.2056 -0.5006
11575TIP3    H256141   4.927   2.180  16.791  0.4993  1.4028 -1.9218
11576TIP3   OH256142   1.872   3.629   5.701 -0.1297  0.4586 -0.2761
11576TIP3    H156143   1.915   3.712   5.720  3.0327 -1.7100  3.3348
11576TIP3    H256144   1.930   3.585   5.639 -1.5684  0.6289 -1.8372
11577TIP3   OH256145   3.962   2.380   0.270  0.0551 -0.2641 -0.2943
11577TIP3    H156146   4.041   2.327   0.261 -0.7978 -1.4867 -0.8962
11577TIP3    H256147   3.890   2.320   0.246 -1.0160  0.9159 -0.1333
11578TIP3   OH256148   6.584   2.969   1.117 -0.2987 -0.2441  0.1934
11578TIP3    H156149   6.604   2.892   1.064  0.6374 -0.9271  1.4773
11578TIP3    H256150   6.524   2.937   1.184 -2.8147  0.9635 -1.3482
11579TIP3   OH256151   4.959   3.123  12.190  0.4466  0.2804  0.4668
11579TIP3    H156152   5.039   3.110  12.140  0.2134 -1.2823  0.4607
11579TIP3    H256153   4.985   3.112  12.281  0.7310  2.4377  0.7029
11580TIP3   OH256154   6.386   3.307   1.252 -0.4533  0.3463 -0.5337
11580TIP3    H156155   6.303   3.270   1.283 -0.6978  0.7766 -0.6624
11580TIP3    H256156   6.448   3.291   1.323  0.6118 -4.1210 -2.1133
11581TIP3   OH256157   4.405   0.182   1.030  0.1989 -0.2809  0.4446
11581TIP3    H156158   4.370   0.110   0.978  0.9718 -0.3624  0.0163
11581TIP3    H256159   4.350   0.184   1.109  0.4413 -1.6204  0.6743
11582TIP3   OH256160   4.052   1.857  14.072  0.3946  0.0190  0.2826
11582TIP3    H156161   4.087   1.825  13.989  0.3245 -0.1631  0.3227
11582TIP3    H256162   3.969   1.898  14.049  0.5555  0.3018  0.2103
11583TIP3   OH256163   2.565   5.310  13.675 -0.9347 -0.2528 -0.2008
11583TIP3    H156164   2.654   5.284  13.652 -0.9777 -0.1705 -0.4728
11583TIP3    H256165   2.513   5.229  13.665 -0.8846 -0.3103 -0.0016
11584TIP3   OH256166   5.939   6.497  11.067  0.2896  0.2499 -0.1016
11584TIP3    H156167   5.889   6.421  11.097  0.8120 -0.4696 -0.9702
11584TIP3    H256168   5.894   6.526  10.988  0.8428  0.0031 -0.5190
11585TIP3   OH256169   0.011   4.618   0.592 -0.0243  0.6069 -0.3057
11585TIP3    H156170  -0.056   4.574   0.643 -0.6033  1.4737 -0.2886
11585TIP3    H256171   0.088   4.620   0.648  0.4178 -1.4381 -0.7584
11586TIP3   OH256172   2.465   2.259  13.842  0.2601 -0.0375 -0.4317
11586TIP3    H156173   2.430   2.266  13.931  0.9817  0.9470 -0.2126
11586TIP3    H256174   2.503   2.171  13.838  1.4052  0.3798  0.6817
11587TIP3   OH256175   6.741   2.070  15.950 -0.6316  0.1382  0.0569
11587TIP3    H156176   6.743   2.159  15.985  0.2420  0.0440  0.2635
11587TIP3    H256177   6.827   2.034  15.970 -1.3453 -1.1532  0.9996
11588TIP3   OH256178   2.795   1.464   3.089  0.6173 -0.2808  0.2019
11588TIP3    H156179   2.837   1.485   3.006  3.7635 -1.0983  1.4521
11588TIP3    H256180   2.793   1.368   3.091  2.0578 -0.3215  1.6745
11589TIP3   OH256181   1.890   1.149   6.257  0.7896  0.1037 -1.0715
11589TIP3    H156182   1.843   1.066   6.251 -1.3788  1.2089 -0.3582
11589TIP3    H256183   1.968   1.128   6.308 -0.5592 -1.1902  0.5977
11590TIP3   OH256184   6.482   6.665  15.434  0.0986 -0.5883 -0.2880
11590TIP3    H156185   6.568   6.630  15.412  0.6983 -0.4746  1.6240
11590TIP3    H256186   6.448   6.605  15.499 -1.1645 -0.4695 -0.8217
11591TIP3   OH256187   0.919   6.084  11.875 -0.0510 -0.0859 -0.5361
11591TIP3    H156188   0.930   6.164  11.823 -1.0854  0.4280 -0.0032
11591TIP3    H256189   0.866   6.112  11.950 -1.2188 -1.4677 -0.8190
11592TIP3   OH256190   4.507   2.497   6.477 -0.4594  0.0229  0.3581
11592TIP3    H156191   4.585   2.450   6.449 -0.0533  1.1843 -0.4967
11592TIP3    H256192   4.529   2.532   6.564 -1.0492 -1.9726  1.3785
11593TIP3   OH256193   6.454   2.265  14.921  0.4929  1.1469 -0.1445
11593TIP3    H156194   6.443   2.359  14.907 -2.1594  0.6740 -1.8243
11593TIP3    H256195   6.382   2.241  14.980  1.6907  0.2660  1.0293
11594TIP3   OH256196   2.425   6.508   0.603  0.5509  0.4582  0.5164
11594TIP3    H156197   2.405   6.473   0.690  1.1781  0.1925  0.5621
11594TIP3    H256198   2.362   6.466   0.545  0.4296  0.2776  0.7766
11595TIP3   OH256199   4.739   4.887   4.376 -0.2526 -0.6055  0.5184
11595TIP3    H156200   4.752   4.928   4.290  0.0745 -1.8017 -0.0283
11595TIP3    H256201   4.817   4.832   4.388 -0.6280 -0.9924  1.2617
11596TIP3   OH256202   4.374   1.244  12.357 -0.2386 -0.0980  0.8400
11596TIP3    H156203   4.317   1.231  12.433 -0.5981 -1.6094  0.3447
11596TIP3    H256204   4.405   1.156  12.335 -0.7327  0.2001 -1.2181
11597TIP3   OH256205   2.301   1.272   2.649 -0.3079  0.4766  0.5667
11597TIP3    H156206   2.329   1.230   2.568 -2.6027  1.3943 -0.8226
11597TIP3    H256207   2.220   1.226   2.673 -1.1893  2.0308  0.7148
11598TIP3   OH256208   2.604   2.184  15.126  0.2454  0.2486 -0.1768
11598TIP3    H156209   2.629   2.273  15.152  0.1564  0.7187 -1.6132
11598TIP3    H256210   2.536   2.159  15.187  0.6397  0.9643  0.5734
11599TIP3   OH256211   5.018   4.770   5.464  0.6618  0.6345  0.0608
11599TIP3    H156212   5.055   4.846   5.509  0.3682  1.9794 -1.8692
11599TIP3    H256213   4.981   4.805   5.384  1.9379 -1.7794 -1.7093
11600TIP3   OH256214   5.783   6.150  15.555 -0.5167 -0.1077  0.1212
11600TIP3    H156215   5.852   6.108  15.607 -1.4726 -1.8069  0.1219
11600TIP3    H256216   5.703   6.107  15.585 -1.4230  0.9223 -0.7712
11601TIP3   OH256217   0.304   4.787  11.793 -0.2581 -0.3874 -0.1044
11601TIP3    H156218   0.281   4.814  11.881 -1.5303 -0.1598 -0.4924
11601TIP3    H256219   0.268   4.698  11.785 -2.1278  0.4278 -1.1267
11602TIP3   OH256220   2.153   3.125   3.335  0.0140 -0.8213  0.1118
11602TIP3    H156221   2.199   3.176   3.269  0.7022 -1.2250  0.2608
11602TIP3    H256222   2.062   3.124   3.307 -0.0062  0.4374  0.0842
11603TIP3   OH256223   5.087   6.274  17.126 -0.7973  0.2058  0.2259
11603TIP3    H156224   5.099   6.346  17.065  0.4187 -0.5750 -0.4954
11603TIP3    H256225   5.100   6.313  17.213 -0.3986  0.9012 -0.1425
11604TIP3   OH256226   4.321   1.543  15.345 -0.4175 -0.1450  0.3290
11604TIP3    H156227   4.408   1.578  15.325  0.1453 -1.4298  0.4074
11604TIP3    H256228   4.301   1.578  15.432 -1.5349  2.9661 -1.0493
11605TIP3   OH256229   5.109   0.551  11.438 -0.4118  0.3205  0.4528
11605TIP3    H156230   5.063   0.505  11.508 -0.0274  0.0998  0.5653
11605TIP3    H256231   5.183   0.593  11.481 -0.5130  0.6832  0.2754
11606TIP3   OH256232   4.491   0.224   3.202  0.1338 -0.5666  0.2162
11606TIP3    H156233   4.411   0.216   3.253 -0.2689 -1.1269 -0.4822
11606TIP3    H256234   4.560   0.189   3.259  0.6840  3.5685  2.4724
11607TIP3   OH256235   2.675   4.633   1.170 -0.2127  0.3513  0.2401
11607TIP3    H156236   2.659   4.588   1.254  1.2994 -2.1917 -0.7338
11607TIP3    H256237   2.629   4.716   1.179  1.0510  0.8422  4.1622
11608TIP3   OH256238   2.621   0.794   0.211  0.5224 -0.1447 -0.1431
11608TIP3    H156239   2.636   0.885   0.185  1.0497 -0.1973 -0.0309
11608TIP3    H256240   2.643   0.791   0.304  0.1849 -0.3148 -0.0674
11609TIP3   OH256241   4.434   6.567   1.190 -0.6993 -0.9170  0.5376
11609TIP3    H156242   4.371   6.579   1.119 -1.2064  1.4242  1.2910
11609TIP3    H256243   4.520   6.573   1.147 -0.9371  2.6120  0.2274
11610TIP3   OH256244   5.557   1.875   4.039 -0.3393  0.3125  0.6519
11610TIP3    H156245   5.623   1.945   4.041 -0.6595  0.6816 -0.4596
11610TIP3    H256246   5.479   1.917   4.002  0.2162 -1.1802 -2.5360
11611TIP3   OH256247   1.936   0.718  16.411 -0.0853 -0.1022 -0.1897
11611TIP3    H156248   1.896   0.631  16.422  0.3245 -0.3527 -0.6460
11611TIP3    H256249   1.863   0.779  16.420 -0.7234 -0.5840 -1.7186
11612TIP3   OH256250   3.858   5.136   1.693  0.4015 -0.4026 -0.2069
11612TIP3    H156251   3.874   5.073   1.623  0.8397  0.9073 -1.3510
11612TIP3    H256252   3.766   5.161   1.682  0.9465  1.2201 -1.6209
11613TIP3   OH256253   0.985   5.348   5.549  0.2868  0.0395 -0.5441
11613TIP3    H156254   1.058   5.295   5.581  0.3089  0.4469  0.0848
11613TIP3    H256255   1.027   5.415   5.494  0.3893  0.2977 -0.1515
11614TIP3   OH256256   5.010   2.171  13.717 -0.2109  0.0199 -0.2211
11614TIP3    H156257   4.962   2.092  13.690  1.2314 -0.7809 -0.5684
11614TIP3    H256258   4.984   2.185  13.808 -1.6314  0.0409 -0.6060
11615TIP3   OH256259   6.661   1.778  15.292  0.1101  0.1036  0.4192
11615TIP3    H156260   6.726   1.828  15.241 -0.7235 -0.4686 -1.2472
11615TIP3    H256261   6.580   1.828  15.283  0.2769  0.9232  2.6631
11616TIP3   OH256262   3.997   2.296  11.457  0.1905 -0.3053 -0.3892
11616TIP3    H156263   4.027   2.207  11.437  0.5611 -0.3207  0.2012
11616TIP3    H256264   3.979   2.295  11.551 -1.0186 -0.0958 -0.6009
11617TIP3   OH256265   0.003   2.461  14.120 -0.5036  0.4773  0.2471
11617TIP3    H156266  -0.031   2.492  14.036  1.4006  2.7878  0.2048
11617TIP3    H256267   0.081   2.515  14.135  0.1511 -1.0036  2.7312
11618TIP3   OH256268   3.498   0.541  14.054  0.3472 -0.0756 -0.2876
11618TIP3    H156269   3.473   0.608  13.990 -0.5594 -0.8663 -0.7760
11618TIP3    H256270   3.447   0.563  14.132  0.5092  0.1488 -0.2417
11619TIP3   OH256271   2.600   2.510   5.978 -0.0074  0.6863 -0.5070
11619TIP3    H156272   2.672   2.447   5.985 -0.7480 -0.0187  1.8967
11619TIP3    H256273   2.593   2.547   6.066 -3.3246 -0.1661 -0.2812
11620TIP3   OH256274   1.419   1.112   4.760  0.1102  0.3535  0.4188
11620TIP3    H156275   1.414   1.116   4.856  0.1500  0.1218  0.4301
11620TIP3    H256276   1.328   1.120   4.731  0.0449 -0.0862  0.4939
11621TIP3   OH256277   6.511   6.243  10.766  0.0993  0.4447  0.1115
11621TIP3    H156278   6.568   6.264  10.692  0.4558  1.0271  0.5404
11621TIP3    H256279   6.524   6.316  10.827  0.4341 -0.4391  1.1198
11622TIP3   OH256280   0.273   0.645   1.122  0.7979 -0.0478 -0.1640
11622TIP3    H156281   0.362   0.609   1.126  0.6926 -0.3882 -0.7062
11622TIP3    H256282   0.249   0.637   1.029  0.3629  0.4308 -0.0943
11623TIP3   OH256283   0.369   3.514  13.001 -0.1502  0.1232 -0.1627
11623TIP3    H156284   0.359   3.583  13.066 -2.2947  0.1859 -0.4641
11623TIP3    H256285   0.456   3.527  12.964  0.8538  0.5145  2.1658
11624TIP3   OH256286   4.931   2.861  10.594  0.8208 -0.0920  0.2583
11624TIP3    H156287   5.026   2.875  10.598  0.9604 -1.0464  0.4475
11624TIP3    H256288   4.921   2.768  10.576 -0.0195  0.5360 -3.5362
11625TIP3   OH256289   2.111   0.802  15.124 -0.2061  0.1594  0.4494
11625TIP3    H156290   2.062   0.832  15.200 -0.7879  0.2395  0.0472
11625TIP3    H256291   2.044   0.778  15.060  0.2663  1.8346 -0.7298
11626TIP3   OH256292   3.510   6.314  11.903 -0.3774 -0.3662  0.4671
11626TIP3    H156293   3.529   6.341  11.813 -2.7055  0.0416  0.0337
11626TIP3    H256294   3.566   6.369  11.957  1.2638 -0.8048 -0.7135
11627TIP3   OH256295   5.168   3.866   5.809 -0.3356 -0.1490 -0.0216
11627TIP3    H156296   5.104   3.886   5.741 -1.9540  0.1354  1.4894
11627TIP3    H256297   5.198   3.777   5.789  0.6189  0.5643 -2.0722
11628TIP3   OH256298   2.948   0.115   2.380  0.0218 -0.7610 -0.6323
11628TIP3    H156299   3.030   0.065   2.381  1.3345  1.2449 -1.4009
11628TIP3    H256300   2.975   0.206   2.388 -2.0695  0.0643 -2.0632
11629TIP3   OH256301   2.902   1.200  10.578  0.2575  0.2323  0.5168
11629TIP3    H156302   2.992   1.222  10.557  0.0969  0.7184  0.3076
11629TIP3    H256303   2.869   1.155  10.501 -1.1812  4.4504 -1.6519
11630TIP3   OH256304   2.237   6.307  14.232  0.0491 -0.1743  0.0340
11630TIP3    H156305   2.145   6.323  14.251  0.3347  1.0278  0.4845
11630TIP3    H256306   2.259   6.372  14.164  1.0704  0.9800  1.4082
11631TIP3   OH256307   5.466   1.292   0.903  0.0745  0.9352  0.4751
11631TIP3    H156308   5.557   1.300   0.931  0.2964 -1.2221  0.5470
11631TIP3    H256309   5.470   1.293   0.807  0.2511  0.4743  0.4708
11632TIP3   OH256310   4.671   3.000  17.163  0.7978 -0.1073 -0.0609
11632TIP3    H156311   4.692   3.069  17.226  0.4923 -0.4234  0.3951
11632TIP3    H256312   4.736   2.931  17.181  0.3854 -0.4143  0.2630
11633TIP3   OH256313   1.589   5.742   5.463  0.2036  0.0097  0.2256
11633TIP3    H156314   1.656   5.680   5.492 -0.2709  0.1236  1.6957
11633TIP3    H256315   1.574   5.797   5.540  0.3351  1.7043 -0.9225
11634TIP3   OH256316   0.226   4.565  13.333 -0.6400 -0.3677 -0.0221
11634TIP3    H156317   0.232   4.657  13.360 -1.9194  0.0704 -1.0931
11634TIP3    H256318   0.275   4.517  13.400 -0.7365  0.9942  1.0803
11635TIP3   OH256319   3.777   3.960  16.239 -0.1015 -0.0090 -0.6076
11635TIP3    H156320   3.754   3.924  16.325  0.9516 -0.2854 -0.4188
11635TIP3    H256321   3.814   3.885  16.192 -1.4564 -0.0656 -1.6236
11636TIP3   OH256322   3.623   2.872  12.619 -0.1212 -0.0129 -0.0394
11636TIP3    H156323   3.670   2.954  12.601  0.1435 -0.3036 -0.6967
11636TIP3    H256324   3.545   2.900  12.667 -1.4752  0.9520 -2.6166
11637TIP3   OH256325   3.582   0.833   2.213 -0.1605 -0.4338  0.1466
11637TIP3    H156326   3.488   0.834   2.198 -0.0755 -0.8863 -0.4687
11637TIP3    H256327   3.601   0.742   2.237  0.0222 -0.1884  0.9576
11638TIP3   OH256328   4.928   2.128   3.091 -0.0119 -0.1110 -0.1294
11638TIP3    H156329   4.874   2.158   3.164  1.9012  0.5108  1.1155
11638TIP3    H256330   4.902   2.037   3.077 -2.1107  0.4704 -0.3429
11639TIP3   OH256331   2.460   4.235  11.018  0.5135 -0.2964 -0.2210
11639TIP3    H156332   2.471   4.149  10.977  0.7902 -1.2083  1.6545
11639TIP3    H256333   2.523   4.291  10.974  0.9634 -1.2759 -0.8638
11640TIP3   OH256334   4.707   1.188   3.414 -0.0022  0.3308 -0.3268
11640TIP3    H156335   4.721   1.282   3.410 -0.6645  0.5271  1.3427
11640TIP3    H256336   4.628   1.177   3.467  0.9188 -1.2224  0.8336
11641TIP3   OH256337   3.571   2.312  15.596 -0.1255 -0.6441 -0.3593
11641TIP3    H156338   3.618   2.369  15.656 -1.3719  2.1575 -1.8476
11641TIP3    H256339   3.499   2.275  15.647  0.1945 -0.1822  0.4327
11642TIP3   OH256340   6.130   4.050   2.693 -0.2668  0.0087  0.2098
11642TIP3    H156341   6.082   3.980   2.736  0.8144 -0.1377  1.2287
11642TIP3    H256342   6.065   4.095   2.639 -1.0745 -1.4684 -0.0805
11643TIP3   OH256343   2.466   1.500   3.634 -0.1442  0.1871 -0.6849
11643TIP3    H156344   2.392   1.446   3.659  1.0584 -0.7835  0.9532
11643TIP3    H256345   2.431   1.559   3.567 -2.2654 -0.5064 -0.2618
11644TIP3   OH256346   4.431   4.111   6.035  0.4435  0.1682  0.0944
11644TIP3    H156347   4.471   4.194   6.012  1.1086 -0.1813 -0.0406
11644TIP3    H256348   4.504   4.055   6.062 -0.1493  0.0872  1.6425
11645TIP3   OH256349   4.373   4.763  11.759 -0.3251  0.4855 -0.3449
11645TIP3    H156350   4.291   4.810  11.774 -0.3248  0.0772  1.1589
11645TIP3    H256351   4.347   4.671  11.753  0.0222  0.3298  0.3786
11646TIP3   OH256352   1.651   2.301   2.097 -0.1517 -0.1750  0.1189
11646TIP3    H156353   1.582   2.341   2.043 -0.6311  1.0368  1.5422
11646TIP3    H256354   1.681   2.226   2.046 -1.0505  0.5092 -1.5020
11647TIP3   OH256355   4.908   1.280  14.147 -0.1180 -0.0076  0.3722
11647TIP3    H156356   4.823   1.322  14.134 -0.6670 -0.8402  1.1575
11647TIP3    H256357   4.964   1.349  14.183  0.3327  1.2692 -2.5306
11648TIP3   OH256358   4.015   2.190  17.132 -0.3445 -0.2132  0.3791
11648TIP3    H156359   4.110   2.192  17.123 -0.3018  0.2030  0.9025
11648TIP3    H256360   3.995   2.098  17.150  0.2007  0.0472  2.6281
11649TIP3   OH256361   5.880   3.741   6.230  0.0641 -0.0142 -0.9329
11649TIP3    H156362   5.960   3.767   6.275 -0.4470  1.1867 -0.6615
11649TIP3    H256363   5.903   3.661   6.183  1.3732  0.2205 -0.7308
11650TIP3   OH256364   5.853   3.758   4.294 -0.4322  0.2466  0.2834
11650TIP3    H156365   5.842   3.776   4.200 -0.6800  0.7651  0.4070
11650TIP3    H256366   5.827   3.667   4.304 -0.4766  0.2095 -0.1399
11651TIP3   OH256367   1.391   4.139   4.290 -0.0225 -0.1291  0.0843
11651TIP3    H156368   1.464   4.095   4.334  0.4068 -0.2325 -0.7294
11651TIP3    H256369   1.322   4.073   4.287 -0.0430 -0.1357  0.5568
11652TIP3   OH256370   3.261   0.303  10.530  0.2639  0.1865  0.6048
11652TIP3    H156371   3.187   0.363  10.538 -0.2164 -0.1578 -0.9245
11652TIP3    H256372   3.284   0.281  10.620 -1.2384  0.6058  1.1132
11653TIP3   OH256373   3.158   5.588   4.136  0.3985  0.5820  0.1568
11653TIP3    H156374   3.165   5.574   4.231  0.1079  0.9389  0.2326
11653TIP3    H256375   3.235   5.639   4.113  1.9343 -1.7689 -0.2631
11654TIP3   OH256376   5.911   4.790   2.244 -0.2133 -0.1316  0.1817
11654TIP3    H156377   5.958   4.829   2.317  0.2315 -0.8791  0.3067
11654TIP3    H256378   5.831   4.754   2.282 -1.6653  2.3781 -0.2492
11655TIP3   OH256379   5.440   6.704  11.734 -0.3194 -0.1483 -0.2056
11655TIP3    H156380   5.513   6.661  11.690 -0.4533 -0.9060  0.2888
11655TIP3    H256381   5.452   6.797  11.716  1.3098 -0.1507  0.6308
11656TIP3   OH256382   0.676   3.393  15.104 -0.5107 -0.0607 -0.4675
11656TIP3    H156383   0.651   3.475  15.147  0.4056  1.3267 -2.4158
11656TIP3    H256384   0.604   3.334  15.122 -2.1029  1.7614 -0.4882
11657TIP3   OH256385   4.257   5.073   0.131 -0.5587 -0.2946 -0.5718
11657TIP3    H156386   4.277   5.083   0.224 -2.3545 -0.0466 -0.1613
11657TIP3    H256387   4.278   5.158   0.093  0.8061 -0.5992 -0.5437
11658TIP3   OH256388   5.553   5.601  13.241  0.0330  0.0529  0.3759
11658TIP3    H156389   5.608   5.525  13.222 -1.0524 -0.5928 -0.2669
11658TIP3    H256390   5.614   5.675  13.244  1.2061 -0.9269  1.7313
11659TIP3   OH256391   3.083   2.077  12.470 -0.1823 -0.2373  0.0497
11659TIP3    H156392   3.095   2.168  12.442  1.9637 -0.3746  0.3176
11659TIP3    H256393   3.046   2.083  12.558  0.4693  0.4151  0.2859
11660TIP3   OH256394   4.872   5.791   4.499  0.1290  0.7042 -0.8177
11660TIP3    H156395   4.958   5.819   4.468  0.9991  0.2341  1.0072
11660TIP3    H256396   4.829   5.756   4.422  1.7925  0.4282 -1.6788
11661TIP3   OH256397   0.029   0.599   1.506 -0.0268  0.0658 -0.2930
11661TIP3    H156398   0.101   0.539   1.526 -0.8344 -1.5492 -1.9035
11661TIP3    H256399   0.061   0.649   1.430 -0.9794 -1.5457 -1.8393
11662TIP3   OH256400   2.220   2.446   0.963  0.0830  0.1102 -0.1142
11662TIP3    H156401   2.188   2.356   0.955 -0.4549  0.3824 -1.2104
11662TIP3    H256402   2.248   2.453   1.055 -2.3959 -0.3523  0.7574
11663TIP3   OH256403   2.042   6.063   6.012 -0.3217  0.2918  0.3191
11663TIP3    H156404   2.032   6.018   6.095 -0.3331 -1.2010 -0.4533
11663TIP3    H256405   2.136   6.063   5.995 -0.4554 -1.2055 -0.5820
11664TIP3   OH256406   2.350   0.518   3.996 -0.0983 -0.1310  0.2764
11664TIP3    H156407   2.290   0.582   3.958 -1.5234 -1.1352  0.7776
11664TIP3    H256408   2.351   0.540   4.090  2.6590  1.7377 -0.0747
11665TIP3   OH256409   6.235   3.282  11.241  0.4311 -0.1538 -0.1586
11665TIP3    H156410   6.174   3.219  11.202  0.7717 -0.5209 -0.1040
11665TIP3    H256411   6.289   3.311  11.167 -0.2763  0.7307 -0.3543
11666TIP3   OH256412   6.456   5.360  12.547 -0.2376 -0.0561 -0.0827
11666TIP3    H156413   6.383   5.414  12.515 -0.7466  0.4583  1.7844
11666TIP3    H256414   6.430   5.270  12.527 -2.6273 -0.1126  2.6419
11667TIP3   OH256415   1.089   6.252  15.381 -0.2408 -0.0618 -0.2878
11667TIP3    H156416   1.076   6.208  15.297 -0.4891 -0.3286 -0.1086
11667TIP3    H256417   1.029   6.327  15.378  0.6542  0.6563 -0.8651
11668TIP3   OH256418   2.132   4.401   4.338  0.5320 -0.3328  0.1326
11668TIP3    H156419   2.139   4.348   4.259  0.8618  1.5465 -1.1523
11668TIP3    H256420   2.080   4.477   4.312 -0.9583 -0.5248  2.2286
11669TIP3   OH256421   0.395   2.080  11.393 -0.2617 -0.4168  0.1762
11669TIP3    H156422   0.402   2.005  11.333  0.1633 -1.9687  2.0311
11669TIP3    H256423   0.486   2.098  11.418 -0.4677 -0.1937  0.7814
11670TIP3   OH256424   5.914   2.898   3.057  0.1576  0.1955 -0.2670
11670TIP3    H156425   5.852   2.971   3.049  0.5797  0.3851 -2.7302
11670TIP3    H256426   5.881   2.832   2.996  3.0199  0.8493 -2.7444
11671TIP3   OH256427   2.826   5.219  14.333  0.1723 -0.3234  0.0151
11671TIP3    H156428   2.879   5.275  14.275  0.3414 -0.2244  0.2634
11671TIP3    H256429   2.813   5.139  14.282 -0.2107  0.0005 -0.4094
11672TIP3   OH256430   3.878   4.038  16.711  0.7640  0.0494  0.7564
11672TIP3    H156431   3.916   3.958  16.746 -2.1515 -2.2889 -1.0132
11672TIP3    H256432   3.823   4.010  16.638 -2.8374  3.2025  1.8791
11673TIP3   OH256433   2.197   3.203   1.147  0.9532  0.1912 -0.7477
11673TIP3    H156434   2.106   3.229   1.164  0.7447 -0.7044 -0.4211
11673TIP3    H256435   2.245   3.231   1.226  0.2360 -2.7303  0.8535
11674TIP3   OH256436   5.342   1.841  15.752 -0.1837  0.5856  0.0387
11674TIP3    H156437   5.358   1.787  15.830 -1.8642 -1.7975 -1.1320
11674TIP3    H256438   5.385   1.794  15.681 -1.4889  0.8791 -0.9966
11675TIP3   OH256439   0.186   4.787   4.675  0.2697 -0.3018  0.4522
11675TIP3    H156440   0.274   4.820   4.657  0.3044 -0.7920 -0.3055
11675TIP3    H256441   0.132   4.823   4.605 -0.0184 -0.5108  0.5668
11676TIP3   OH256442   6.157   3.435  15.289 -0.4292 -0.1777  0.1592
11676TIP3    H156443   6.171   3.473  15.202 -0.3682 -0.6226 -0.0270
11676TIP3    H256444   6.090   3.491  15.329  1.6369  1.8644  0.9743
11677TIP3   OH256445   2.916   0.439  12.527  0.3852 -0.6747 -0.0690
11677TIP3    H156446   2.968   0.427  12.607 -0.5273 -0.1308  0.6320
11677TIP3    H256447   2.867   0.358  12.519 -0.0418 -0.4668  0.3357
11678TIP3   OH256448   4.610   5.437  14.082  0.4110 -0.1928 -0.2219
11678TIP3    H156449   4.515   5.440  14.070  0.2008 -0.4477  1.2225
11678TIP3    H256450   4.625   5.486  14.163  1.4146 -0.9809  0.0800
11679TIP3   OH256451   2.683   4.559   4.752  1.0183  0.4328 -0.0671
11679TIP3    H156452   2.661   4.554   4.846 -0.7910 -0.2692 -0.4691
11679TIP3    H256453   2.671   4.651   4.730  0.0285  0.3714  0.1258
11680TIP3   OH256454   1.040   2.434  12.392 -0.4423  0.4150  1.2514
11680TIP3    H156455   1.004   2.454  12.478  0.9476 -1.1661  2.2493
11680TIP3    H256456   0.971   2.383  12.349 -1.2642  1.4711  1.2728
11681TIP3   OH256457   4.141   2.327   6.367 -0.0755 -0.0997 -0.1162
11681TIP3    H156458   4.057   2.296   6.401 -0.1276  1.4461  1.3192
11681TIP3    H256459   4.118   2.394   6.303  0.0368  0.9607  0.9279
11682TIP3   OH256460   0.619   4.488  11.817  0.0769  0.5191 -0.7476
11682TIP3    H156461   0.610   4.455  11.728 -0.0507  1.2082 -0.9947
11682TIP3    H256462   0.587   4.578  11.813 -1.0693  0.1749  0.2544
11683TIP3   OH256463   3.532   4.155  13.808  0.0223  0.0418 -0.3342
11683TIP3    H156464   3.509   4.065  13.830  1.1121 -0.4899 -1.3206
11683TIP3    H256465   3.455   4.206  13.836 -0.9347 -1.2666 -0.4742
11684TIP3   OH256466   2.882   1.710   0.419 -0.3490  0.3556 -0.7863
11684TIP3    H156467   2.873   1.746   0.330 -0.1038 -0.3322 -1.0931
11684TIP3    H256468   2.827   1.631   0.418  0.3079 -0.1067 -0.5804
11685TIP3   OH256469   6.612   0.481   0.881 -0.0870 -0.4263  0.3293
11685TIP3    H156470   6.706   0.461   0.879 -0.0274 -0.3099  1.6386
11685TIP3    H256471   6.591   0.491   0.973 -1.1118  0.9012 -0.0080
11686TIP3   OH256472   0.477   6.641  13.623  0.1296  0.3950  0.3097
11686TIP3    H156473   0.428   6.700  13.680  1.1320  0.2612  1.3484
11686TIP3    H256474   0.539   6.597  13.681 -1.2165 -2.4371 -0.2233
11687TIP3   OH256475   2.693   4.473  16.080  1.0353 -0.1850  0.1987
11687TIP3    H156476   2.689   4.511  16.168 -0.7341  1.1206 -0.3894
11687TIP3    H256477   2.605   4.440  16.065  1.4242 -0.7263 -0.9435
11688TIP3   OH256478   1.548   5.850   3.053 -0.5164 -0.4354 -0.2112
11688TIP3    H156479   1.589   5.777   3.099  0.0332 -0.4597 -0.7344
11688TIP3    H256480   1.467   5.866   3.102 -0.1348 -0.7124  0.5301
11689TIP3   OH256481   1.785   5.048   2.145  1.0293 -0.8012 -0.1868
11689TIP3    H156482   1.747   5.085   2.225  1.0858 -0.1379 -0.4603
11689TIP3    H256483   1.868   5.010   2.173  1.5454  0.3447 -0.0981
11690TIP3   OH256484   0.291   4.847  12.584 -0.3049  0.5551 -0.4062
11690TIP3    H156485   0.252   4.778  12.531  1.3303 -0.9253  0.2337
11690TIP3    H256486   0.367   4.876  12.533  0.2725  0.3359  0.3242
11691TIP3   OH256487   5.233   2.218   3.572 -0.8373 -0.3331 -0.2533
11691TIP3    H156488   5.296   2.286   3.598 -0.6877 -0.6342  0.1825
11691TIP3    H256489   5.202   2.245   3.485 -1.0449  0.4809  0.0689
11692TIP3   OH256490   4.497   4.988  16.976 -0.6539 -0.5586  0.1662
11692TIP3    H156491   4.592   5.002  16.969 -0.4762 -0.8149  1.7360
11692TIP3    H256492   4.462   5.022  16.894  0.7693 -0.2007 -0.3259
11693TIP3   OH256493   4.064   2.781  12.084 -0.0654  0.0857 -0.2959
11693TIP3    H156494   4.115   2.703  12.111 -1.5572 -1.4747 -1.7610
11693TIP3    H256495   4.093   2.798  11.994 -0.0711  0.9881 -0.1339
11694TIP3   OH256496   6.634   0.326   2.684  0.1082 -0.4301  0.3593
11694TIP3    H156497   6.659   0.315   2.776 -2.3117  1.5284  1.3797
11694TIP3    H256498   6.548   0.368   2.688  0.3273  0.5879 -2.8194
11695TIP3   OH256499   1.859   6.049  16.668 -0.3394 -0.1495 -0.0947
11695TIP3    H156500   1.856   6.132  16.621 -1.0308  0.9344  1.7507
11695TIP3    H256501   1.946   6.014  16.648 -0.5440  0.3158 -2.0008
11696TIP3   OH256502   3.736   0.094  16.026 -0.4211 -0.1311  0.3238
11696TIP3    H156503   3.684   0.128  16.099 -0.0410 -0.4301  0.7398
11696TIP3    H256504   3.682   0.026  15.988 -0.5197 -0.1423  0.4818
11697TIP3   OH256505   5.467   3.466   2.071 -0.5647  0.3890  0.2603
11697TIP3    H156506   5.464   3.375   2.099 -1.5184  0.1568 -0.5115
11697TIP3    H256507   5.560   3.489   2.073 -0.5116  0.3108  3.1849
11698TIP3   OH256508   6.087   6.239   3.898 -0.1462  0.0237 -0.1256
11698TIP3    H156509   6.089   6.261   3.991  1.5831  0.4457 -0.2309
11698TIP3    H256510   6.126   6.152   3.893  0.1330  0.1670 -0.4939
11699TIP3   OH256511   0.452   0.653   1.599 -0.4621 -0.2304 -0.2001
11699TIP3    H156512   0.469   0.677   1.508  0.4298 -0.9808 -0.2454
11699TIP3    H256513   0.372   0.599   1.595  0.5856 -1.8064 -0.7940
11700TIP3   OH256514   2.163   2.905   4.266  0.1397  0.2939  0.0006
11700TIP3    H156515   2.255   2.929   4.260 -0.2364  1.6436 -0.7701
11700TIP3    H256516   2.120   2.957   4.198 -1.4007  0.7653  1.2676
11701TIP3   OH256517   5.536   0.326   1.183 -0.1094  0.9148 -0.6414
11701TIP3    H156518   5.499   0.244   1.152  0.1004  1.1061 -1.4178
11701TIP3    H256519   5.521   0.325   1.278 -1.7380  0.7909 -0.8623
11702TIP3   OH256520   0.890   4.743  15.626  0.0891  0.7063 -0.0764
11702TIP3    H156521   0.849   4.726  15.542  0.1912  1.2299 -0.2391
11702TIP3    H256522   0.966   4.685  15.628 -0.1527  0.3887 -0.1650
11703TIP3   OH256523   1.931   1.707   6.600  0.0162 -0.8428 -0.3276
11703TIP3    H156524   1.838   1.695   6.582  0.0127 -2.1893  0.4897
11703TIP3    H256525   1.974   1.633   6.557  0.5676 -0.9854  0.4476
11704TIP3   OH256526   3.622   1.536   3.289 -0.5316 -0.2553 -0.7757
11704TIP3    H156527   3.587   1.547   3.377  0.1692  1.3216 -0.6565
11704TIP3    H256528   3.554   1.489   3.241 -1.5635  0.2087  0.2133
11705TIP3   OH256529   6.698   0.326   4.998  0.0566  0.0152  0.2703
11705TIP3    H156530   6.793   0.320   4.992 -0.0725 -1.5141 -1.6002
11705TIP3    H256531   6.676   0.406   4.951  0.2360 -2.7857 -5.5468
11706TIP3   OH256532   5.801   5.977  13.007  0.2913  0.3012 -0.2816
11706TIP3    H156533   5.766   6.065  12.992  0.4556  0.6997  1.4407
11706TIP3    H256534   5.724   5.921  13.006  0.0943  0.5741 -0.6442
11707TIP3   OH256535   4.388   6.200   1.066  0.0427 -0.2662  0.1092
11707TIP3    H156536   4.446   6.127   1.042  0.1976  0.2271 -1.1155
11707TIP3    H256537   4.444   6.277   1.064 -0.2421 -0.0303  0.8555
11708TIP3   OH256538   6.671   4.854   5.097  1.1603 -0.4887  0.0991
11708TIP3    H156539   6.724   4.841   5.175  0.6808 -1.5707  0.2570
11708TIP3    H256540   6.650   4.766   5.067 -0.3890 -0.0846 -0.0647
11709TIP3   OH256541   5.541   1.141   0.482 -0.3946 -0.4825  0.1948
11709TIP3    H156542   5.574   1.095   0.405 -1.8004 -1.3587  0.0830
11709TIP3    H256543   5.485   1.210   0.446 -0.2321 -0.2340  0.4154
11710TIP3   OH256544   1.725   6.499  15.487  0.3381 -0.3584  0.5515
11710TIP3    H156545   1.651   6.463  15.437  0.0196  1.0095  0.0097
11710TIP3    H256546   1.722   6.451  15.570 -1.5591  0.0921  0.8000
11711TIP3   OH256547   1.884   0.180  16.315 -0.1534  0.0854 -0.1816
11711TIP3    H156548   1.814   0.192  16.378 -0.5348  0.1639 -0.6157
11711TIP3    H256549   1.913   0.090  16.327  0.9222  0.5787  1.2644
11712TIP3   OH256550   3.730   1.167   4.413 -0.5443 -0.5052  0.1994
11712TIP3    H156551   3.734   1.237   4.349 -0.6529 -0.3827  0.3245
11712TIP3    H256552   3.732   1.087   4.362  0.7851 -0.4331  0.1133
11713TIP3   OH256553   6.071   5.310  11.744 -0.1032  0.3308  0.0371
11713TIP3    H156554   6.090   5.238  11.684 -0.5330 -2.1222  2.6306
11713TIP3    H256555   5.998   5.278  11.797 -0.8468  3.0432  0.8201
11714TIP3   OH256556   1.545   3.837   3.117 -0.1054  0.3030  0.1050
11714TIP3    H156557   1.460   3.865   3.151  0.1988  2.4317 -0.7795
11714TIP3    H256558   1.604   3.909   3.136  1.4820 -1.0262  0.4511
11715TIP3   OH256559   3.987   0.456   5.254  0.5066 -0.2146  0.1431
11715TIP3    H156560   4.061   0.433   5.198 -0.3951  1.5496 -1.9006
11715TIP3    H256561   3.911   0.452   5.196 -0.4593  1.8405  1.1811
11716TIP3   OH256562   2.062   3.355  10.581 -0.2268 -0.9384  0.2884
11716TIP3    H156563   2.045   3.420  10.513 -0.8728 -1.3387  0.0580
11716TIP3    H256564   2.036   3.271  10.542 -0.3137 -1.2135  0.9159
11717TIP3   OH256565   1.962   4.587  15.024  0.8176 -0.7981  0.4374
11717TIP3    H156566   1.989   4.522  14.959  2.0959 -0.0890  0.2350
11717TIP3    H256567   2.022   4.575  15.097 -0.4971 -1.4669  1.4521
11718TIP3   OH256568   0.092   4.677  14.380  0.6450  0.0630  0.2573
11718TIP3    H156569   0.164   4.713  14.328 -0.0518 -1.2328 -1.7025
11718TIP3    H256570   0.015   4.725  14.351  0.7313  2.2685  3.1621
11719TIP3   OH256571   0.769   1.933  12.084  0.3541 -0.6224  0.3159
11719TIP3    H156572   0.816   1.882  12.150  0.6744  0.8179  1.2415
11719TIP3    H256573   0.722   1.868  12.033  1.4064 -1.9149  0.9174
11720TIP3   OH256574   4.763   3.426  17.173  0.6181 -0.5140  0.1952
11720TIP3    H156575   4.672   3.452  17.184  0.2791 -2.0256  1.4109
11720TIP3    H256576   4.775   3.355  17.237  3.0907  0.7254  1.2284
11721TIP3   OH256577   1.658   5.376  14.228  0.5028 -0.0311 -0.2622
11721TIP3    H156578   1.639   5.468  14.244  0.5061  0.2976 -1.9048
11721TIP3    H256579   1.572   5.334  14.225  0.3303  0.3661 -1.7801
11722TIP3   OH256580   4.921   5.548  14.864 -0.6308 -0.0642  0.2455
11722TIP3    H156581   4.829   5.564  14.842 -0.4409  1.0435  0.2077
11722TIP3    H256582   4.969   5.614  14.814  0.2737 -1.2358 -0.4898
11723TIP3   OH256583   3.140   4.494   3.978 -0.6234  0.4246 -0.1330
11723TIP3    H156584   3.050   4.490   4.011 -0.7070 -1.3598 -0.4477
11723TIP3    H256585   3.166   4.585   3.990 -1.7299  0.5422  1.9641
11724TIP3   OH256586   3.389   0.023   0.837  0.1204 -0.6128  0.1509
11724TIP3    H156587   3.442   0.026   0.758  0.9061 -0.7736  0.6533
11724TIP3    H256588   3.417   0.099   0.888 -2.1140  0.8991 -0.7685
11725TIP3   OH256589   1.976   2.341  15.730  0.7414 -0.5287  0.2897
11725TIP3    H156590   2.004   2.400  15.800  2.2940 -2.5245  1.4795
11725TIP3    H256591   1.915   2.393  15.677  0.7121  1.5541  2.2146
11726TIP3   OH256592   1.147   4.815   4.259  0.2603 -1.0859  0.1965
11726TIP3    H156593   1.100   4.739   4.223 -1.4319 -0.4698  1.0095
11726TIP3    H256594   1.240   4.795   4.244 -0.2374 -2.1786 -1.8222
11727TIP3   OH256595   3.427   3.416   3.204 -0.9196  0.0638 -0.4217
11727TIP3    H156596   3.411   3.506   3.175 -1.3847  0.2407  0.3347
11727TIP3    H256597   3.475   3.426   3.287 -2.0331 -0.3339  0.3008
11728TIP3   OH256598   3.869   0.252  11.428 -0.2341 -0.2940  0.0323
11728TIP3    H156599   3.780   0.221  11.413  0.3132 -1.0051 -2.0763
11728TIP3    H256600   3.879   0.251  11.524 -2.9407  1.2472  0.4396
11729TIP3   OH256601   6.514   4.974   5.924  0.2441 -0.5815 -0.5356
11729TIP3    H156602   6.531   5.024   6.003 -0.7179  0.1089 -0.7543
11729TIP3    H256603   6.440   5.018   5.882  0.3196 -1.3164 -1.4870
11730TIP3   OH256604   4.645   6.210   3.313 -0.1390  0.3101  0.1775
11730TIP3    H156605   4.686   6.279   3.365  1.5939 -0.0328 -0.6577
11730TIP3    H256606   4.717   6.154   3.286 -1.3822 -1.2458 -0.0583
11731TIP3   OH256607   0.310   0.411  15.284 -0.0710 -0.4588 -0.9375
11731TIP3    H156608   0.386   0.352  15.281 -1.0662 -1.7922 -0.5271
11731TIP3    H256609   0.271   0.404  15.197 -0.7317 -1.1446 -0.5917
11732TIP3   OH256610   2.840   2.961  11.816 -0.6485  0.4496  0.0091
11732TIP3    H156611   2.855   2.929  11.905 -0.8467  1.3843  0.3896
11732TIP3    H256612   2.866   2.888  11.759  1.2485  0.4848  0.7678
11733TIP3   OH256613   1.618   0.552   0.621 -0.1401 -0.1798 -0.1381
11733TIP3    H156614   1.550   0.486   0.608  0.1858 -0.2779 -1.5220
11733TIP3    H256615   1.592   0.626   0.566  0.8170 -0.1956 -0.6439
11734TIP3   OH256616   4.583   1.868  15.638 -0.4204 -0.1183 -0.0579
11734TIP3    H156617   4.612   1.931  15.572  1.3473 -1.7518 -0.9199
11734TIP3    H256618   4.578   1.919  15.719 -2.7940  1.9756 -1.3805
11735TIP3   OH256619   6.423   4.100  15.613 -0.2470  0.0217  0.0350
11735TIP3    H156620   6.335   4.089  15.649 -0.4881  0.4153 -0.4245
11735TIP3    H256621   6.481   4.094  15.689 -0.7602  1.0364  0.5144
11736TIP3   OH256622   0.305   2.865   5.678 -0.0311 -0.3355 -0.3617
11736TIP3    H156623   0.390   2.895   5.712  0.5450 -0.4261 -1.6517
11736TIP3    H256624   0.318   2.771   5.661 -0.5342 -0.4439 -0.1565
11737TIP3   OH256625   0.443   3.271   2.627 -0.1605  0.3931  0.1999
11737TIP3    H156626   0.494   3.303   2.701 -0.8348 -0.1963  0.9454
11737TIP3    H256627   0.367   3.330   2.624 -0.8109 -0.3878  0.8391
11738TIP3   OH256628   6.704   5.470  13.204  0.1991  0.7532  0.3594
11738TIP3    H156629   6.636   5.405  13.189  1.1040  0.1705 -1.5994
11738TIP3    H256630   6.663   5.537  13.258 -1.1749 -0.7504  1.2545
11739TIP3   OH256631   5.338   5.920   2.157  0.1756 -0.0843  0.1484
11739TIP3    H156632   5.304   5.904   2.245 -1.0818 -1.6905 -0.6010
11739TIP3    H256633   5.294   5.857   2.101  0.7117  1.1065 -1.7241
11740TIP3   OH256634   5.236   2.609   4.747 -0.0141  0.4645  0.2108
11740TIP3    H156635   5.294   2.546   4.705  1.7317  2.3775 -0.3814
11740TIP3    H256636   5.209   2.567   4.829  1.1082 -1.0183 -0.1509
11741TIP3   OH256637   0.044   0.909  17.240  0.0446 -0.0800 -0.4824
11741TIP3    H156638   0.136   0.901  17.215 -0.2617  1.9462 -2.4899
11741TIP3    H256639  -0.005   0.895  17.159 -1.4750 -1.3750  0.5940
11742TIP3   OH256640   5.638   1.655   1.400  0.1092 -0.3459 -0.8521
11742TIP3    H156641   5.634   1.609   1.484 -1.9918 -2.1352 -1.8558
11742TIP3    H256642   5.569   1.721   1.406  0.3635 -0.0595 -0.9900
11743TIP3   OH256643   5.573   0.107  12.790  0.3992 -0.3158 -0.4552
11743TIP3    H156644   5.601   0.195  12.765 -0.2130  0.6477  2.0011
11743TIP3    H256645   5.483   0.117  12.820  0.3620 -1.7460  0.0179
11744TIP3   OH256646   1.316   1.121   5.044  0.5090 -0.1335  0.3930
11744TIP3    H156647   1.402   1.163   5.050 -0.3706  1.6185  1.8801
11744TIP3    H256648   1.306   1.073   5.126  0.1838 -0.5595  0.1085
11745TIP3   OH256649   1.696   4.087  15.008 -0.0761  0.1690  0.3761
11745TIP3    H156650   1.633   4.129  15.067 -0.9207 -1.5768  0.7866
11745TIP3    H256651   1.690   4.137  14.927  0.4017  2.0271  1.4324
11746TIP3   OH256652   0.084   0.709  14.674  0.1371 -0.0529 -0.8372
11746TIP3    H156653   0.064   0.627  14.630  1.2804 -1.5169  1.1912
11746TIP3    H256654   0.082   0.687  14.767 -0.4806  2.4715 -0.1892
11747TIP3   OH256655   0.568   0.124   4.930  0.2824  0.5947 -0.2281
11747TIP3    H156656   0.524   0.191   4.878 -0.3245 -1.1148 -2.0159
11747TIP3    H256657   0.659   0.152   4.934  0.1217  1.3117 -1.3080
11748TIP3   OH256658   4.105   4.760  15.549 -0.4495  0.2514 -0.2175
11748TIP3    H156659   4.150   4.676  15.563 -0.0664  0.2752 -1.2321
11748TIP3    H256660   4.175   4.824  15.543 -0.6634  0.4233 -0.9327
11749TIP3   OH256661   6.221   4.912   3.278 -0.5039  0.4878 -0.1503
11749TIP3    H156662   6.315   4.909   3.296 -0.8721  1.3076  2.4465
11749TIP3    H256663   6.212   4.966   3.200  1.2087 -0.4258 -1.0319
11750TIP3   OH256664   1.434   5.919   0.468  0.1298 -0.0194 -0.0530
11750TIP3    H156665   1.478   5.932   0.552  0.9107 -1.8958 -0.1191
11750TIP3    H256666   1.469   5.988   0.412  1.6226 -0.3467  0.4291
11751TIP3   OH256667   6.150   3.798  12.917 -0.5450  0.4095  0.5856
11751TIP3    H156668   6.195   3.718  12.891  1.8463  1.1393  2.1333
11751TIP3    H256669   6.103   3.774  12.997  0.3195  0.5589  1.1516
11752TIP3   OH256670   2.464   3.807   2.933 -0.8765 -0.4578  0.6544
11752TIP3    H156671   2.401   3.872   2.965  1.1759  1.1396  1.6652
11752TIP3    H256672   2.523   3.792   3.007  2.5488  1.4481 -1.4513
11753TIP3   OH256673   2.785   6.022  16.733  0.2072 -0.5966  0.4955
11753TIP3    H156674   2.754   5.965  16.803  1.4664  0.9734  2.4204
11753TIP3    H256675   2.872   6.050  16.761  1.4720 -1.1037 -2.4623
11754TIP3   OH256676   6.718   6.212   0.173 -0.0871 -0.3188 -0.5398
11754TIP3    H156677   6.762   6.141   0.126  0.4732  0.7193 -1.6335
11754TIP3    H256678   6.626   6.185   0.176  0.2543 -1.5392 -0.0400
11755TIP3   OH256679   5.627   6.367  14.077 -0.1593 -0.0109  0.2404
11755TIP3    H156680   5.706   6.420  14.069 -0.0772 -0.2896 -0.9194
11755TIP3    H256681   5.555   6.430  14.080  0.0034  0.2007 -0.2464
11756TIP3   OH256682   2.122   0.670   3.284 -0.0272 -0.1583  0.0675
11756TIP3    H156683   2.106   0.738   3.350  1.1089 -0.3546  0.5656
11756TIP3    H256684   2.114   0.588   3.331  1.5160 -0.2882  0.1734
11757TIP3   OH256685   2.471   6.152  14.565  0.2250  0.2493  0.0912
11757TIP3    H156686   2.493   6.112  14.481 -2.4334  0.6128 -0.8602
11757TIP3    H256687   2.451   6.243  14.545 -0.8417  0.2466  1.0383
11758TIP3   OH256688   1.318   0.044   5.176 -0.0295 -0.0914 -0.3399
11758TIP3    H156689   1.248   0.081   5.122 -0.0200 -0.7360 -0.8046
11758TIP3    H256690   1.362   0.120   5.213  0.1698  0.3739 -1.5043
11759TIP3   OH256691   1.161   5.452   6.037 -0.9685 -0.1517  0.1804
11759TIP3    H156692   1.186   5.543   6.021 -3.0413  0.9368  2.4614
11759TIP3    H256693   1.146   5.415   5.950  2.1875  0.9005 -0.9292
11760TIP3   OH256694   6.176   5.197   4.166  0.2367 -0.0910  0.4633
11760TIP3    H156695   6.179   5.138   4.242 -0.9338  1.0563  1.4499
11760TIP3    H256696   6.083   5.205   4.146  0.5480 -0.6908 -1.4045
11761TIP3   OH256697   6.619   1.150  11.541 -0.0967 -0.4700 -0.0485
11761TIP3    H156698   6.577   1.202  11.472  0.1613 -0.3381 -0.1056
11761TIP3    H256699   6.684   1.097  11.494  0.3451 -0.1002  0.1457
11762TIP3   OH256700   5.179   5.207   0.607 -0.0294 -0.7110  0.1494
11762TIP3    H156701   5.238   5.143   0.647  0.6240  0.7062  1.5716
11762TIP3    H256702   5.138   5.250   0.681 -0.5900  0.3892 -0.7828
11763TIP3   OH256703   3.632   4.935   1.222  0.2005 -0.4287 -0.5363
11763TIP3    H156704   3.572   5.007   1.239 -0.0588 -0.6431 -0.5314
11763TIP3    H256705   3.584   4.877   1.162 -0.2994 -1.5073  0.8449
11764TIP3   OH256706   1.800   6.068   0.551 -0.2150 -0.1054  0.1150
11764TIP3    H156707   1.717   6.061   0.597 -0.9737  1.4129 -0.9751
11764TIP3    H256708   1.831   5.977   0.544 -1.3651 -0.6098  1.2145
11765TIP3   OH256709   1.552   3.299   5.187 -0.8509 -0.1253  0.0974
11765TIP3    H156710   1.622   3.255   5.139  0.0245  0.6891  0.5947
11765TIP3    H256711   1.488   3.324   5.119 -1.5718 -2.4369 -0.1519
11766TIP3   OH256712   4.745   5.893  13.823 -0.1292  0.2392 -0.6838
11766TIP3    H156713   4.780   5.816  13.867 -1.4708  0.0548  0.1185
11766TIP3    H256714   4.711   5.947  13.893 -2.2958 -0.0429 -1.4457
11767TIP3   OH256715   0.226   1.392   4.582  0.2289  0.4543 -0.0896
11767TIP3    H156716   0.296   1.403   4.517 -0.6209  1.3891 -0.8842
11767TIP3    H256717   0.235   1.302   4.613  0.1738 -0.2805 -2.0847
11768TIP3   OH256718   0.463   1.363  10.609  0.3093  0.2195  0.3114
11768TIP3    H156719   0.505   1.375  10.695  1.7143 -1.1001 -0.1348
11768TIP3    H256720   0.390   1.424  10.609 -1.1823 -1.3285  3.3747
11769TIP3   OH256721   4.271   4.447   3.748  0.7942 -0.1383 -0.4835
11769TIP3    H156722   4.269   4.353   3.768 -0.7260 -0.1852 -0.6977
11769TIP3    H256723   4.352   4.478   3.787 -0.3557 -0.8540  2.8719
11770TIP3   OH256724   5.852   3.267  15.853 -0.4860  0.4432 -0.0655
11770TIP3    H156725   5.936   3.313  15.848  0.2604 -0.7829  0.5900
11770TIP3    H256726   5.789   3.335  15.879  0.4139  1.2473  0.0787
11771TIP3   OH256727   0.383   5.864  12.320 -0.7375  0.5496 -0.0433
11771TIP3    H156728   0.331   5.794  12.281  0.6725  0.4007 -1.8260
11771TIP3    H256729   0.354   5.869  12.411  0.4245 -3.7200  0.7819
11772TIP3   OH256730   3.916   6.045  10.279 -0.1035 -0.0659  0.2431
11772TIP3    H156731   3.895   6.135  10.253 -0.5998 -0.3542 -0.3803
11772TIP3    H256732   3.996   6.053  10.331 -0.9517  0.9107  1.4748
11773TIP3   OH256733   1.539   0.270  12.519  0.0849  0.0271 -0.1814
11773TIP3    H156734   1.452   0.298  12.546  0.1910  0.9603 -0.7545
11773TIP3    H256735   1.597   0.342  12.544  0.5897 -0.3059 -0.3718
11774TIP3   OH256736   4.436   5.111  16.759  0.4793 -0.3764  0.3259
11774TIP3    H156737   4.460   5.074  16.674  2.2149 -1.0837  1.0801
11774TIP3    H256738   4.449   5.205  16.749 -1.8060 -0.1147 -0.9186
11775TIP3   OH256739   0.832   3.424   4.725  0.1933  0.1190 -0.0741
11775TIP3    H156740   0.927   3.417   4.728  0.0878 -2.0416 -0.4275
11775TIP3    H256741   0.803   3.345   4.680 -1.9790 -1.3403  3.4458
11776TIP3   OH256742   0.573   0.047   0.474  0.1705 -0.4722 -0.5679
11776TIP3    H156743   0.487   0.051   0.517  0.9272  0.2932  0.9839
11776TIP3    H256744   0.569   0.114   0.406 -0.3189 -0.1283 -0.2071
11777TIP3   OH256745   4.689   1.258   2.480  0.0571 -0.1150  0.5390
11777TIP3    H156746   4.652   1.194   2.542 -0.0263  0.4756  1.1024
11777TIP3    H256747   4.657   1.229   2.395  3.4386 -3.4266  0.0937
11778TIP3   OH256748   5.317   1.788  16.601 -0.4180  0.3025  0.1126
11778TIP3    H156749   5.274   1.796  16.686  0.5078  1.9896  0.4711
11778TIP3    H256750   5.297   1.870  16.556 -0.0212 -0.1291 -0.8718
11779TIP3   OH256751   4.566   5.737  11.980 -0.4038 -0.7549 -0.3061
11779TIP3    H156752   4.546   5.665  11.920 -2.0409 -0.2313 -0.4178
11779TIP3    H256753   4.660   5.727  11.998  0.2125 -0.7964 -3.1043
11780TIP3   OH256754   0.302   3.236  14.846 -0.2309 -0.4013 -0.3922
11780TIP3    H156755   0.251   3.308  14.809 -0.2575 -0.0307  0.3545
11780TIP3    H256756   0.378   3.278  14.887 -0.8866 -0.6672  1.1462
11781TIP3   OH256757   5.809   3.797  11.324  0.3905  0.2613  0.3662
11781TIP3    H156758   5.882   3.795  11.263 -0.3631 -0.4013 -0.5297
11781TIP3    H256759   5.736   3.758  11.277 -0.0724 -0.8374  1.8870
11782TIP3   OH256760   1.790   1.968  14.516  0.3934  0.1507  0.2434
11782TIP3    H156761   1.879   1.993  14.542  0.2925 -0.1096  0.8406
11782TIP3    H256762   1.760   1.908  14.584  0.8131 -2.0637 -1.4412
11783TIP3   OH256763   5.602   3.631  10.563 -0.0786 -0.5907 -0.4614
11783TIP3    H156764   5.579   3.717  10.597  1.5207 -0.3318  0.0133
11783TIP3    H256765   5.521   3.599  10.523 -0.6827  1.1486 -0.7114
11784TIP3   OH256766   1.029   5.793   1.999 -0.7076  0.1410  0.2106
11784TIP3    H156767   1.018   5.857   1.928 -0.0845 -0.1069 -0.1151
11784TIP3    H256768   1.065   5.715   1.956 -0.6479 -0.1285  0.7445
11785TIP3   OH256769   3.731   2.562   1.638  0.2276 -0.1669 -0.1935
11785TIP3    H156770   3.680   2.497   1.589  0.4731 -1.2378  0.9264
11785TIP3    H256771   3.809   2.576   1.585  0.3839 -1.1342 -0.2436
11786TIP3   OH256772   0.578   3.409  14.169 -0.3982  0.1171  0.1672
11786TIP3    H156773   0.605   3.450  14.251 -0.8085 -0.3441  0.5358
11786TIP3    H256774   0.507   3.464  14.137 -0.6272 -0.0368  0.4161
11787TIP3   OH256775   3.497   1.451  14.106  0.3881 -0.6619  0.4345
11787TIP3    H156776   3.507   1.378  14.166 -0.0801 -0.5757  0.6219
11787TIP3    H256777   3.442   1.418  14.035  1.1242 -0.8316 -0.0730
11788TIP3   OH256778   2.734   3.228  11.729  0.7463  0.0078 -0.4624
11788TIP3    H156779   2.654   3.214  11.780  0.1151 -0.0200 -1.4496
11788TIP3    H256780   2.792   3.157  11.757  0.5575  0.2081  0.4874
11789TIP3   OH256781   1.105   2.650   4.423  0.3672  0.1766 -0.7075
11789TIP3    H156782   1.078   2.560   4.403  0.7244  0.3083 -1.8587
11789TIP3    H256783   1.043   2.680   4.489 -1.5030  0.0030 -2.2931
11790TIP3   OH256784   5.665   1.245   3.517 -0.4278  0.3059  0.5990
11790TIP3    H156785   5.742   1.195   3.490 -0.6945 -0.1611  0.6822
11790TIP3    H256786   5.670   1.327   3.467  0.4671  0.5626  1.0860
11791TIP3   OH256787   2.342   6.565   3.430  0.1660 -0.4264  0.5966
11791TIP3    H156788   2.356   6.550   3.524 -1.8194  0.6195  1.1199
11791TIP3    H256789   2.275   6.634   3.427 -0.9107 -1.4739 -1.5769
11792TIP3   OH256790   5.008   4.940   0.072 -0.0318  0.7849  0.0297
11792TIP3    H156791   5.078   4.902   0.019 -1.2229 -0.3918 -0.7293
11792TIP3    H256792   4.968   4.866   0.117 -0.3506  1.5315  1.0277
11793TIP3   OH256793   4.813   0.485  16.792 -0.7080  0.0245  0.0589
11793TIP3    H156794   4.894   0.448  16.828 -0.7014 -0.0937 -0.0767
11793TIP3    H256795   4.748   0.417  16.803 -0.3109 -0.7206 -1.7299
11794TIP3   OH256796   5.169   2.065   3.189  0.2362 -0.2870  0.2635
11794TIP3    H156797   5.092   2.087   3.137  0.9628 -0.5818 -0.9759
11794TIP3    H256798   5.150   1.977   3.223  0.4620 -0.8125 -0.9304
11795TIP3   OH256799   4.494   1.600   2.210 -0.3343 -0.1662 -0.2904
11795TIP3    H156800   4.474   1.542   2.283 -1.2921 -1.1145 -1.2602
11795TIP3    H256801   4.588   1.616   2.216 -0.1275 -1.5133  0.2188
11796TIP3   OH256802   0.379   1.716   3.503 -0.4323  0.6441 -0.1174
11796TIP3    H156803   0.312   1.779   3.478 -1.3833 -0.7565 -1.2633
11796TIP3    H256804   0.330   1.638   3.530  0.6997  0.4061  1.4159
11797TIP3   OH256805   3.765   3.237   4.408  0.1986 -0.1973  0.0136
11797TIP3    H156806   3.755   3.277   4.322 -0.2121 -1.3937 -0.5158
11797TIP3    H256807   3.802   3.151   4.390 -0.3645 -0.6582  0.9989
11798TIP3   OH256808   6.150   0.435   0.491 -0.4380  0.2319  0.3621
11798TIP3    H156809   6.074   0.454   0.435  0.7179  2.3028 -0.6231
11798TIP3    H256810   6.164   0.515   0.541  2.0031  0.5201 -0.6295
11799TIP3   OH256811   2.809   4.357   1.166  0.2507 -0.0182  0.0742
11799TIP3    H156812   2.769   4.444   1.172  2.0467  0.7976  1.7731
11799TIP3    H256813   2.822   4.342   1.073  1.9498  2.6100 -0.2048
11800TIP3   OH256814   2.787   2.829   0.612  0.0472  0.0471 -0.0826
11800TIP3    H156815   2.804   2.916   0.648  1.4058  0.7807 -2.2781
11800TIP3    H256816   2.701   2.837   0.570  0.5913  0.6733 -1.1206
11801TIP3   OH256817   0.586   6.611  17.175  0.4726 -0.1352  0.3348
11801TIP3    H156818   0.624   6.658  17.100  0.2470 -0.3366  0.0911
11801TIP3    H256819   0.493   6.632  17.172  0.5783  0.4757  1.0223
11802TIP3   OH256820   4.024   3.921  15.058  0.2312 -1.0757 -0.0664
11802TIP3    H156821   4.090   3.984  15.086  0.0893 -1.2677  0.7187
11802TIP3    H256822   3.962   3.972  15.006  1.3543 -1.0176 -1.4361
11803TIP3   OH256823   0.164   4.883   4.284 -0.0031 -0.4158  0.0830
11803TIP3    H156824   0.097   4.891   4.352 -0.2008 -0.8798 -0.0516
11803TIP3    H256825   0.114   4.875   4.202  0.2151 -0.9092 -0.0025
11804TIP3   OH256826   5.559   5.123   4.321 -0.1814  0.3703  0.0464
11804TIP3    H156827   5.648   5.103   4.350  0.0535 -2.7488 -2.3270
11804TIP3    H256828   5.566   5.206   4.274  1.4169  0.2955  0.1098
11805TIP3   OH256829   2.660   0.066   5.763 -0.8891  0.0244 -0.0983
11805TIP3    H156830   2.709   0.107   5.834 -1.3708  2.4310 -1.0307
11805TIP3    H256831   2.608  -0.002   5.805  1.8547 -1.4588  1.1822
11806TIP3   OH256832   4.267   0.570  13.821  0.1586 -0.1139 -0.1613
11806TIP3    H156833   4.349   0.590  13.775  1.0740  1.8740  2.1250
11806TIP3    H256834   4.217   0.651  13.819 -1.7903 -1.2532 -1.3845
11807TIP3   OH256835   4.217   4.686   2.356  0.4396 -0.2931 -0.3269
11807TIP3    H156836   4.161   4.693   2.279  1.0332 -2.2315 -0.9955
11807TIP3    H256837   4.303   4.664   2.321  1.1841  0.6883  0.7985
11808TIP3   OH256838   0.681   5.878   5.399  0.3392  0.2574  0.1358
11808TIP3    H156839   0.625   5.865   5.476 -1.1774  1.6781 -0.6719
11808TIP3    H256840   0.667   5.800   5.346  1.7473 -0.9574  1.4320
11809TIP3   OH256841   6.456   3.508  13.599 -0.7716 -0.0804 -0.2422
11809TIP3    H156842   6.496   3.457  13.529 -1.4101 -4.4809  2.1946
11809TIP3    H256843   6.374   3.540  13.562 -0.4535 -1.0948 -1.9156
11810TIP3   OH256844   3.683   4.421  13.182  0.3148  0.2343  0.0239
11810TIP3    H156845   3.739   4.412  13.260 -0.1289 -0.3235  0.2905
11810TIP3    H256846   3.695   4.512  13.154 -0.6451  0.9053  1.6268
11811TIP3   OH256847   4.213   3.436  13.333  0.0380 -0.0312 -0.2910
11811TIP3    H156848   4.223   3.531  13.331  1.0179 -0.1171 -2.6732
11811TIP3    H256849   4.301   3.403  13.351  0.3046 -0.4833 -2.1943
11812TIP3   OH256850   4.967   5.810   2.383 -0.5442  0.2974  0.6251
11812TIP3    H156851   5.008   5.894   2.363  0.0746 -0.2483 -0.4759
11812TIP3    H256852   4.891   5.833   2.436 -0.2485  1.5331  0.5475
11813TIP3   OH256853   0.127   0.935   3.772 -0.4371 -0.0278 -0.4484
11813TIP3    H156854   0.091   0.998   3.709 -0.8156  0.9667  0.7174
11813TIP3    H256855   0.066   0.938   3.846 -0.3669 -1.6724 -0.3031
11814TIP3   OH256856   4.767   2.720  16.885  0.1219 -0.3882 -0.2694
11814TIP3    H156857   4.816   2.718  16.802  0.7427  1.7990 -0.0308
11814TIP3    H256858   4.773   2.811  16.913 -0.7174 -0.9331  1.8250
11815TIP3   OH256859   4.886   2.068  12.221 -0.1305 -0.0225  0.5443
11815TIP3    H156860   4.964   2.123  12.233 -0.4089  0.4506  0.2259
11815TIP3    H256861   4.920   1.978  12.222  0.8441  0.2166 -2.1708
11816TIP3   OH256862   6.706   0.033   4.322 -0.0281 -0.0230  0.1346
11816TIP3    H156863   6.759   0.010   4.399  0.1778 -0.6731 -0.1904
11816TIP3    H256864   6.747  -0.015   4.250 -0.7222 -0.0779 -0.2325
11817TIP3   OH256865   3.648   4.644   5.833  0.5603  0.4033 -0.2833
11817TIP3    H156866   3.593   4.568   5.854 -1.5419  1.2774 -2.2816
11817TIP3    H256867   3.593   4.720   5.854  1.3192  1.3281 -1.5519
11818TIP3   OH256868   1.407   5.856  14.949 -0.3296  0.6844 -0.2086
11818TIP3    H156869   1.403   5.876  14.855 -1.5675 -2.4834 -0.9712
11818TIP3    H256870   1.440   5.766  14.953 -0.1722  0.7699  2.4314
11819TIP3   OH256871   2.204   2.444   5.227 -0.0872  0.5549  0.4285
11819TIP3    H156872   2.118   2.482   5.206 -0.0341  0.3397 -0.1701
11819TIP3    H256873   2.246   2.510   5.282 -1.0246  0.2497  1.5724
11820TIP3   OH256874   6.286   2.075   0.977 -0.0802 -0.5251 -0.3917
11820TIP3    H156875   6.363   2.055   0.924  1.0444  1.1157  0.4988
11820TIP3    H256876   6.225   2.004   0.960  0.5843 -0.5289 -3.1418
11821TIP3   OH256877   6.310   2.526  16.723  0.1189  0.3865 -0.0812
11821TIP3    H156878   6.395   2.535  16.679  0.0010  0.8148 -0.2192
11821TIP3    H256879   6.325   2.562  16.811  1.5666 -4.1405  1.8477
11822TIP3   OH256880   1.501   5.218  16.670  0.4104  0.7276  0.0612
11822TIP3    H156881   1.523   5.310  16.656  1.0959  0.5967  0.2523
11822TIP3    H256882   1.407   5.213  16.652  0.2176  1.6079  0.7858
11823TIP3   OH256883   5.019   2.948   1.638 -0.4516 -0.0232  0.1433
11823TIP3    H156884   4.999   3.009   1.567 -0.1847  1.3253  1.1870
11823TIP3    H256885   5.009   3.000   1.718 -0.6863 -1.4853  1.1056
11824TIP3   OH256886   3.056   6.180   0.630 -0.5859 -0.1172  0.0408
11824TIP3    H156887   2.995   6.254   0.626  1.9474  2.0442 -1.9155
11824TIP3    H256888   3.117   6.203   0.700  0.3328 -0.2096 -0.7044
11825TIP3   OH256889   0.863   2.870  14.739 -0.7708  0.2243  0.2290
11825TIP3    H156890   0.885   2.964  14.736 -1.8104  0.6020  2.4382
11825TIP3    H256891   0.778   2.864  14.697 -0.6921  0.2700  0.0622
11826TIP3   OH256892   0.491   5.300   4.498 -0.0968 -0.5266  0.2805
11826TIP3    H156893   0.507   5.207   4.516 -1.6040 -0.8914 -0.1819
11826TIP3    H256894   0.440   5.331   4.573  0.3440 -0.0737  0.4020
11827TIP3   OH256895   1.339   1.356   2.158 -0.2980 -0.1820 -0.2125
11827TIP3    H156896   1.421   1.308   2.159  0.1062  0.4670 -1.1328
11827TIP3    H256897   1.319   1.370   2.251  0.8162 -0.0323  0.0219
11828TIP3   OH256898   0.097   4.992   5.748  0.3892  0.3168  0.6398
11828TIP3    H156899   0.109   4.940   5.669 -2.6612  0.4200 -0.0073
11828TIP3    H256900   0.182   4.988   5.792  1.8651 -0.6370 -2.0611
11829TIP3   OH256901   4.061   1.781   6.240  0.5545  0.2392 -0.1007
11829TIP3    H156902   3.987   1.810   6.293  1.1839 -0.1075  1.0107
11829TIP3    H256903   4.059   1.686   6.246 -0.3596  0.0819 -2.1359
11830TIP3   OH256904   0.197   6.373   2.064  0.8287 -0.2256 -0.3778
11830TIP3    H156905   0.262   6.304   2.056 -0.2590 -1.4327  0.6949
11830TIP3    H256906   0.135   6.356   1.993 -0.4178 -1.5094  0.9537
11831TIP3   OH256907   1.775   5.895   3.802  0.1074 -0.8947  0.1734
11831TIP3    H156908   1.793   5.856   3.888  0.1130  0.3180  0.7360
11831TIP3    H256909   1.856   5.939   3.779 -0.2906 -0.1772  0.1195
11832TIP3   OH256910   0.321   6.713  17.125  0.1488 -0.2952  0.2175
11832TIP3    H156911   0.348   6.801  17.101 -1.9587  0.9354  1.9959
11832TIP3    H256912   0.230   6.722  17.154 -0.1117 -3.0413  0.5750
11833TIP3   OH256913   2.631   5.984   0.820  0.1027  0.0139 -0.3397
11833TIP3    H156914   2.550   5.936   0.838 -0.0176  0.4388  0.2860
11833TIP3    H256915   2.684   5.924   0.768  1.0953 -1.8547  2.6442
11834TIP3   OH256916   2.889   0.311   5.831 -0.3493 -0.8745 -0.0823
11834TIP3    H156917   2.841   0.322   5.913 -2.7841  0.2131 -1.5474
11834TIP3    H256918   2.943   0.389   5.824 -1.0755 -0.3641 -0.0818
11835TIP3   OH256919   1.598   3.640  16.211 -0.0587 -0.0269 -0.3834
11835TIP3    H156920   1.627   3.656  16.121  2.5170  0.8401  0.5250
11835TIP3    H256921   1.634   3.713  16.261 -0.1670 -1.2766  1.6075
11836TIP3   OH256922   2.413   6.653   5.584 -0.7671 -0.3007 -0.5784
11836TIP3    H156923   2.448   6.619   5.666 -0.8312 -0.2923 -0.5476
11836TIP3    H256924   2.439   6.745   5.583  0.7352 -0.7092 -1.3793
11837TIP3   OH256925   2.926   1.915  14.908  0.2201  0.0011 -0.5154
11837TIP3    H156926   2.866   1.910  14.982  1.0876 -1.4841  0.1422
11837TIP3    H256927   2.997   1.855  14.931  2.2381  2.0522 -1.0419
11838TIP3   OH256928   2.860   0.396   3.832 -0.0563  0.5644  0.1134
11838TIP3    H156929   2.887   0.480   3.869  1.3096  0.0850  0.2689
11838TIP3    H256930   2.831   0.345   3.908 -1.4213  1.0686 -0.0493
11839TIP3   OH256931   1.095   5.104   5.659 -0.8289 -0.5363 -0.0912
11839TIP3    H156932   1.075   5.020   5.699  2.9316 -1.5239  0.1613
11839TIP3    H256933   1.089   5.089   5.565  0.5816 -1.4343 -0.0778
11840TIP3   OH256934   2.789   3.960  13.685 -0.3928  0.3037 -0.1994
11840TIP3    H156935   2.730   3.903  13.635 -1.4948  0.5710  0.7696
11840TIP3    H256936   2.827   4.017  13.618  0.0685 -0.9701 -1.0696
11841TIP3   OH256937   3.441   3.774  11.459 -0.1829 -0.0794  0.8722
11841TIP3    H156938   3.432   3.795  11.365 -1.9298 -1.6557  0.6291
11841TIP3    H256939   3.375   3.706  11.474 -0.7458  0.9459  3.5186
11842TIP3   OH256940   3.065   1.196  14.713 -0.7760 -0.6591 -0.2890
11842TIP3    H156941   3.148   1.174  14.755 -0.5088  1.4184  0.3907
11842TIP3    H256942   3.006   1.125  14.738  0.1063 -0.8625  1.4056
11843TIP3   OH256943   1.113   2.519  16.831  0.7285  0.5707  0.3523
11843TIP3    H156944   1.092   2.586  16.766 -2.3272  2.7812  3.2702
11843TIP3    H256945   1.173   2.563  16.891  0.8089 -0.2599  0.8958
11844TIP3   OH256946   4.486   6.194  12.364  0.2054  0.3948  0.0782
11844TIP3    H156947   4.533   6.194  12.281 -0.5566 -1.6941 -0.4080
11844TIP3    H256948   4.548   6.159  12.427 -0.3594 -1.5499 -0.3937
11845TIP3   OH256949   4.029   0.710   0.579  0.0685 -0.3219 -0.2329
11845TIP3    H156950   4.048   0.759   0.659 -0.2999 -1.5284  0.6334
11845TIP3    H256951   4.111   0.663   0.560  0.2156  0.1112 -0.6820
11846TIP3   OH256952   2.267   1.586   1.977 -0.2766 -0.1720  0.0404
11846TIP3    H156953   2.201   1.655   1.972  0.2172  0.2293 -1.8366
11846TIP3    H256954   2.237   1.520   1.914  0.8181 -0.2248 -0.4462
11847TIP3   OH256955   0.897   0.868   3.555  0.3566  0.3978 -0.2523
11847TIP3    H156956   0.977   0.901   3.515 -0.8846  2.0448 -1.4896
11847TIP3    H256957   0.927   0.826   3.636  2.5094  0.4304 -0.9515
11848TIP3   OH256958   2.289   5.185   4.658  0.1623 -0.7803 -0.0462
11848TIP3    H156959   2.350   5.259   4.662 -2.5126  1.6019 -0.5892
11848TIP3    H256960   2.307   5.144   4.573  1.7500 -0.8932  0.3123
11849TIP3   OH256961   1.598   2.166  13.340  0.1389  0.0377 -0.0500
11849TIP3    H156962   1.594   2.235  13.274 -0.5352  0.0871  0.0306
11849TIP3    H256963   1.652   2.098  13.301  0.5105  0.4582 -0.2771
11850TIP3   OH256964   2.730   2.839   1.601  0.4364  0.0217  0.2336
11850TIP3    H156965   2.723   2.813   1.509 -1.5787 -0.6893  0.5485
11850TIP3    H256966   2.789   2.914   1.600  0.2685  0.1748 -1.6611
11851TIP3   OH256967   1.005   1.820   1.382 -0.3887 -0.2056  0.3653
11851TIP3    H156968   1.094   1.854   1.389 -0.4464 -0.0397  0.2977
11851TIP3    H256969   1.014   1.726   1.398  0.1390 -0.6132 -1.9981
11852TIP3   OH256970   4.054   2.274  12.363  0.0221 -0.0297  0.1086
11852TIP3    H156971   4.052   2.180  12.344 -0.7284 -0.0266  0.1603
11852TIP3    H256972   4.144   2.300  12.345 -0.0174 -0.5527 -0.8989
11853TIP3   OH256973   6.598   5.874   5.358 -0.3350  0.0265 -0.0938
11853TIP3    H156974   6.689   5.895   5.379 -0.5476 -0.3532  1.3543
11853TIP3    H256975   6.559   5.956   5.330 -0.2985  0.9258  2.2408
11854TIP3   OH256976   0.082   4.198   0.744  0.3432 -0.6348 -0.3258
11854TIP3    H156977   0.113   4.127   0.799  0.4025 -0.6335 -0.3576
11854TIP3    H256978   0.037   4.257   0.804  2.4084  0.5631  0.1175
11855TIP3   OH256979   0.744   0.779   0.689  0.2844  0.6357  0.2249
11855TIP3    H156980   0.775   0.739   0.771 -0.3403  0.0129  0.1626
11855TIP3    H256981   0.685   0.849   0.717 -2.3547 -1.4921  0.3386
11856TIP3   OH256982   5.986   6.385   5.068 -0.5069 -0.1131 -0.1349
11856TIP3    H156983   6.036   6.416   4.993 -0.8522 -1.1972 -0.8404
11856TIP3    H256984   5.967   6.464   5.118 -0.2718  0.6410 -1.1890
11857TIP3   OH256985   6.713   0.658  12.840  0.5582 -0.5099 -0.1405
11857TIP3    H156986   6.800   0.625  12.865  0.4955  0.4609  1.4903
11857TIP3    H256987   6.682   0.705  12.918  0.0577  2.1882 -1.8651
11858TIP3   OH256988   5.231   5.195  14.891  0.5272  0.0718  0.1431
11858TIP3    H156989   5.182   5.112  14.894  1.1151 -0.2706  0.6150
11858TIP3    H256990   5.182   5.249  14.829  0.1193 -0.6216 -0.1609
11859TIP3   OH256991   6.439   2.395   1.771  0.2068  0.0641 -0.0358
11859TIP3    H156992   6.356   2.443   1.768 -0.4647 -0.9259  1.4501
11859TIP3    H256993   6.468   2.392   1.680 -2.2034 -0.9095 -0.8591
11860TIP3   OH256994   5.187   2.184   1.207 -0.0853  0.0656 -0.8710
11860TIP3    H156995   5.152   2.271   1.190  1.3379  0.5060 -1.6564
11860TIP3    H256996   5.113   2.125   1.193 -1.8689  1.2740  2.3791
11861TIP3   OH256997   3.322   6.538   3.514  0.3074 -0.1129  0.3037
11861TIP3    H156998   3.368   6.505   3.437  1.4579 -0.1001  0.9699
11861TIP3    H256999   3.374   6.613   3.543  0.7581 -1.0166  1.9684
11862TIP3   OH257000   6.001   0.748   2.883 -0.2180  0.0077  0.0497
11862TIP3    H157001   6.058   0.722   2.954  0.6472  0.2236 -0.5497
11862TIP3    H257002   6.028   0.838   2.861  0.1569 -0.3752 -1.1418
11863TIP3   OH257003   4.512   0.822  14.439  0.2987  0.7143 -0.3902
11863TIP3    H157004   4.496   0.757  14.370  1.5632  0.0965 -0.1448
11863TIP3    H257005   4.503   0.773  14.520  1.2165  0.8265 -0.2033
11864TIP3   OH257006   3.513   4.712   0.937  0.2508  0.1502  0.1566
11864TIP3    H157007   3.590   4.761   0.908 -0.4663  1.1456 -0.1380
11864TIP3    H257008   3.545   4.624   0.955  1.6406  0.8019  0.9849
11865TIP3   OH257009   5.516   4.647  12.771 -0.3777  0.4146 -0.2577
11865TIP3    H157010   5.501   4.578  12.706 -0.4798 -0.0987  0.2994
11865TIP3    H257011   5.441   4.641  12.830  0.7049 -0.4819  1.0785
11866TIP3   OH257012   3.310   5.670  16.231 -0.5123  0.0433 -0.2755
11866TIP3    H157013   3.363   5.732  16.181 -0.5162  0.2595 -0.0110
11866TIP3    H257014   3.298   5.711  16.317 -1.0275 -0.0479 -0.3009
11867TIP3   OH257015   4.564   1.679  13.430 -0.7102  0.2655  0.0362
11867TIP3    H157016   4.654   1.710  13.430 -1.1165  1.5944 -2.0857
11867TIP3    H257017   4.520   1.734  13.495  0.0133 -0.5849  1.2991
11868TIP3   OH257018   3.694   3.682  17.277 -0.4275 -0.2895 -0.3495
11868TIP3    H157019   3.772   3.638  17.244 -0.5123  0.5239 -1.7327
11868TIP3    H257020   3.621   3.632  17.242 -0.6105  2.3535 -4.4241
11869TIP3   OH257021   1.546   3.019   6.536  0.1960  0.5563  0.0225
11869TIP3    H157022   1.523   2.964   6.610 -2.9566  3.0165  1.0624
11869TIP3    H257023   1.582   3.098   6.575 -1.4110  1.8509 -0.9889
11870TIP3   OH257024   0.875   5.773  12.673  0.4801 -0.5980 -0.4389
11870TIP3    H157025   0.821   5.748  12.599  0.7527  0.1349 -0.8924
11870TIP3    H257026   0.878   5.868  12.671  0.8977 -0.5842  0.2178
11871TIP3   OH257027   5.307   4.273  14.759  0.7791  0.6038 -0.7296
11871TIP3    H157028   5.336   4.213  14.828  1.2866 -0.3324 -1.7282
11871TIP3    H257029   5.341   4.359  14.786  0.9612  0.2549  0.1815
11872TIP3   OH257030   0.805   2.023   2.164 -0.0208  0.0015  1.0125
11872TIP3    H157031   0.844   2.036   2.077  0.4852 -2.4718  0.7881
11872TIP3    H257032   0.874   1.980   2.215 -1.3094 -1.4034  1.6448
11873TIP3   OH257033   2.496   0.962  12.102 -0.2063 -0.4804 -0.4294
11873TIP3    H157034   2.514   0.904  12.027  0.6073 -2.3977  1.1639
11873TIP3    H257035   2.551   1.039  12.087 -0.8037 -0.3590 -2.2656
11874TIP3   OH257036   2.555   5.842  16.504 -0.3482 -0.1791  0.6698
11874TIP3    H157037   2.580   5.750  16.500 -0.7816 -0.2679 -1.2596
11874TIP3    H257038   2.627   5.888  16.462 -1.6587 -0.0664 -1.6230
11875TIP3   OH257039   1.495   2.799   0.381 -0.2702  0.5108  0.3670
11875TIP3    H157040   1.581   2.763   0.360 -1.3637 -1.4250 -1.1755
11875TIP3    H257041   1.470   2.757   0.463 -0.4821 -0.4152 -0.1473
11876TIP3   OH257042   1.563   3.684   2.613 -0.4083 -0.2166 -0.0212
11876TIP3    H157043   1.645   3.635   2.602 -0.8913 -1.9509  2.8103
11876TIP3    H257044   1.584   3.750   2.679 -1.3039 -0.9043  0.9943
11877TIP3   OH257045   1.429   2.153  14.440  0.0099 -0.4807  0.0691
11877TIP3    H157046   1.469   2.143  14.354  0.9067  0.1455  0.3939
11877TIP3    H257047   1.458   2.077  14.490 -1.2194 -1.3057 -0.4198
11878TIP3   OH257048   0.446   0.416   3.194  0.0321  0.1093  0.3640
11878TIP3    H157049   0.477   0.436   3.283  3.2113  1.7598 -0.9441
11878TIP3    H257050   0.517   0.366   3.154 -1.2983 -0.5582 -1.2893
11879TIP3   OH257051   4.210   0.067  16.674 -0.3877 -0.3669 -0.2044
11879TIP3    H157052   4.170  -0.015  16.647 -0.4505 -0.0104 -1.2473
11879TIP3    H257053   4.197   0.126  16.600  1.4133 -0.0167 -0.3037
11880TIP3   OH257054   4.762   0.576  11.852 -0.1690  0.0416  0.7025
11880TIP3    H157055   4.689   0.593  11.792 -0.5125 -0.7075  0.8995
11880TIP3    H257056   4.822   0.649  11.837 -1.0199  0.7496  0.6376
11881TIP3   OH257057   0.017   2.322  16.032 -0.4154 -0.1927 -0.5010
11881TIP3    H157058   0.082   2.323  16.102 -2.3027 -2.9850  1.5442
11881TIP3    H257059  -0.032   2.403  16.042  0.0808 -0.0271  0.6554
11882TIP3   OH257060   5.888   2.282  15.117 -0.2974 -0.0031  0.3537
11882TIP3    H157061   5.835   2.232  15.056  1.0799  0.1953 -1.0613
11882TIP3    H257062   5.846   2.368  15.121 -0.4742 -0.0638 -0.1910
11883TIP3   OH257063   4.817   0.136  12.645 -0.0659  0.0874 -0.5594
11883TIP3    H157064   4.785   0.113  12.733  0.8312  1.4911  0.1650
11883TIP3    H257065   4.889   0.075  12.629  1.2810  1.2627  0.6986
11884TIP3   OH257066   2.239   5.509  11.604 -0.3407  0.5843  0.2215
11884TIP3    H157067   2.268   5.567  11.675 -0.8388  1.2441 -0.0988
11884TIP3    H257068   2.302   5.524  11.534 -0.4561  0.7218  0.1468
11885TIP3   OH257069   6.117   3.592   2.456  0.0465  0.0128  0.3211
11885TIP3    H157070   6.198   3.540   2.456  2.2937  3.1984 -1.8346
11885TIP3    H257071   6.104   3.614   2.548  1.7379 -0.4123  0.7030
11886TIP3   OH257072   5.065   0.277   2.386 -0.4032  0.0716  0.4196
11886TIP3    H157073   5.113   0.322   2.316 -1.1192 -0.4319 -0.4236
11886TIP3    H257074   5.049   0.345   2.451  0.9794  0.3667  0.4859
11887TIP3   OH257075   0.407   4.572  13.948  0.1545  0.3015  0.7081
11887TIP3    H157076   0.456   4.574  13.865  0.5708  0.2854  0.9546
11887TIP3    H257077   0.315   4.575  13.921  0.2858  0.1972  0.2397
11888TIP3   OH257078   1.025   2.252  16.535 -0.1806  0.0834 -0.0653
11888TIP3    H157079   1.034   2.157  16.542 -1.4030 -0.1344 -1.0419
11888TIP3    H257080   1.050   2.284  16.621 -0.0797 -1.1574  0.3965
11889TIP3   OH257081   3.057   3.228  11.813 -0.9711  0.3243  0.0128
11889TIP3    H157082   2.981   3.180  11.846  0.8989 -1.0247  2.7834
11889TIP3    H257083   3.121   3.221  11.884  1.3142  2.4275 -1.7095
11890TIP3   OH257084   0.304   1.756  11.228  0.1065  0.2738 -0.1066
11890TIP3    H157085   0.358   1.831  11.206  0.3492  0.0728 -0.2034
11890TIP3    H257086   0.335   1.686  11.170  0.0402  0.0352  0.1426
11891TIP3   OH257087   3.328   5.916  10.348 -0.5644  0.4232 -0.3088
11891TIP3    H157088   3.270   5.939  10.276 -0.8369  1.7184  0.3001
11891TIP3    H257089   3.270   5.875  10.413 -0.7005  1.1051  0.0140
11892TIP3   OH257090   0.570   4.362  13.285  0.4904  0.0896  0.3859
11892TIP3    H157091   0.643   4.416  13.315  1.4468 -0.1079 -1.4330
11892TIP3    H257092   0.610   4.279  13.261  0.0486  0.5172 -2.2401
11893TIP3   OH257093   6.724   5.538  16.453  0.4457 -0.1541  0.5546
11893TIP3    H157094   6.680   5.615  16.488 -1.3748 -1.3506  1.0219
11893TIP3    H257095   6.667   5.507  16.384  1.4319 -0.7971 -0.0015
11894TIP3   OH257096   3.130   5.021   2.173  0.4711 -0.5248  0.7523
11894TIP3    H157097   3.174   5.092   2.221 -1.2326  0.7608  0.4992
11894TIP3    H257098   3.042   5.019   2.210  0.2091 -1.9158  0.1040
11895TIP3   OH257099   2.818   5.687   0.930 -0.0261  0.5488 -0.3594
11895TIP3    H157100   2.729   5.667   0.903 -0.3765 -0.4311  1.3442
11895TIP3    H257101   2.840   5.617   0.992  0.3583  2.9690  2.4662
11896TIP3   OH257102   3.574   5.167   4.731 -0.4167  0.1373 -0.6185
11896TIP3    H157103   3.595   5.260   4.722  0.1466  0.5241  3.1422
11896TIP3    H257104   3.612   5.142   4.815 -3.7773 -2.5369  0.3347
11897TIP3   OH257105   0.784   5.829   4.158 -0.7297 -0.0987  0.2427
11897TIP3    H157106   0.869   5.824   4.202 -1.7754 -1.9510  2.2947
11897TIP3    H257107   0.736   5.896   4.207 -0.9289 -0.0639  0.0022
11898TIP3   OH257108   6.269   0.189   2.047 -0.3127 -0.2366  0.7656
11898TIP3    H157109   6.194   0.185   2.107 -0.2985  0.5299  0.8455
11898TIP3    H257110   6.293   0.097   2.032 -2.3872 -0.6191 -0.6784
11899TIP3   OH257111   0.155   1.838   2.529 -0.0336  0.1404 -0.7276
11899TIP3    H157112   0.072   1.876   2.500 -0.9487 -0.9037  0.4214
11899TIP3    H257113   0.222   1.892   2.487 -1.2828  1.2753 -1.3380
11900TIP3   OH257114   5.292   0.444   0.220 -0.0017  0.0193  0.0105
11900TIP3    H157115   5.351   0.501   0.173  0.5053 -1.0274 -0.6536
11900TIP3    H257116   5.208   0.491   0.222  0.4445  0.8358 -0.3656
11901TIP3   OH257117   0.153   2.826  17.297 -0.0823 -0.5893  0.2379
11901TIP3    H157118   0.219   2.894  17.306 -0.1192 -0.5003 -0.1600
11901TIP3    H257119   0.117   2.839  17.210  0.1887 -1.3648 -0.0008
11902TIP3   OH257120   1.257   6.539  11.759  0.5026 -0.1815  0.2702
11902TIP3    H157121   1.190   6.515  11.822 -1.0915  0.8807 -0.9528
11902TIP3    H257122   1.211   6.547  11.676  2.6405 -2.2574 -1.2732
11903TIP3   OH257123   0.162   5.525  17.231 -0.5061 -0.6910  0.2222
11903TIP3    H157124   0.138   5.433  17.215  1.9446 -1.5399  0.9637
11903TIP3    H257125   0.179   5.560  17.144 -1.1758 -1.0371 -0.0527
11904TIP3   OH257126   5.885   0.856  13.863 -0.0712 -0.3236  0.6041
11904TIP3    H157127   5.940   0.933  13.878 -0.7376  1.6629 -4.7984
11904TIP3    H257128   5.930   0.807  13.794 -2.7946 -1.0811 -0.7819
11905TIP3   OH257129   2.950   0.280  15.035  0.3761  0.1784 -0.0258
11905TIP3    H157130   2.960   0.257  14.943  0.2348  0.0028  0.0017
11905TIP3    H257131   2.985   0.205  15.083  0.8750  0.4630  0.0638
11906TIP3   OH257132   0.892   3.151   0.819  0.0346  0.1054 -0.3447
11906TIP3    H157133   0.961   3.088   0.799  0.8550  1.1517 -0.9708
11906TIP3    H257134   0.849   3.117   0.897  0.3392 -1.3052 -0.7700
11907TIP3   OH257135   0.684   6.371   1.051 -0.3140 -0.3799  0.1346
11907TIP3    H157136   0.684   6.381   0.956  1.7586  1.4000  0.2438
11907TIP3    H257137   0.647   6.454   1.083  2.4247  0.6692  0.8634
11908TIP3   OH257138   3.040   4.767   2.575  0.0328 -0.4772  0.0163
11908TIP3    H157139   2.985   4.692   2.555 -0.6776 -0.4936  1.8045
11908TIP3    H257140   3.127   4.741   2.545 -0.7702 -0.6601 -2.3681
11909TIP3   OH257141   6.757   1.311  11.716 -0.4044 -0.2417 -0.2035
11909TIP3    H157142   6.701   1.272  11.649  0.1952  1.4877 -1.8071
11909TIP3    H257143   6.703   1.379  11.756 -0.2761 -0.2878  0.0551
11910TIP3   OH257144   4.353   4.046  16.327  0.3436 -0.1779 -0.0248
11910TIP3    H157145   4.299   4.092  16.391  0.7298  1.3258 -0.7480
11910TIP3    H257146   4.291   4.018  16.259  0.0237 -1.2677  0.6883
11911TIP3   OH257147   1.164   6.432   6.482 -0.1878  0.0245 -0.2460
11911TIP3    H157148   1.133   6.371   6.549 -1.6723  1.8088  0.7857
11911TIP3    H257149   1.085   6.460   6.437  0.5933  0.3728 -1.4319
11912TIP3   OH257150   2.140   0.016  13.309 -0.5266 -0.1161 -0.1431
11912TIP3    H157151   2.212   0.016  13.372 -0.3322  0.1958 -0.3628
11912TIP3    H257152   2.121  -0.076  13.295  0.6295 -0.2483 -0.9858
11913TIP3   OH257153   5.566   2.882  11.821  0.5202  0.1034  0.2010
11913TIP3    H157154   5.611   2.916  11.899  1.2101  0.6639 -0.4240
11913TIP3    H257155   5.495   2.945  11.805 -0.2744 -0.5791  0.9717
11914TIP3   OH257156   4.679   5.790  12.260  0.0358 -0.2556  0.0184
11914TIP3    H157157   4.621   5.814  12.188 -2.2224 -1.6832  1.2279
11914TIP3    H257158   4.685   5.869  12.314 -1.4240 -0.2583  0.2259
11915TIP3   OH257159   3.290   6.259  12.274 -0.1000  0.3943  0.8739
11915TIP3    H157160   3.224   6.276  12.341 -1.6298  1.7343 -0.8631
11915TIP3    H257161   3.275   6.168  12.249 -0.5326  0.3475  1.2850
11916TIP3   OH257162   1.029   4.911  16.698 -0.0810  0.6080 -0.3581
11916TIP3    H157163   0.994   4.998  16.678  0.8225  0.8111 -1.1280
11916TIP3    H257164   0.980   4.852  16.640 -1.3977  0.4359  0.8590
11917TIP3   OH257165   2.133   2.606   0.762  0.0973 -0.0336 -0.0312
11917TIP3    H157166   2.147   2.542   0.833  0.4362  0.0462 -0.0242
11917TIP3    H257167   2.046   2.642   0.779  0.9902  1.5078  1.5701
11918TIP3   OH257168   0.229   3.017  14.663 -0.0304  0.0574 -0.0341
11918TIP3    H157169   0.271   3.089  14.710  2.7380 -0.3719 -1.6053
11918TIP3    H257170   0.246   3.036  14.571 -0.9300 -1.6217 -0.5772
11919TIP3   OH257171   4.324   1.980   5.023  0.2891 -0.3252 -0.0983
11919TIP3    H157172   4.308   1.891   5.056  2.0797 -0.9381 -0.8074
11919TIP3    H257173   4.267   1.987   4.946 -0.5867 -0.4853  0.5121
11920TIP3   OH257174   3.570   6.429  11.660 -0.1250 -0.1141 -0.7674
11920TIP3    H157175   3.564   6.523  11.679  0.8301 -0.0093 -0.9524
11920TIP3    H257176   3.509   6.415  11.587 -1.2463  0.1097  0.1027
11921TIP3   OH257177   5.585   6.598   4.643 -0.3147  0.0766  0.5013
11921TIP3    H157178   5.641   6.673   4.625 -0.9858 -0.0876 -2.9032
11921TIP3    H257179   5.526   6.628   4.712  0.8286  1.8988  0.7537
11922TIP3   OH257180   1.384   0.164  14.365  0.1886  0.2217  0.2042
11922TIP3    H157181   1.470   0.181  14.404  0.2871  0.9579 -0.3105
11922TIP3    H257182   1.321   0.193  14.432  0.3065 -1.2215  0.9833
11923TIP3   OH257183   0.883   6.426   6.192 -0.4675 -0.2714 -0.1699
11923TIP3    H157184   0.975   6.445   6.170 -1.3675  1.7350 -2.7658
11923TIP3    H257185   0.883   6.417   6.287  1.8385  3.8705  0.5005
11924TIP3   OH257186   2.033   2.113   6.539  0.1936  0.0913 -0.9040
11924TIP3    H157187   2.065   2.023   6.532 -0.1825 -0.2484  1.2284
11924TIP3    H257188   2.104   2.161   6.582  0.8188  1.1077 -2.9450
11925TIP3   OH257189   0.508   1.583   5.940 -0.4537  0.0784  0.0518
11925TIP3    H157190   0.425   1.616   5.974 -0.0654 -0.1346  1.2381
11925TIP3    H257191   0.573   1.646   5.970  0.0842 -0.8848  0.9908
11926TIP3   OH257192   5.919   3.722  14.378  0.3296  0.1358 -0.1198
11926TIP3    H157193   5.857   3.696  14.446 -0.5165  0.7612 -0.6343
11926TIP3    H257194   5.962   3.800  14.412  0.8265 -0.2771  0.2213
11927TIP3   OH257195   6.032   1.670   1.046  0.3269  0.0401 -0.1512
11927TIP3    H157196   6.092   1.597   1.063 -1.5688 -1.5185  0.0930
11927TIP3    H257197   5.951   1.646   1.090 -0.5380  2.0776 -0.5045
11928TIP3   OH257198   3.255   2.381  11.604 -0.3639 -0.1061  0.6282
11928TIP3    H157199   3.306   2.385  11.524 -0.6075 -1.1974  0.3935
11928TIP3    H257200   3.317   2.402  11.674 -0.1824  0.9826  0.1505
11929TIP3   OH257201   3.617   0.276   2.009  0.0963 -0.1763  0.2039
11929TIP3    H157202   3.562   0.202   1.983 -1.5950  0.6928  1.1405
11929TIP3    H257203   3.649   0.253   2.097 -1.6522  0.7846  1.1431
11930TIP3   OH257204   3.202   1.503   4.975 -0.2903 -0.1021  0.6088
11930TIP3    H157205   3.163   1.416   4.983 -0.7483 -0.1154 -1.3722
11930TIP3    H257206   3.270   1.493   4.909 -1.0560  1.2425 -0.4296
11931TIP3   OH257207   6.696   4.153  13.062  0.1425  0.5617  0.1597
11931TIP3    H157208   6.785   4.125  13.081 -0.5541 -1.5579  0.5378
11931TIP3    H257209   6.660   4.180  13.147 -0.2383 -0.6614  0.4029
11932TIP3   OH257210   3.465   5.204  13.901 -0.3132 -0.0467  0.2854
11932TIP3    H157211   3.494   5.242  13.983  0.4153  0.2392 -0.1006
11932TIP3    H257212   3.420   5.275  13.855 -0.2533 -0.0607  0.2048
11933TIP3   OH257213   4.095   4.289  15.830  0.2552  0.7941  0.8954
11933TIP3    H157214   4.101   4.271  15.736  3.2007  1.0576  0.9519
11933TIP3    H257215   4.040   4.368  15.835 -1.0869  0.0143 -0.4368
11934TIP3   OH257216   3.750   0.203   0.282  0.0183 -0.0758  0.4948
11934TIP3    H157217   3.785   0.264   0.217 -1.5012 -0.1088 -0.4063
11934TIP3    H257218   3.790   0.119   0.260 -2.1925 -0.6261 -1.9907
11935TIP3   OH257219   5.590   5.534   1.019 -0.6395 -0.0462 -0.2664
11935TIP3    H157220   5.589   5.626   0.990 -0.5010  0.3880  1.0499
11935TIP3    H257221   5.588   5.484   0.937 -0.6794  1.1216 -1.0166
11936TIP3   OH257222   3.261   2.650  14.040 -0.3234 -0.5431 -0.2494
11936TIP3    H157223   3.331   2.586  14.026 -0.3739 -1.0200  1.4940
11936TIP3    H257224   3.251   2.655  14.135 -2.2427 -0.0283 -0.4331
11937TIP3   OH257225   6.057   3.289   5.654  0.4163  0.4584  0.2414
11937TIP3    H157226   5.981   3.286   5.596  0.6503 -2.8648 -0.0565
11937TIP3    H257227   6.022   3.321   5.737 -1.0779 -0.0143 -0.1791
11938TIP3   OH257228   4.940   4.280   5.402  0.1455 -0.5885 -0.4994
11938TIP3    H157229   4.846   4.263   5.408 -0.1081  0.8477  0.2177
11938TIP3    H257230   4.949   4.372   5.426  1.7994 -0.8326 -0.0280
11939TIP3   OH257231   1.732   2.907   1.086 -0.1098 -0.4956  0.0848
11939TIP3    H157232   1.794   2.918   1.157  0.4678 -0.1536 -0.4696
11939TIP3    H257233   1.763   2.831   1.038  0.6875  0.4949 -1.0077
11940TIP3   OH257234   3.408   5.452  16.364  0.3739 -0.1774  0.1969
11940TIP3    H157235   3.366   5.456  16.450 -1.5784  1.5544 -0.7570
11940TIP3    H257236   3.384   5.534  16.322  0.9387 -1.1481 -2.1662
11941TIP3   OH257237   5.853   4.536  11.267 -0.4296 -0.4496 -0.5913
11941TIP3    H157238   5.824   4.464  11.210  0.1447 -0.5115 -0.8209
11941TIP3    H257239   5.936   4.504  11.304 -0.1073  0.1445 -0.7905
11942TIP3   OH257240   5.318   2.668  15.294 -0.1264  0.3982  0.2269
11942TIP3    H157241   5.342   2.580  15.267 -0.1188  0.4068  0.2045
11942TIP3    H257242   5.288   2.710  15.213  3.0755  1.5233 -0.5366
11943TIP3   OH257243   4.588   6.217  11.676  0.4461 -0.3967 -0.1142
11943TIP3    H157244   4.568   6.223  11.582 -0.1463  1.8213  0.1103
11943TIP3    H257245   4.556   6.299  11.713  2.1942 -0.4817  1.7637
11944TIP3   OH257246   1.840   5.595  13.950 -0.2267 -0.1006 -0.1058
11944TIP3    H157247   1.782   5.612  14.024  1.6886  1.6609  1.0735
11944TIP3    H257248   1.813   5.508  13.918 -2.0868 -0.2421  1.6779
11945TIP3   OH257249   0.494   4.578  11.313 -0.0032  0.0353 -0.7007
11945TIP3    H157250   0.416   4.570  11.368 -0.1685 -1.4438 -1.0952
11945TIP3    H257251   0.460   4.572  11.224  0.3961  1.0944 -0.9258
11946TIP3   OH257252   6.562   3.866   0.367  0.0862  0.1861  0.1735
11946TIP3    H157253   6.468   3.886   0.358  0.4394  1.2219 -1.8022
11946TIP3    H257254   6.599   3.947   0.403  0.3405  0.0746  0.1578
11947TIP3   OH257255   2.957   6.728   1.018 -0.3618 -0.2387 -0.5304
11947TIP3    H157256   3.023   6.671   1.058 -0.4745  0.1670  0.2496
11947TIP3    H257257   2.997   6.815   1.018 -0.8122 -0.0332 -0.2666
11948TIP3   OH257258   3.001   1.271   4.842 -0.1617 -0.5964  0.7441
11948TIP3    H157259   2.969   1.325   4.914  0.7261  0.1074  0.6224
11948TIP3    H257260   2.934   1.280   4.774 -0.0777  0.2663  0.7661
11949TIP3   OH257261   4.236   1.265  11.497  0.5102 -0.0056 -0.1178
11949TIP3    H157262   4.172   1.203  11.534 -0.0667  0.0307 -1.0203
11949TIP3    H257263   4.186   1.346  11.484  1.6683  1.2963  2.7009
11950TIP3   OH257264   2.487   4.435   6.009  0.6696  0.0776  0.0966
11950TIP3    H157265   2.419   4.471   5.952  1.7278 -1.0099 -1.9924
11950TIP3    H257266   2.568   4.476   5.978  1.5169 -1.8841 -0.4523
11951TIP3   OH257267   5.253   3.596  12.408  0.7446 -0.6982 -0.2419
11951TIP3    H157268   5.298   3.545  12.476 -1.3731 -0.2577  1.6253
11951TIP3    H257269   5.294   3.682  12.411  0.7052 -0.6992  0.4631
11952TIP3   OH257270   5.539   5.986  14.873  0.1662 -0.3237 -0.3523
11952TIP3    H157271   5.467   6.042  14.905  0.1585  0.1893 -1.2358
11952TIP3    H257272   5.612   6.006  14.931 -0.6521 -1.5871  1.1973
11953TIP3   OH257273   0.044   2.142   5.262 -0.0319  0.6215 -0.0999
11953TIP3    H157274  -0.022   2.205   5.291 -1.0942 -0.6892  0.3886
11953TIP3    H257275   0.071   2.097   5.342  0.8627  0.5728 -0.4172
11954TIP3   OH257276   3.405   5.578   2.917 -0.0204 -0.3192  0.4975
11954TIP3    H157277   3.434   5.487   2.920 -0.2996 -0.5794 -2.3993
11954TIP3    H257278   3.447   5.614   2.839 -0.9423  1.6856  0.8717
11955TIP3   OH257279   1.086   2.126   3.027  0.3770  0.4859  0.1361
11955TIP3    H157280   1.175   2.155   3.045  0.4078  1.9144 -1.9822
11955TIP3    H257281   1.088   2.094   2.937 -1.0056 -0.6397  0.4549
11956TIP3   OH257282   1.080   5.693  11.570  0.3658 -0.1686  0.4233
11956TIP3    H157283   1.151   5.757  11.564 -0.2803  0.5954  0.7452
11956TIP3    H257284   1.040   5.709  11.655  1.1567 -2.0575  1.1997
11957TIP3   OH257285   0.253   5.449  13.603  0.0463 -0.0702 -0.5937
11957TIP3    H157286   0.275   5.372  13.551 -0.3598 -0.9241  0.4565
11957TIP3    H257287   0.197   5.415  13.673  0.0129  1.1532 -0.0012
11958TIP3   OH257288   5.419   0.283  10.909  0.6515 -0.5637 -0.0978
11958TIP3    H157289   5.489   0.333  10.950 -0.1495  0.7470 -0.2640
11958TIP3    H257290   5.448   0.270  10.818  0.8437 -0.3421 -0.0672
11959TIP3   OH257291   6.304   5.633   3.109 -1.0519  0.0709 -0.1566
11959TIP3    H157292   6.275   5.548   3.075 -0.7136 -0.2869  0.4347
11959TIP3    H257293   6.229   5.691   3.097 -1.7545 -0.6520  0.6605
11960TIP3   OH257294   3.408   5.160   2.239 -0.6978 -0.0519 -0.6544
11960TIP3    H157295   3.408   5.183   2.146  0.2223  2.4127 -0.1118
11960TIP3    H257296   3.445   5.071   2.241 -0.2654  0.0266 -2.5825
11961TIP3   OH257297   0.574   2.050  14.683 -0.7838  0.0272 -0.7788
11961TIP3    H157298   0.539   2.126  14.636  0.3702  0.4190 -1.0362
11961TIP3    H257299   0.667   2.050  14.662 -0.5638 -0.8015  0.1376
11962TIP3   OH257300   6.208   4.465  13.702 -0.1327 -0.2279 -0.5277
11962TIP3    H157301   6.228   4.551  13.739  1.2711 -0.7165 -0.0914
11962TIP3    H257302   6.210   4.479  13.607  1.8518 -0.1075 -0.5125
11963TIP3   OH257303   3.648   3.913  11.664  0.1839  0.8500 -0.6379
11963TIP3    H157304   3.562   3.952  11.650  0.7258  2.0670 -0.6766
11963TIP3    H257305   3.644   3.878  11.753 -0.7185 -0.1435 -1.0410
11964TIP3   OH257306   0.155   2.349   0.223 -0.7214  0.2777 -0.0473
11964TIP3    H157307   0.130   2.289   0.293  0.6845 -0.4012 -0.0894
11964TIP3    H257308   0.198   2.421   0.268 -1.8240  0.9578 -0.0516
11965TIP3   OH257309   0.051   2.922   5.567  0.4729 -0.2789  0.3258
11965TIP3    H157310   0.143   2.897   5.575  0.1765 -1.3402  0.5822
11965TIP3    H257311   0.053   3.016   5.554  1.7550 -0.5806 -2.3924
11966TIP3   OH257312   2.734   5.027  11.729 -0.4210 -0.2235  0.0631
11966TIP3    H157313   2.694   4.955  11.778  0.9545 -1.0664 -0.0085
11966TIP3    H257314   2.820   5.038  11.769 -0.3907  1.0259 -0.3005
11967TIP3   OH257315   1.262   1.263  12.992 -0.2891 -0.1882  0.5161
11967TIP3    H157316   1.177   1.253  12.949 -1.3563 -0.3500  2.5438
11967TIP3    H257317   1.262   1.353  13.023  0.0425 -0.3405  0.9629
11968TIP3   OH257318   1.346   6.214   3.916  0.4010 -0.1082 -0.1831
11968TIP3    H157319   1.320   6.130   3.878  2.4824 -0.2757 -1.3601
11968TIP3    H257320   1.411   6.249   3.855 -0.3709  2.3584  0.3027
11969TIP3   OH257321   2.142   1.865   2.768 -0.4806  0.1430 -0.1711
11969TIP3    H157322   2.048   1.880   2.777 -0.1954  0.9588  1.8519
11969TIP3    H257323   2.181   1.952   2.767  0.4411 -0.2044  1.7532
11970TIP3   OH257324   6.016   3.010   2.724  0.4651  0.0210  0.2192
11970TIP3    H157325   5.951   3.054   2.669  1.2259  0.5479 -0.2816
11970TIP3    H257326   6.034   3.073   2.794  1.0206  0.2276 -0.0974
11971TIP3   OH257327   3.272   0.537   1.508 -0.2229  1.0039 -0.3076
11971TIP3    H157328   3.315   0.609   1.462 -0.3911  0.8177 -0.7730
11971TIP3    H257329   3.326   0.521   1.585 -0.4721  1.9736  0.0854
11972TIP3   OH257330   5.827   6.612  14.813  0.4513 -0.1910 -0.6769
11972TIP3    H157331   5.896   6.566  14.861 -0.8107 -0.7222  0.6831
11972TIP3    H257332   5.870   6.642  14.733  2.6427  0.7354  0.7586
11973TIP3   OH257333   4.392   3.517  15.415 -0.2640 -0.3876  0.2629
11973TIP3    H157334   4.433   3.525  15.328 -2.0039 -1.8130 -0.7625
11973TIP3    H257335   4.375   3.608  15.441  0.4693  0.0851 -0.8030
11974TIP3   OH257336   4.624   4.805  14.996 -0.4383 -0.0548 -0.0161
11974TIP3    H157337   4.661   4.849  14.920  0.1278  0.7436  0.6971
11974TIP3    H257338   4.529   4.818  14.987 -0.6188 -1.9805 -1.7694
11975TIP3   OH257339   3.262   1.046  13.513  0.1822 -0.1014  0.6129
11975TIP3    H157340   3.180   1.002  13.492 -0.2106  0.9308 -0.1557
11975TIP3    H257341   3.275   1.106  13.439  2.2045 -1.0314  0.1703
11976TIP3   OH257342   0.255   0.874  16.238 -0.6430 -0.1134  0.2629
11976TIP3    H157343   0.248   0.925  16.157 -0.3985  0.2161  0.4510
11976TIP3    H257344   0.176   0.821  16.239 -0.0381 -1.0979 -0.8741
11977TIP3   OH257345   1.074   5.711   6.675 -0.2457  0.0774 -0.0966
11977TIP3    H157346   0.993   5.661   6.669  0.2480 -0.9990  1.4004
11977TIP3    H257347   1.135   5.665   6.617 -0.0387 -0.5550  0.6145
11978TIP3   OH257348   1.019   5.044  12.418 -0.1364  0.6831  0.5990
11978TIP3    H157349   1.078   5.093  12.475 -0.9902  0.5560  1.6086
11978TIP3    H257350   1.072   4.970  12.387  0.3455  0.7712  1.2049
11979TIP3   OH257351   4.716   1.936   2.261  0.2240  0.0561 -0.0926
11979TIP3    H157352   4.749   1.857   2.304  1.7439 -0.7634 -2.5334
11979TIP3    H257353   4.761   1.938   2.177  0.2916  3.6003 -0.1296
11980TIP3   OH257354   6.696   2.612   4.335 -0.1573  0.6775  0.5172
11980TIP3    H157355   6.684   2.537   4.393 -1.0632 -0.1096 -0.6409
11980TIP3    H257356   6.759   2.668   4.381  3.3164 -2.3749 -0.0765
11981TIP3   OH257357   4.919   5.431  15.826 -0.1518  0.1968 -0.2284
11981TIP3    H157358   4.910   5.499  15.892 -0.9007  1.4699 -1.5873
11981TIP3    H257359   4.871   5.356  15.861 -0.4893  0.8308  0.6739
11982TIP3   OH257360   1.412   4.712   5.572  0.2456 -0.1565 -0.3185
11982TIP3    H157361   1.442   4.794   5.610 -0.1948 -0.3818  0.5573
11982TIP3    H257362   1.399   4.731   5.479 -3.2629  1.8273  0.3889
11983TIP3   OH257363   6.436   2.178  12.585 -0.2691 -0.1321 -0.1426
11983TIP3    H157364   6.463   2.152  12.497 -1.5252 -1.8494 -0.0903
11983TIP3    H257365   6.478   2.263  12.599  2.0727 -0.9910 -1.3607
11984TIP3   OH257366   1.923   4.107   4.990  0.1334 -0.0826 -0.5043
11984TIP3    H157367   1.994   4.166   4.965 -0.1546  1.5495  2.1507
11984TIP3    H257368   1.956   4.059   5.066 -1.4150  0.4658  0.5784
11985TIP3   OH257369   3.998   2.459   4.981  0.1217 -0.7485  0.3132
11985TIP3    H157370   3.950   2.498   5.054  0.7249  0.1159  0.2682
11985TIP3    H257371   4.068   2.522   4.963  1.8234 -2.3627  0.9503
11986TIP3   OH257372   1.956   3.764   2.089  0.0106 -0.1703 -0.3360
11986TIP3    H157373   1.884   3.807   2.135  0.2787 -0.6607  0.5892
11986TIP3    H257374   1.940   3.671   2.102  1.2710 -0.2744  0.6539
11987TIP3   OH257375   0.863   6.392  10.892  0.9692  0.1985  0.5064
11987TIP3    H157376   0.930   6.447  10.851  1.8679 -0.9266  0.3905
11987TIP3    H257377   0.852   6.318  10.832  0.2587 -0.0717  0.9516
11988TIP3   OH257378   0.923   6.236  13.016  0.1930  0.2936  0.4598
11988TIP3    H157379   0.851   6.177  13.038  0.5897  0.2927  1.8749
11988TIP3    H257380   0.962   6.198  12.938  0.8447 -1.7477  1.6841
11989TIP3   OH257381   1.253   4.104  16.919  0.2204  0.5721 -0.0538
11989TIP3    H157382   1.256   4.198  16.933 -1.0057  0.4192  1.4574
11989TIP3    H257383   1.184   4.073  16.977 -0.3639 -1.0978 -1.5402
11990TIP3   OH257384   0.569   0.051  13.833  0.1462  0.1556 -0.2485
11990TIP3    H157385   0.634   0.117  13.857 -1.0132  1.2181  0.0998
11990TIP3    H257386   0.490   0.101  13.816  0.0216 -0.8610 -3.1268
11991TIP3   OH257387   3.463   0.047  12.199  0.2279 -0.0784  0.0351
11991TIP3    H157388   3.388   0.046  12.140  0.6725 -2.9128 -0.6310
11991TIP3    H257389   3.437  -0.009  12.272  1.9358 -1.9710 -0.6912
11992TIP3   OH257390   5.345   1.784   5.797 -0.1315  0.4971  0.0108
11992TIP3    H157391   5.287   1.713   5.771  0.3112  0.7316 -1.7725
11992TIP3    H257392   5.432   1.754   5.773  0.2629  0.9800  0.7859
11993TIP3   OH257393   6.311   6.695  11.349 -0.1942 -0.2575  0.1265
11993TIP3    H157394   6.382   6.634  11.368  0.7870  0.3252 -1.4825
11993TIP3    H257395   6.317   6.762  11.417 -1.8481 -2.3041  2.4616
11994TIP3   OH257396   1.707   4.364   4.249  0.0808 -0.4469 -0.2939
11994TIP3    H157397   1.727   4.362   4.343 -0.6435 -0.2301 -0.1274
11994TIP3    H257398   1.661   4.447   4.236  1.7419  0.3994 -1.1833
11995TIP3   OH257399   4.380   5.897  14.430  0.4021 -0.1253 -0.1974
11995TIP3    H157400   4.403   5.837  14.359  3.6684  0.5098  0.1572
11995TIP3    H257401   4.390   5.845  14.510  0.2059  0.0819 -0.0376
11996TIP3   OH257402   2.036   4.518  16.007  0.3150  0.4355  0.3752
11996TIP3    H157403   1.986   4.587  16.050 -0.6755 -0.3500  0.5131
11996TIP3    H257404   2.068   4.464  16.080 -0.0648 -0.0193  0.2096
11997TIP3   OH257405   2.809   4.444  15.114  0.2185  0.2356 -0.1873
11997TIP3    H157406   2.903   4.424  15.118  0.1303 -0.0594  0.5869
11997TIP3    H257407   2.778   4.398  15.037  0.4692 -0.7613  0.2843
11998TIP3   OH257408   6.659   2.184  11.117 -0.3479 -0.2875  0.0829
11998TIP3    H157409   6.728   2.154  11.177 -0.0562  1.2349  0.5666
11998TIP3    H257410   6.707   2.218  11.041 -0.3885  2.0430  0.9901
11999TIP3   OH257411   5.061   0.759   1.786  0.0692 -0.0648 -0.1003
11999TIP3    H157412   5.012   0.816   1.728 -0.0124  0.0392  0.0692
11999TIP3    H257413   4.994   0.719   1.842  0.0999 -0.5031 -0.3697
12000TIP3   OH257414   2.028   6.629   0.486 -0.5609 -0.0055  0.3897
12000TIP3    H157415   2.098   6.640   0.550  0.7200 -1.5867 -0.6770
12000TIP3    H257416   1.952   6.603   0.538  0.8283 -2.7615  1.2339
12001TIP3   OH257417   5.201   0.421  13.860  0.0892  0.4444 -0.9918
12001TIP3    H157418   5.261   0.457  13.925  0.2628  0.9059 -1.4028
12001TIP3    H257419   5.213   0.326  13.866 -1.8820  0.2363  1.5820
12002TIP3   OH257420   5.523   3.464   5.516  0.0713  0.1194  0.3706
12002TIP3    H157421   5.447   3.513   5.486 -1.0751 -0.9909  1.3479
12002TIP3    H257422   5.558   3.423   5.438 -0.6851  0.1886 -0.0126
12003TIP3   OH257423   2.923   2.003  13.003  0.2740  0.1532  0.2316
12003TIP3    H157424   2.993   1.938  13.000 -0.2216 -0.3788  0.0819
12003TIP3    H257425   2.843   1.952  13.013 -0.1763  0.6990 -0.4902
12004TIP3   OH257426   3.039   5.182   1.822  0.2664 -0.2082  0.1559
12004TIP3    H157427   3.065   5.091   1.810  1.2261  0.2364 -1.5127
12004TIP3    H257428   2.965   5.193   1.762  1.8426  0.7561 -1.6966
12005TIP3   OH257429   4.690   1.992  14.892 -0.4284  0.3543  0.5290
12005TIP3    H157430   4.629   1.969  14.822 -0.8986  1.5286  0.5278
12005TIP3    H257431   4.777   1.980  14.853 -0.6300 -1.2133  0.4978
12006TIP3   OH257432   2.834   1.468  12.299 -0.0210 -0.2188 -0.1169
12006TIP3    H157433   2.845   1.461  12.204 -0.1007  0.3565 -0.1736
12006TIP3    H257434   2.769   1.401  12.321  0.3792 -0.7006 -0.3940
12007TIP3   OH257435   0.986   6.004  16.554 -0.1922  0.3179  0.9529
12007TIP3    H157436   0.935   5.991  16.474  0.1731 -0.0914  0.7815
12007TIP3    H257437   0.965   5.929  16.609 -0.7022  0.7693  1.3923
12008TIP3   OH257438   1.829   3.534   2.461 -0.9108 -0.3213  0.2850
12008TIP3    H157439   1.852   3.463   2.401  1.3949  0.1199  0.5647
12008TIP3    H257440   1.825   3.491   2.547 -1.5275 -0.4685  0.1844
12009TIP3   OH257441   6.464   1.235   0.017  0.5199  0.1848  0.2130
12009TIP3    H157442   6.496   1.169  -0.045  0.9676  1.0189 -0.4741
12009TIP3    H257443   6.514   1.314  -0.005 -0.2032  0.8276  0.8308
12010TIP3   OH257444   5.951   3.375   5.900 -0.2329  0.3333 -0.6648
12010TIP3    H157445   5.905   3.302   5.941  0.0575 -0.9382 -2.5273
12010TIP3    H257446   6.020   3.397   5.962 -0.6352 -0.6242  0.1487
12011TIP3   OH257447   5.082   4.351  10.260 -0.0312  0.0582  0.1005
12011TIP3    H157448   5.051   4.261  10.256  1.7319 -0.5329 -0.9552
12011TIP3    H257449   5.011   4.398  10.305 -1.7274 -1.4979 -0.7996
12012TIP3   OH257450   6.010   1.060  14.000 -0.5024 -0.1524 -0.1998
12012TIP3    H157451   6.001   1.148  14.038 -1.3697  0.1151 -0.9719
12012TIP3    H257452   6.019   1.002  14.075 -1.2926  0.4547  0.3846
12013TIP3   OH257453   6.513   1.028   0.540 -0.0141 -0.0343 -0.0044
12013TIP3    H157454   6.501   0.969   0.615 -2.4315  0.7359  0.3041
12013TIP3    H257455   6.435   1.083   0.541  0.3658  0.6446 -2.5279
12014TIP3   OH257456   3.078   4.088  14.250  0.3126 -0.1307  0.5625
12014TIP3    H157457   3.100   4.163  14.304  0.9601 -0.1981  0.3941
12014TIP3    H257458   3.162   4.046  14.229  0.3430  1.0552 -2.1688
12015TIP3   OH257459   6.541   4.501   4.194 -0.8579 -0.3824 -0.2932
12015TIP3    H157460   6.599   4.510   4.269 -1.5403  2.6701 -0.0092
12015TIP3    H257461   6.584   4.437   4.138  0.3596 -1.7100  2.0294
12016TIP3   OH257462   3.950   3.212  14.496  0.2961  0.1407 -0.1834
12016TIP3    H157463   4.005   3.289  14.482  1.9673 -0.3897  2.7899
12016TIP3    H257464   4.011   3.138  14.497 -0.7810 -0.7737  0.6519
12017TIP3   OH257465   0.467   1.221  12.827 -0.3057 -0.1871 -0.0908
12017TIP3    H157466   0.406   1.251  12.759 -2.8691  1.2779  2.6000
12017TIP3    H257467   0.546   1.274  12.813 -0.5094 -0.3685 -2.2294
12018TIP3   OH257468   4.780   1.628  13.104  0.3701  0.4198 -0.4893
12018TIP3    H157469   4.714   1.570  13.066  1.0818  0.3572 -1.6756
12018TIP3    H257470   4.793   1.594  13.193  0.7057 -1.1970 -1.1174
12019TIP3   OH257471   2.771   2.865   0.069 -0.1048  0.7159 -0.1044
12019TIP3    H157472   2.836   2.841   0.135  0.9959  0.5439 -1.2118
12019TIP3    H257473   2.690   2.880   0.118  0.5515  0.0523  1.2048
12020TIP3   OH257474   1.115   1.033  15.533 -0.0023 -0.1531 -0.4868
12020TIP3    H157475   1.099   0.939  15.524 -3.0029  0.2835 -0.7514
12020TIP3    H257476   1.091   1.053  15.623 -1.9219  0.7058 -1.1318
12021TIP3   OH257477   1.343   0.125  12.352  0.5637  0.3873  0.4505
12021TIP3    H157478   1.428   0.164  12.332  1.1473 -0.6913  0.7669
12021TIP3    H257479   1.346   0.107  12.446 -0.2436  0.8623  0.5795
12022TIP3   OH257480   6.351   6.452   1.742  0.8809  0.4117  0.8358
12022TIP3    H157481   6.278   6.445   1.681  0.8324  0.6540  0.8626
12022TIP3    H257482   6.329   6.393   1.814  0.7789  0.3766  0.7750
12023TIP3   OH257483   6.456   4.590  11.223  0.2819 -0.0333 -0.1317
12023TIP3    H157484   6.495   4.544  11.148  1.2187 -0.3576  0.5395
12023TIP3    H257485   6.500   4.553  11.299 -1.1723 -0.2302  0.6497
12024TIP3   OH257486   6.472   2.137  14.356 -0.0875 -0.3561 -0.0568
12024TIP3    H157487   6.492   2.049  14.389 -2.0050  0.0233  2.4655
12024TIP3    H257488   6.554   2.168  14.318  0.4918 -3.4038 -1.5400
12025TIP3   OH257489   3.799   4.865   0.958 -0.3163  0.1227  0.3682
12025TIP3    H157490   3.822   4.812   1.034  1.3643  0.5822  0.2252
12025TIP3    H257491   3.784   4.953   0.994 -1.2234 -0.0208  0.3667
12026TIP3   OH257492   5.736   4.639  12.048  0.0575 -0.0118 -0.4799
12026TIP3    H157493   5.674   4.579  12.007  0.3082 -0.3174 -0.4077
12026TIP3    H257494   5.768   4.694  11.976 -1.7222  1.4463 -0.2618
12027TIP3   OH257495   2.904   3.952   4.595  0.3992  0.5000  0.7886
12027TIP3    H157496   2.990   3.984   4.622  0.4126  0.8966  0.3021
12027TIP3    H257497   2.887   3.998   4.512 -1.8077  3.1364  2.5208
12028TIP3   OH257498   3.652   1.195  16.264  0.4686  0.0826  0.3278
12028TIP3    H157499   3.606   1.279  16.268 -0.7693 -0.5629  0.1258
12028TIP3    H257500   3.672   1.183  16.171 -0.7401 -0.5546  0.1366
12029TIP3   OH257501   3.933   2.409   4.678  0.1090 -0.0443  0.1209
12029TIP3    H157502   3.839   2.410   4.657  0.2835  0.6889 -0.6749
12029TIP3    H257503   3.937   2.371   4.766 -0.5330 -4.6111 -1.5694
12030TIP3   OH257504   6.185   3.175   0.471 -0.0179  0.2900  0.0615
12030TIP3    H157505   6.166   3.264   0.500  0.1309  1.2127 -2.4427
12030TIP3    H257506   6.280   3.170   0.470 -0.0250 -0.0634  0.5927
12031TIP3   OH257507   6.770   0.834   4.322 -0.4061  0.5072 -0.2693
12031TIP3    H157508   6.703   0.841   4.389 -0.5816  0.5467 -0.4500
12031TIP3    H257509   6.726   0.858   4.240 -1.2809 -3.3281 -1.1197
12032TIP3   OH257510   0.880   5.931  13.751 -0.3133 -0.3840 -0.1256
12032TIP3    H157511   0.811   5.866  13.765  1.1467 -2.2240 -0.9226
12032TIP3    H257512   0.924   5.937  13.836  0.1279 -1.2183 -0.2761
12033TIP3   OH257513   0.632   4.174   2.208 -0.7723  0.2447 -0.1849
12033TIP3    H157514   0.702   4.123   2.168 -0.6204  0.9090 -0.7958
12033TIP3    H257515   0.615   4.131   2.292 -0.1553 -0.3658 -0.3672
12034TIP3   OH257516   0.198   1.085   3.274  0.0223 -0.3183 -0.0013
12034TIP3    H157517   0.192   1.140   3.352  1.8763  1.4876 -1.0526
12034TIP3    H257518   0.197   1.146   3.201 -0.2107 -1.8647 -1.3484
12035TIP3   OH257519   3.496   3.538   0.249  0.0162  0.3247  0.2404
12035TIP3    H157520   3.452   3.621   0.269 -0.3541  0.2268 -0.1381
12035TIP3    H257521   3.512   3.543   0.155 -1.1097 -0.5484 -0.0147
12036TIP3   OH257522   2.971   3.026   0.437  0.0246  1.1570  0.0984
12036TIP3    H157523   2.875   3.025   0.434  0.0444  1.1478 -0.9928
12036TIP3    H257524   2.993   3.115   0.463 -0.2772  0.6575  2.3433
12037TIP3   OH257525   2.353   4.676  13.064 -0.2644 -0.1918  0.2024
12037TIP3    H157526   2.329   4.589  13.096  0.0230  0.5230  2.5552
12037TIP3    H257527   2.386   4.661  12.976 -1.0300 -2.3426  0.2167
12038TIP3   OH257528   6.238   5.114  16.855  0.3995 -0.0945 -0.6740
12038TIP3    H157529   6.203   5.201  16.871  2.8872  0.8582 -0.0091
12038TIP3    H257530   6.301   5.126  16.784  0.7939 -1.3358 -0.5582
12039TIP3   OH257531   1.597   6.403  14.602  0.6281 -0.2683 -0.5822
12039TIP3    H157532   1.615   6.435  14.513 -0.8048  3.2638  0.2202
12039TIP3    H257533   1.502   6.395  14.606  0.5953  0.5246  0.8447
12040TIP3   OH257534   1.437   5.370  16.172  0.3141 -0.1148  0.3130
12040TIP3    H157535   1.500   5.371  16.245 -0.0211 -1.4528  0.6499
12040TIP3    H257536   1.356   5.405  16.211 -0.1045 -1.5897  0.8633
12041TIP3   OH257537   1.125   4.316  14.614 -0.2075 -0.5967  0.0317
12041TIP3    H157538   1.167   4.256  14.552 -0.8041 -1.7721  0.7322
12041TIP3    H257539   1.197   4.347  14.669  0.6437  1.8270 -2.2572
12042TIP3   OH257540   3.789   6.665   1.474 -0.6257 -0.3594 -0.3783
12042TIP3    H157541   3.796   6.576   1.510 -0.6677  0.1610  0.9635
12042TIP3    H257542   3.848   6.717   1.528 -1.5867  0.6879 -0.3070
12043TIP3   OH257543   2.153   0.266  15.407 -0.1448 -0.4614 -0.1906
12043TIP3    H157544   2.088   0.213  15.361  0.7624 -0.3578 -1.6714
12043TIP3    H257545   2.170   0.339  15.348  1.8051 -0.8608 -0.1862
12044TIP3   OH257546   3.065   2.312  11.260  0.1724 -0.1244  0.6246
12044TIP3    H157547   3.028   2.383  11.314 -1.1029 -1.0033  0.9684
12044TIP3    H257548   2.990   2.279  11.211  0.2308 -2.5846  2.0166
12045TIP3   OH257549   6.736   2.422  17.219 -0.3779  0.5070 -0.1945
12045TIP3    H157550   6.814   2.370  17.237 -0.6584 -0.1849 -0.9514
12045TIP3    H257551   6.664   2.359  17.219 -0.9210  1.1062  0.3025
12046TIP3   OH257552   3.232   2.946  13.923  0.0652 -0.2472  0.5574
12046TIP3    H157553   3.203   3.019  13.978 -1.7783 -0.9032  0.5157
12046TIP3    H257554   3.262   2.880  13.985  0.2671 -0.0517  0.6688
12047TIP3   OH257555   1.667   3.155   0.965 -0.1988 -0.2099 -0.1417
12047TIP3    H157556   1.693   3.071   1.003 -0.6429 -0.3358 -0.1024
12047TIP3    H257557   1.715   3.221   1.015 -2.0563 -0.2540  1.8218
12048TIP3   OH257558   0.189   4.908   5.478 -0.2135  0.4586  0.3356
12048TIP3    H157559   0.267   4.864   5.511  1.1305  2.4600 -0.0523
12048TIP3    H257560   0.135   4.836   5.444  1.6639 -0.9456  0.1404
12049TIP3   OH257561   1.582   1.254  14.865 -0.2381  0.4135  0.3879
12049TIP3    H157562   1.529   1.186  14.906 -0.2366 -0.0277 -0.3193
12049TIP3    H257563   1.672   1.234  14.892  0.1539 -1.5544 -1.9756
12050TIP3   OH257564   2.530   3.644   1.310  0.0208  0.2534  0.5860
12050TIP3    H157565   2.524   3.692   1.227 -1.0720  0.9817  1.0693
12050TIP3    H257566   2.483   3.699   1.373 -0.4578 -1.0003  1.3552
12051TIP3   OH257567   3.462   5.718  15.716  0.2045 -0.4254 -0.7274
12051TIP3    H157568   3.553   5.688  15.727  0.2163 -0.5784 -1.2289
12051TIP3    H257569   3.468   5.814  15.720  0.5998 -0.3659 -2.2432
12052TIP3   OH257570   3.233   4.934  16.523 -0.2398  0.1120  0.8273
12052TIP3    H157571   3.271   5.016  16.553 -0.0002 -0.2807  1.6525
12052TIP3    H257572   3.174   4.908  16.594 -0.0591 -0.5826  0.7310
12053TIP3   OH257573   6.518   0.538  11.596  0.2212  0.2579  0.2386
12053TIP3    H157574   6.572   0.459  11.605 -0.3172  0.0480  2.0732
12053TIP3    H257575   6.489   0.557  11.685  0.7118  2.8142 -0.0707
12054TIP3   OH257576   3.425   4.386  13.252 -0.5178  0.1296  0.1205
12054TIP3    H157577   3.506   4.379  13.200 -0.4912 -0.1256  0.1984
12054TIP3    H257578   3.355   4.375  13.188 -0.4827 -0.3906  0.1720
12055TIP3   OH257579   3.117   4.537   0.138  0.3311 -0.0621  0.0814
12055TIP3    H157580   3.147   4.623   0.109 -0.2372 -0.3491 -1.4219
12055TIP3    H257581   3.038   4.520   0.086 -0.1317 -1.0637  1.0722
12056TIP3   OH257582   1.824   5.286   1.141 -0.2336  0.1470  0.5624
12056TIP3    H157583   1.756   5.225   1.171 -0.8757  0.6884  0.2329
12056TIP3    H257584   1.900   5.231   1.126 -1.0203 -0.6986 -0.4544
12057TIP3   OH257585   0.665   3.016   4.985 -0.0167 -0.5119 -0.1158
12057TIP3    H157586   0.714   3.078   5.039 -0.0420 -0.4152 -0.2039
12057TIP3    H257587   0.657   2.938   5.040 -0.6772 -0.1544  0.2970
12058TIP3   OH257588   3.395   3.239  16.950  0.7317 -0.1237 -0.0699
12058TIP3    H157589   3.400   3.288  16.869  0.2204  0.0555  0.0030
12058TIP3    H257590   3.486   3.218  16.972  0.9075  0.3034 -0.3965
12059TIP3   OH257591   5.336   3.308   5.706  0.0066 -0.4962 -0.0193
12059TIP3    H157592   5.287   3.226   5.703  0.1985 -0.5992 -0.6627
12059TIP3    H257593   5.372   3.317   5.617 -0.7956  0.7627 -0.2389
12060TIP3   OH257594   4.076   0.569   3.232  0.3104 -0.6350 -0.1338
12060TIP3    H157595   4.167   0.549   3.254  1.3103  2.8582 -0.5168
12060TIP3    H257596   4.030   0.485   3.239  3.4736 -2.4584  0.3383
12061TIP3   OH257597   0.205   6.604  14.699 -0.1529 -0.2644 -0.3925
12061TIP3    H157598   0.300   6.605  14.712 -0.3620 -1.5013  1.5362
12061TIP3    H257599   0.176   6.692  14.725  0.2692 -0.4614  0.7807
12062TIP3   OH257600   4.979   6.717  11.901  0.4112 -0.9839  0.2833
12062TIP3    H157601   5.046   6.690  11.839  0.1802 -0.8004 -0.0509
12062TIP3    H257602   4.981   6.813  11.898 -2.4684 -0.8363 -2.6665
12063TIP3   OH257603   3.826   6.100   1.477 -0.1017 -0.2434  0.1798
12063TIP3    H157604   3.820   6.070   1.386 -0.7632  0.2624  0.0528
12063TIP3    H257605   3.748   6.064   1.519  0.8128 -1.5137  0.8722
12064TIP3   OH257606   5.319   6.178  16.818  0.0239  0.0902 -0.2307
12064TIP3    H157607   5.237   6.151  16.776  0.2554  0.8106 -1.1774
12064TIP3    H257608   5.303   6.165  16.912  0.0285 -3.0632 -0.5724
12065TIP3   OH257609   6.046   3.831  11.121 -0.0771 -0.4357  0.4542
12065TIP3    H157610   6.030   3.924  11.137 -1.0500 -0.7388  1.3490
12065TIP3    H257611   6.113   3.830  11.053 -0.9368  0.9308 -0.4672
12066TIP3   OH257612   1.605   1.777  12.634 -0.1654  0.2072  0.0543
12066TIP3    H157613   1.647   1.758  12.550 -0.5142 -1.9079  0.3045
12066TIP3    H257614   1.536   1.711  12.642 -0.4860  0.6961  1.7612
12067TIP3   OH257615   3.796   5.800  12.014 -0.0733  0.8002 -0.1141
12067TIP3    H157616   3.757   5.716  12.038 -0.0540  1.0324  0.7611
12067TIP3    H257617   3.890   5.787  12.025 -0.1266  1.1906  0.8755
12068TIP3   OH257618   2.619   6.615   4.528  0.2362 -0.1326  0.0315
12068TIP3    H157619   2.692   6.677   4.525  1.2844 -1.3727 -1.8600
12068TIP3    H257620   2.654   6.535   4.489 -2.6408 -0.1797 -2.8267
12069TIP3   OH257621   2.506   6.386  12.261 -0.1713  0.6178  0.0107
12069TIP3    H157622   2.592   6.343  12.257  1.1011  2.4297  3.4500
12069TIP3    H257623   2.462   6.346  12.336 -0.5787  2.4184  0.8041
12070TIP3   OH257624   4.900   5.857  13.457  0.0827  0.1946  0.0051
12070TIP3    H157625   4.947   5.938  13.478  1.2014 -0.7258  1.2801
12070TIP3    H257626   4.950   5.819  13.384  0.1185  0.2149  0.0192
12071TIP3   OH257627   5.009   3.145   0.649  0.5274 -0.6221  0.1001
12071TIP3    H157628   5.094   3.132   0.692  0.9578 -1.9340 -1.0876
12071TIP3    H257629   4.962   3.064   0.666  0.3347 -0.7593 -1.0555
12072TIP3   OH257630   5.938   6.183   0.242  0.3795 -0.6589 -0.2676
12072TIP3    H157631   5.843   6.188   0.241  0.4346  1.6665 -0.7695
12072TIP3    H257632   5.961   6.137   0.161 -0.3190  0.2581 -1.0134
12073TIP3   OH257633   6.208   1.881  15.349 -0.1203 -0.6966  0.3242
12073TIP3    H157634   6.147   1.928  15.407  2.9252  2.8568  1.0364
12073TIP3    H257635   6.171   1.891  15.262 -0.3955  1.8967  0.6599
12074TIP3   OH257636   3.704   0.023   4.493 -0.3650  0.5756  0.1292
12074TIP3    H157637   3.787   0.010   4.540  0.4188 -2.2992 -1.8140
12074TIP3    H257638   3.722   0.096   4.433  0.7083  0.0930 -0.1579
12075TIP3   OH257639   5.508   2.181  13.776  0.1705  0.0540  0.4175
12075TIP3    H157640   5.432   2.131  13.748 -0.0016  0.7748 -0.4376
12075TIP3    H257641   5.575   2.161  13.710 -0.0242  1.2401 -0.1593
12076TIP3   OH257642   4.529   4.698  12.303  0.4638 -0.0540  0.2670
12076TIP3    H157643   4.460   4.644  12.266 -0.2911  1.4016 -0.5628
12076TIP3    H257644   4.610   4.665  12.265  0.2215 -1.5952  1.0280
12077TIP3   OH257645   5.617   3.569   2.866  0.7337  0.3866 -0.4777
12077TIP3    H157646   5.572   3.486   2.849 -0.4552  0.6106  1.2835
12077TIP3    H257647   5.697   3.564   2.813  0.6068 -1.7992 -0.5767
12078TIP3   OH257648   1.423   3.113   5.808 -0.3791  0.3201  0.1365
12078TIP3    H157649   1.470   3.166   5.744 -0.0557 -0.2107 -0.0706
12078TIP3    H257650   1.491   3.058   5.849 -0.9409 -1.3073 -0.9971
12079TIP3   OH257651   3.733   3.799   5.913 -0.4067 -0.5032  0.2774
12079TIP3    H157652   3.784   3.721   5.893 -0.9736 -0.5711 -1.0093
12079TIP3    H257653   3.795   3.859   5.955  0.2594 -1.2697  0.4066
12080TIP3   OH257654   3.810   0.511   1.177  0.0386 -0.2135  0.4275
12080TIP3    H157655   3.736   0.571   1.179  0.9281  0.9078  1.1433
12080TIP3    H257656   3.887   0.568   1.172  0.9797 -1.2416  2.2052
12081TIP3   OH257657   4.439   1.091  15.860  0.1572 -0.6942  0.7807
12081TIP3    H157658   4.415   1.180  15.887  0.4664 -1.3629  3.5601
12081TIP3    H257659   4.534   1.092  15.854  0.0764 -0.4663 -0.7937
12082TIP3   OH257660   1.331   1.641   3.723  0.1424  0.4703 -0.0155
12082TIP3    H157661   1.242   1.612   3.704 -1.6675  2.1064  4.4737
12082TIP3    H257662   1.342   1.722   3.673 -1.4082  0.8972  0.3134
12083TIP3   OH257663   2.063   2.874   3.085 -0.3736  0.0144 -0.3332
12083TIP3    H157664   2.085   2.914   3.169  0.2492  1.0749 -0.9714
12083TIP3    H257665   2.141   2.822   3.062 -0.4758 -0.1405 -0.3303
12084TIP3   OH257666   5.604   5.642   0.718 -0.2680 -0.1398 -0.3046
12084TIP3    H157667   5.611   5.619   0.625  0.2862 -0.7939 -0.1172
12084TIP3    H257668   5.510   5.651   0.734 -0.3110  1.3348 -1.2342
12085TIP3   OH257669   3.923   3.726   0.545  0.2550 -0.5033 -0.2008
12085TIP3    H157670   3.885   3.751   0.461 -0.7829 -0.2765  0.3131
12085TIP3    H257671   3.982   3.799   0.567 -2.5603  1.5892  1.1681
12086TIP3   OH257672   3.378   4.152   5.507  0.5924  0.0582  0.0291
12086TIP3    H157673   3.420   4.232   5.539  0.2664 -0.2956  1.3801
12086TIP3    H257674   3.284   4.168   5.518  0.4607 -0.0356 -0.8742
12087TIP3   OH257675   1.510   3.366  10.730  0.0587  0.3606 -0.1384
12087TIP3    H157676   1.542   3.420  10.802  0.6599 -2.6725  2.0305
12087TIP3    H257677   1.431   3.412  10.699  2.0771  3.9601 -0.5116
12088TIP3   OH257678   5.798   4.463   1.688 -0.3866 -0.5230 -0.2399
12088TIP3    H157679   5.791   4.388   1.747 -0.6814  1.6433  2.7078
12088TIP3    H257680   5.892   4.472   1.672 -0.1185 -0.2076  1.3221
12089TIP3   OH257681   3.081   0.535  16.267 -0.0681 -0.0354  0.1674
12089TIP3    H157682   3.059   0.618  16.226  0.4195  0.2840  0.5259
12089TIP3    H257683   3.169   0.515  16.235 -0.1373 -0.3532  0.1738
12090TIP3   OH257684   1.958   4.101   3.951 -0.1148 -0.3641 -0.1646
12090TIP3    H157685   1.918   4.067   3.871 -1.0825 -0.2564  0.2704
12090TIP3    H257686   1.964   4.024   4.009  1.4966 -0.6672 -0.6725
12091TIP3   OH257687   1.389   1.641  12.022  0.9485 -0.2853  0.3766
12091TIP3    H157688   1.458   1.676  12.078  0.1182  0.1389  1.1826
12091TIP3    H257689   1.396   1.546  12.031  0.7129 -0.2216  1.3815
12092TIP3   OH257690   1.724   3.322  11.599 -0.0927 -0.7433  0.1764
12092TIP3    H157691   1.674   3.402  11.581 -0.2071 -0.5172  1.4116
12092TIP3    H257692   1.661   3.264  11.643  0.3939 -0.9364  0.6282
12093TIP3   OH257693   5.897   4.121   5.516  0.3489 -0.1483 -0.5708
12093TIP3    H157694   5.894   4.029   5.543 -0.0367 -0.4725 -1.6613
12093TIP3    H257695   5.853   4.168   5.587 -1.0584 -1.0264 -0.8228
12094TIP3   OH257696   5.701   5.463   3.653  0.3797  0.0501  0.3127
12094TIP3    H157697   5.675   5.484   3.564  0.8314 -2.1224 -0.3851
12094TIP3    H257698   5.786   5.505   3.664  1.3157 -1.3743 -1.0755
12095TIP3   OH257699   5.896   2.446  16.168 -0.5755  0.1280 -0.1579
12095TIP3    H157700   5.825   2.430  16.107 -1.6986  1.6270  0.6763
12095TIP3    H257701   5.976   2.433  16.117 -1.4697 -0.0242 -1.5527
12096TIP3   OH257702   3.163   2.828   0.927 -0.0612  0.2767 -0.3438
12096TIP3    H157703   3.152   2.923   0.936  0.2604  0.2401  0.5422
12096TIP3    H257704   3.074   2.794   0.916 -0.1755  0.6823 -0.6691
12097TIP3   OH257705   5.583   0.906  11.876  0.5976  0.5542  0.0183
12097TIP3    H157706   5.667   0.914  11.922  0.5822  0.8387 -0.0008
12097TIP3    H257707   5.591   0.826  11.825  1.0960  0.9103 -0.4703
12098TIP3   OH257708   2.915   5.744   0.301 -0.0881  0.4491  0.2669
12098TIP3    H157709   2.877   5.695   0.374 -0.8292 -2.1801 -1.7285
12098TIP3    H257710   3.003   5.708   0.292  0.3687  1.4873  0.4483
12099TIP3   OH257711   1.950   2.314   1.115  0.5877 -0.2473 -0.4193
12099TIP3    H157712   2.024   2.373   1.132  1.5795 -1.2602 -1.0366
12099TIP3    H257713   1.916   2.292   1.201 -0.4846  1.9959 -0.1848
12100TIP3   OH257714   1.000   0.358  12.069 -0.3875 -0.1148  0.0924
12100TIP3    H157715   1.018   0.344  12.162 -0.6660 -1.0390  0.0225
12100TIP3    H257716   0.910   0.391  12.067 -0.7115 -0.9517  0.1175
12101TIP3   OH257717   0.984   1.610  13.958 -0.4963  0.3664  0.0168
12101TIP3    H157718   1.048   1.631  14.026 -0.9434 -0.4832  0.7229
12101TIP3    H257719   0.994   1.515  13.945  0.2676  0.6522 -1.8231
12102TIP3   OH257720   6.348   2.814  16.810 -0.5255  0.0422  0.9740
12102TIP3    H157721   6.396   2.891  16.779  2.4193 -3.0405 -3.4540
12102TIP3    H257722   6.268   2.813  16.758 -0.6532  0.2174  1.1679
12103TIP3   OH257723   2.219   4.957   1.544  0.1284  0.4538 -0.2492
12103TIP3    H157724   2.202   5.016   1.471  0.5516 -0.7353 -1.3581
12103TIP3    H257725   2.296   4.994   1.587 -1.1844  2.1568  0.7303
12104TIP3   OH257726   5.461   5.732  12.293 -0.3931 -0.8308 -0.0718
12104TIP3    H157727   5.400   5.677  12.244  1.0708 -0.1517 -2.8343
12104TIP3    H257728   5.537   5.741  12.236  1.0047  0.9640  1.9038
12105TIP3   OH257729   5.211   1.558  12.968  0.3217 -0.2649 -0.6419
12105TIP3    H157730   5.195   1.480  12.915 -0.1168 -0.8027  0.2624
12105TIP3    H257731   5.163   1.542  13.049  0.0350  1.0543 -0.5399
12106TIP3   OH257732   1.493   5.548  13.678 -0.0058 -0.1061  0.2718
12106TIP3    H157733   1.440   5.495  13.737 -0.3458 -1.0071 -0.8168
12106TIP3    H257734   1.549   5.485  13.632  2.1866  0.8160  1.5019
12107TIP3   OH257735   1.145   5.192   3.086  0.3248  0.9508 -0.1308
12107TIP3    H157736   1.127   5.140   3.165  0.6547 -0.2191 -0.7975
12107TIP3    H257737   1.104   5.143   3.015 -0.9385  2.5800 -0.5704
12108TIP3   OH257738   2.742   2.205  15.632  0.0116  0.0146  0.1985
12108TIP3    H157739   2.664   2.250  15.600  0.0286 -0.4571 -0.5272
12108TIP3    H257740   2.712   2.116  15.650  0.6204 -0.4641 -1.1060
12109TIP3   OH257741   3.753   4.575  14.305 -0.2560  0.1819 -0.5347
12109TIP3    H157742   3.732   4.532  14.222  2.1824 -1.2728 -0.4827
12109TIP3    H257743   3.767   4.504  14.367 -1.3994  1.2357  1.0047
12110TIP3   OH257744   0.149   2.854   1.291  0.3426 -0.1399 -0.7910
12110TIP3    H157745   0.107   2.939   1.286 -0.3061 -0.3167  1.0660
12110TIP3    H257746   0.242   2.873   1.301  0.2448  0.3458 -0.8142
12111TIP3   OH257747   6.498   3.063  14.362  0.0632  0.0444 -0.3575
12111TIP3    H157748   6.429   3.040  14.300  0.1365  0.9577 -0.7923
12111TIP3    H257749   6.548   2.982  14.373 -1.0006 -0.6044 -0.1146
12112TIP3   OH257750   1.988   3.690   6.798 -0.0759  0.4661  0.7682
12112TIP3    H157751   1.982   3.667   6.705 -1.5121  0.5619  0.8122
12112TIP3    H257752   2.009   3.607   6.841  0.2872  0.3561  0.3888
12113TIP3   OH257753   4.825   4.335  12.200  0.6438  0.2179  0.0400
12113TIP3    H157754   4.905   4.296  12.164  0.1422 -0.1674 -0.6809
12113TIP3    H257755   4.762   4.329  12.129 -0.0968  0.3202  0.6791
12114TIP3   OH257756   4.622   5.551   1.552 -0.6915 -0.0792 -0.2073
12114TIP3    H157757   4.530   5.536   1.572 -0.2757 -0.6635  1.4344
12114TIP3    H257758   4.669   5.522   1.631  0.9416 -0.4463 -1.2642
12115TIP3   OH257759   3.685   4.963  16.218  0.7390  0.0838  0.2529
12115TIP3    H157760   3.768   4.934  16.256  1.5282  0.8288 -0.8173
12115TIP3    H257761   3.633   4.884  16.211  2.0192 -0.7279 -0.6285
12116TIP3   OH257762   1.806   0.914   3.683  0.0868 -0.0214  0.7338
12116TIP3    H157763   1.880   0.908   3.623  0.1805 -0.0642  0.8537
12116TIP3    H257764   1.755   0.989   3.651 -0.9929 -1.2968 -0.6641
12117TIP3   OH257765   2.083   3.396   2.330 -0.2166  0.0040 -0.4026
12117TIP3    H157766   2.160   3.365   2.282 -0.1907 -1.1158  0.3364
12117TIP3    H257767   2.118   3.430   2.412 -0.4551  0.1683 -0.3656
12118TIP3   OH257768   4.638   1.035   5.144  0.4069  0.1688 -0.0865
12118TIP3    H157769   4.653   0.973   5.216  0.5941  0.1451 -0.1440
12118TIP3    H257770   4.682   0.995   5.069 -1.6708 -0.9249 -0.8087
12119TIP3   OH257771   1.156   2.110  14.776  0.1953  0.2167 -0.4988
12119TIP3    H157772   1.191   2.187  14.732  0.0265  0.8656  0.4736
12119TIP3    H257773   1.226   2.080  14.833 -0.4118  0.9036  0.6689
12120TIP3   OH257774   0.912   4.019  12.674  0.5468 -0.4916 -0.4150
12120TIP3    H157775   0.936   3.931  12.646 -3.6001 -1.2643 -2.2757
12120TIP3    H257776   0.947   4.026  12.763  0.1175 -4.4603  0.2524
12121TIP3   OH257777   1.396   0.487  11.412  0.0386 -0.2384  0.2012
12121TIP3    H157778   1.307   0.494  11.446  0.0743  1.1691  0.0455
12121TIP3    H257779   1.385   0.461  11.320 -0.2257  0.2691  0.0890
12122TIP3   OH257780   6.577   6.479  13.541  0.4031 -0.6454 -0.2581
12122TIP3    H157781   6.541   6.537  13.608  0.0632 -2.3020  1.0700
12122TIP3    H257782   6.672   6.487  13.551  0.3582 -0.3252 -0.0818
12123TIP3   OH257783   1.220   3.317   0.562  0.4849  0.0531 -0.2902
12123TIP3    H157784   1.272   3.340   0.484 -0.2485 -0.6607 -1.0101
12123TIP3    H257785   1.267   3.359   0.634  2.4464 -1.0953 -0.8094
12124TIP3   OH257786   0.005   5.980  16.010  0.3276 -0.1219  0.1586
12124TIP3    H157787   0.090   6.024  16.003  0.2800 -0.0083  0.2837
12124TIP3    H257788   0.020   5.909  16.072 -0.3880  1.7157  2.6067
12125TIP3   OH257789   0.590   5.136  16.032 -0.4814  0.5189  0.5854
12125TIP3    H157790   0.561   5.109  15.945  0.7520 -1.5808  0.7701
12125TIP3    H257791   0.532   5.090  16.092 -0.2022  0.5716  0.8999
12126TIP3   OH257792   4.615   5.873  15.218 -0.6899  0.4437 -0.0377
12126TIP3    H157793   4.563   5.921  15.153  1.5251  1.8479 -0.9174
12126TIP3    H257794   4.699   5.919  15.218  0.1845 -1.0536  2.0824
12127TIP3   OH257795   6.161   5.416   2.310  0.0085  0.2113 -0.2341
12127TIP3    H157796   6.248   5.421   2.270  1.1275  0.4981  2.0296
12127TIP3    H257797   6.179   5.412   2.404 -2.5206  3.2812  0.5355
12128TIP3   OH257798   0.718   0.437   2.939 -0.2059 -0.0980 -0.0028
12128TIP3    H157799   0.770   0.419   2.860 -1.0139 -0.5072 -0.4453
12128TIP3    H257800   0.703   0.532   2.936 -2.2080 -0.4085 -1.6058
12129TIP3   OH257801   5.941   1.359  13.363 -0.3852  0.1687  0.6558
12129TIP3    H157802   5.980   1.354  13.450 -2.2452  2.0117  1.6727
12129TIP3    H257803   5.965   1.445  13.330  1.7474 -1.1218 -1.4914
12130TIP3   OH257804   0.544   0.770  13.398 -0.6330 -0.3314 -0.5913
12130TIP3    H157805   0.506   0.849  13.435 -1.7299 -0.9898 -0.2833
12130TIP3    H257806   0.520   0.772  13.306 -1.1304 -0.5794 -0.4678
12131TIP3   OH257807   2.021   4.560  13.777 -0.7052 -0.1619  0.1346
12131TIP3    H157808   1.956   4.492  13.795 -2.1973  1.2658  0.4498
12131TIP3    H257809   1.998   4.631  13.836  2.6489 -0.4240  2.0053
12132TIP3   OH257810   1.187   6.661   1.625  0.6230 -0.0636 -0.3953
12132TIP3    H157811   1.117   6.625   1.570  1.7532 -4.1429  0.5088
12132TIP3    H257812   1.143   6.684   1.707 -0.2323  1.2473 -1.1844
12133TIP3   OH257813   0.724   6.141   0.833  0.3660 -0.2615  0.0246
12133TIP3    H157814   0.702   6.232   0.817  1.2306  0.2474  1.5226
12133TIP3    H257815   0.810   6.129   0.792  1.2011  0.2074  1.5594
12134TIP3   OH257816   6.338   5.603  17.048 -0.0126  0.0101  0.0160
12134TIP3    H157817   6.263   5.547  17.066 -0.5429  0.7393  0.1070
12134TIP3    H257818   6.301   5.690  17.033  0.6554  0.0412 -1.7255
12135TIP3   OH257819   3.828   0.973   5.687 -0.3294 -0.0295 -0.1341
12135TIP3    H157820   3.866   0.969   5.600 -3.0302 -0.4293 -1.3787
12135TIP3    H257821   3.828   0.882   5.718 -0.2787 -0.0323 -0.1429
12136TIP3   OH257822   4.810   3.390  13.820  0.2463  0.6189  0.2349
12136TIP3    H157823   4.843   3.479  13.810 -0.3465  0.8269  0.0677
12136TIP3    H257824   4.768   3.389  13.906 -0.5174  0.7612 -0.1266
12137TIP3   OH257825   0.008   4.553   2.078  0.1627 -0.4373 -0.1863
12137TIP3    H157826   0.016   4.545   2.173  3.8253 -0.2669 -0.3239
12137TIP3    H257827  -0.039   4.475   2.050  0.0472 -1.0620  1.6731
12138TIP3   OH257828   4.930   1.069   2.581 -0.3196  0.4905 -0.1406
12138TIP3    H157829   5.024   1.056   2.575 -0.1863  1.2633  0.1919
12138TIP3    H257830   4.919   1.144   2.639 -1.1837 -0.1975  0.6185
12139TIP3   OH257831   1.544   6.338  11.771  0.4488  0.1800 -0.4223
12139TIP3    H157832   1.549   6.267  11.835  2.0792 -0.3235 -1.0716
12139TIP3    H257833   1.548   6.294  11.687  3.0413  1.0693 -0.8464
12140TIP3   OH257834   2.642   6.621   3.250 -0.0496  0.3921 -0.3408
12140TIP3    H157835   2.671   6.530   3.241  2.0221  0.9883 -0.1937
12140TIP3    H257836   2.592   6.622   3.331 -1.7996 -0.9836 -1.3326
12141TIP3   OH257837   3.540   5.887   0.171 -0.1076  0.1908 -0.1053
12141TIP3    H157838   3.574   5.967   0.130 -0.6912 -0.2035 -1.4391
12141TIP3    H257839   3.557   5.898   0.264 -0.9895  2.2937 -0.1448
12142TIP3   OH257840   6.251   6.004   4.482 -0.0391  0.2517  0.2280
12142TIP3    H157841   6.215   6.078   4.531 -0.8335 -0.5673  0.9198
12142TIP3    H257842   6.281   5.943   4.550 -0.3780 -0.5252 -0.3029
12143TIP3   OH257843   3.697   6.382  12.143 -0.0495  0.4703  0.1137
12143TIP3    H157844   3.773   6.401  12.197  0.2969  0.7287 -0.4528
12143TIP3    H257845   3.662   6.301  12.179  1.3361 -0.4401 -0.5129
12144TIP3   OH257846   4.504   1.474  12.556 -0.0857 -0.1647 -0.0294
12144TIP3    H157847   4.591   1.512  12.549 -1.1670  2.3172 -1.3221
12144TIP3    H257848   4.501   1.408  12.486  0.7937 -0.3735  0.1236
12145TIP3   OH257849   5.146   4.441  12.474  0.9661 -0.0337 -0.2499
12145TIP3    H157850   5.158   4.496  12.551 -1.0010  0.3952 -0.2032
12145TIP3    H257851   5.207   4.368  12.486  0.4128 -0.1821  1.9179
12146TIP3   OH257852   4.457   2.474   0.375  0.1399  0.3399  0.6019
12146TIP3    H157853   4.375   2.439   0.340 -0.2071  0.4060  1.3397
12146TIP3    H257854   4.486   2.408   0.438  1.4836 -0.4482 -0.7847
12147TIP3   OH257855   4.871   5.591  12.835 -0.0463  0.2473 -0.2419
12147TIP3    H157856   4.961   5.601  12.867  1.1121  1.0422 -3.4101
12147TIP3    H257857   4.868   5.503  12.799  0.7054  1.3596 -3.3150
12148TIP3   OH257858   1.230   3.114  15.166  0.3005 -0.2576 -0.2291
12148TIP3    H157859   1.258   3.129  15.257  1.4000  1.1984 -0.7677
12148TIP3    H257860   1.152   3.168  15.155  1.6699  1.6939 -0.8614
12149TIP3   OH257861   4.048   4.102  12.664 -0.1625 -0.1215  0.1011
12149TIP3    H157862   4.122   4.066  12.713  0.3193  0.2548 -0.3410
12149TIP3    H257863   4.070   4.087  12.572  0.6216  2.2748 -0.1768
12150TIP3   OH257864   3.306   3.554  13.160  0.4021  0.0947 -0.2268
12150TIP3    H157865   3.338   3.550  13.069  1.1316  0.6072 -0.0023
12150TIP3    H257866   3.381   3.587  13.210  0.5944 -1.8771  0.8632
12151TIP3   OH257867   3.522   5.397  12.357  0.1497 -0.9195 -0.2074
12151TIP3    H157868   3.481   5.479  12.327  1.0504  0.4465  2.0047
12151TIP3    H257869   3.529   5.344  12.278 -3.1436 -0.0830 -1.2207
12152TIP3   OH257870   3.312   0.882   3.990  0.2076 -0.2078 -0.0625
12152TIP3    H157871   3.354   0.842   3.913  1.5964  0.5916  0.2390
12152TIP3    H257872   3.232   0.921   3.956  1.6598  1.6757 -1.5065
12153TIP3   OH257873   0.149   1.736  12.027  0.0369 -0.2408  0.1895
12153TIP3    H157874   0.243   1.724  12.024  0.2455  0.7007  1.5973
12153TIP3    H257875   0.122   1.746  11.936  1.4884  0.7684 -0.1607
12154TIP3   OH257876   0.584   3.655   4.184  0.2267  0.5395  0.3407
12154TIP3    H157877   0.670   3.697   4.176  0.3631  0.3296  0.6494
12154TIP3    H257878   0.593   3.573   4.135  0.5948 -0.0505  1.3481
12155TIP3   OH257879   6.211   4.411   2.250 -0.0195 -0.0778  0.0422
12155TIP3    H157880   6.295   4.418   2.205 -1.1929  2.1745 -2.0638
12155TIP3    H257881   6.147   4.443   2.186 -2.0053  1.9429  2.8082
12156TIP3   OH257882   5.600   5.138   5.454 -0.3589 -0.1559  0.0958
12156TIP3    H157883   5.607   5.052   5.411 -2.9295  0.2700 -1.3506
12156TIP3    H257884   5.563   5.118   5.540 -1.7826 -0.4713 -0.5620
12157TIP3   OH257885   1.909   5.530   1.208 -0.5343 -0.5706 -0.3369
12157TIP3    H157886   1.966   5.507   1.282 -1.7121 -0.2199  0.7145
12157TIP3    H257887   1.872   5.447   1.180  0.2924 -0.7698 -0.8695
12158TIP3   OH257888   5.351   5.647   0.808  0.2879  0.0368  0.0595
12158TIP3    H157889   5.311   5.724   0.767 -1.5982 -0.8281  0.1893
12158TIP3    H257890   5.333   5.659   0.902  0.2445 -0.4108  0.1095
12159TIP3   OH257891   1.422   0.188  11.255  0.3298  0.3022  0.2454
12159TIP3    H157892   1.467   0.141  11.326 -0.2278 -1.1336 -0.3084
12159TIP3    H257893   1.333   0.153  11.256 -0.1943  1.5951 -0.0110
12160TIP3   OH257894   6.410   6.750   3.223 -0.0525  0.3455 -0.3970
12160TIP3    H157895   6.357   6.740   3.302  0.0119 -1.4431 -0.5565
12160TIP3    H257896   6.450   6.665   3.209  0.2387  0.7280 -2.1490
12161TIP3   OH257897   2.604   2.633   4.529 -0.2374 -0.1949 -0.2198
12161TIP3    H157898   2.553   2.552   4.529  0.3224 -0.5521 -0.1788
12161TIP3    H257899   2.660   2.625   4.606 -1.2551  0.9186  0.6732
12162TIP3   OH257900   5.908   0.419   1.473  0.3794 -0.1128 -0.1761
12162TIP3    H157901   5.927   0.513   1.470 -0.5089  0.0462 -2.3391
12162TIP3    H257902   5.819   0.412   1.439 -0.6390 -1.5273  2.5271
12163TIP3   OH257903   6.230   0.647  16.589 -0.9464  0.2861  0.2362
12163TIP3    H157904   6.205   0.589  16.517  0.1984  0.2103 -0.1251
12163TIP3    H257905   6.161   0.636  16.654 -0.7801 -1.4857  0.1704
12164TIP3   OH257906   5.046   4.906  12.456 -0.2533  0.2981  0.0768
12164TIP3    H157907   5.062   4.822  12.413 -1.5133 -1.1277  2.1811
12164TIP3    H257908   5.133   4.944  12.468  0.1885  0.6109 -3.2084
12165TIP3   OH257909   5.669   2.600  14.131  0.4334  0.2297  0.6958
12165TIP3    H157910   5.676   2.695  14.138  0.6712  0.1358  1.8738
12165TIP3    H257911   5.691   2.581  14.040  2.4064  1.1403  0.9300
12166TIP3   OH257912   0.797   6.251   2.453 -0.1251  0.3647  0.2739
12166TIP3    H157913   0.708   6.245   2.488 -0.1852  2.3842  0.6062
12166TIP3    H257914   0.785   6.274   2.361 -0.0046  2.6107  0.7672
12167TIP3   OH257915   0.636   2.778   0.738 -0.3522 -0.1169  0.1176
12167TIP3    H157916   0.730   2.762   0.736 -0.5288 -1.2293 -0.4082
12167TIP3    H257917   0.623   2.853   0.681  0.4975  1.9216  2.4230
12168TIP3   OH257918   0.199   5.447  13.153 -0.0591 -0.0231 -0.2192
12168TIP3    H157919   0.106   5.468  13.159 -0.2388 -0.6531 -0.7453
12168TIP3    H257920   0.226   5.479  13.067 -0.1039 -1.0064 -0.6128
12169TIP3   OH257921   0.271   3.673   5.263  0.2418  0.0950  0.6930
12169TIP3    H157922   0.192   3.701   5.217  0.4660  2.0378  1.4056
12169TIP3    H257923   0.332   3.747   5.254  1.9952 -1.3408  0.1716
12170TIP3   OH257924   0.746   5.923  13.256 -0.2395 -0.5911 -0.1627
12170TIP3    H157925   0.727   5.958  13.169  2.8018  0.1246 -0.6636
12170TIP3    H257926   0.732   5.998  13.315  0.8940 -0.0573 -0.5287
12171TIP3   OH257927   5.028   5.558   4.406 -0.4189 -0.1411 -1.1223
12171TIP3    H157928   4.963   5.504   4.362 -0.6646 -0.1690 -0.7275
12171TIP3    H257929   4.977   5.621   4.457 -0.1355 -0.3123 -0.6255
12172TIP3   OH257930   1.285   1.132  13.471 -0.4884 -0.3749 -0.1676
12172TIP3    H157931   1.296   1.115  13.565 -0.0865  2.3878  0.3864
12172TIP3    H257932   1.374   1.133  13.437 -0.5642 -0.3466 -0.3634
12173TIP3   OH257933   3.037   5.730   5.774 -0.1309  0.1757  0.2413
12173TIP3    H157934   3.038   5.656   5.834  0.2245 -0.2438 -0.2617
12173TIP3    H257935   3.098   5.704   5.704  0.1180  1.0080  0.1395
12174TIP3   OH257936   1.895   1.531  17.191  0.6341  0.2695  0.5133
12174TIP3    H157937   1.984   1.521  17.225  0.5813 -1.3808  0.2421
12174TIP3    H257938   1.838   1.499  17.261  0.3940 -0.7040 -0.0973
12175TIP3   OH257939   3.435   0.562  16.223  0.1678 -0.3593 -0.1328
12175TIP3    H157940   3.493   0.617  16.274  0.0627 -1.0594  0.7724
12175TIP3    H257941   3.419   0.611  16.142  0.6503  0.5883  0.3382
12176TIP3   OH257942   5.489   4.891  10.495 -0.1604 -0.0862 -0.1247
12176TIP3    H157943   5.461   4.826  10.559 -0.7381  1.5814  1.3732
12176TIP3    H257944   5.562   4.849  10.449 -0.2563 -1.6364  1.0575
12177TIP3   OH257945   5.852   1.358  14.918 -0.2165  0.0903  0.6590
12177TIP3    H157946   5.848   1.263  14.911 -0.4661  0.2045 -1.0800
12177TIP3    H257947   5.761   1.386  14.906  0.1353  0.6421 -0.8879
12178TIP3   OH257948   0.293   3.235  14.150  0.9207  0.0368 -0.6632
12178TIP3    H157949   0.284   3.199  14.238  0.9898 -1.4809 -1.2489
12178TIP3    H257950   0.385   3.262  14.145  1.7209 -2.4873 -1.1610
12179TIP3   OH257951   0.439   2.291  13.276  0.2473 -0.5334  0.8895
12179TIP3    H157952   0.497   2.294  13.201 -1.6642 -2.4297 -0.8023
12179TIP3    H257953   0.451   2.375  13.320  2.6014 -0.0155 -0.5715
12180TIP3   OH257954   2.772   5.096   3.035 -0.0263  0.1741 -0.2226
12180TIP3    H157955   2.676   5.098   3.044 -0.1018 -1.3131 -0.4975
12180TIP3    H257956   2.800   5.181   3.069 -1.4715  0.8328 -0.5713
12181TIP3   OH257957   6.301   4.981  11.609 -0.1116  0.2888  0.5318
12181TIP3    H157958   6.396   4.978  11.623 -0.2291 -1.1109  1.2172
12181TIP3    H257959   6.264   4.954  11.693 -1.0616 -0.6405 -0.1619
12182TIP3   OH257960   1.720   1.049  12.576 -0.2750 -0.1908 -0.6928
12182TIP3    H157961   1.802   1.003  12.594  0.6363  0.3596 -3.0383
12182TIP3    H257962   1.718   1.120  12.640  1.4559  0.1751 -0.9906
12183TIP3   OH257963   1.584   5.451   3.643  0.0305  0.3506 -0.1034
12183TIP3    H157964   1.659   5.506   3.620 -0.0845  0.4428 -0.2641
12183TIP3    H257965   1.510   5.493   3.599  0.1762 -0.7706 -1.4807
12184TIP3   OH257966   0.270   0.338   3.622  0.1069 -0.4289 -0.0165
12184TIP3    H157967   0.270   0.246   3.646  1.4643 -0.5772 -0.5311
12184TIP3    H257968   0.339   0.377   3.675 -0.2530  0.2407 -0.0265
12185TIP3   OH257969   2.877   0.160   1.454 -0.2018 -1.1170 -0.0275
12185TIP3    H157970   2.782   0.169   1.451 -0.2233 -0.9808  0.8282
12185TIP3    H257971   2.892   0.065   1.446 -0.3516 -1.0679 -1.0737
12186TIP3   OH257972   0.809   1.348   0.999 -0.2009 -0.2686 -0.2992
12186TIP3    H157973   0.862   1.400   1.059 -1.4633  0.1624  0.4736
12186TIP3    H257974   0.866   1.334   0.923  0.5728  1.2561 -0.0367
12187TIP3   OH257975   1.283   4.596   6.280  0.1330 -0.3782  0.1241
12187TIP3    H157976   1.330   4.514   6.297  1.3018  0.4175  0.8996
12187TIP3    H257977   1.321   4.659   6.342 -1.8533  0.3656  0.6507
12188TIP3   OH257978   1.553   6.340   5.246 -0.4873  0.0188  0.4643
12188TIP3    H157979   1.508   6.417   5.210  0.2349  0.4986  0.5731
12188TIP3    H257980   1.630   6.329   5.190 -0.6646 -0.7239  0.3532
12189TIP3   OH257981   4.002   1.228   4.532 -0.0946  0.1083  0.4560
12189TIP3    H157982   3.939   1.158   4.512 -0.0963  0.5912 -1.3917
12189TIP3    H257983   3.969   1.268   4.612 -2.3238  0.5175 -0.6068
12190TIP3   OH257984   5.794   3.094  11.053  0.6229 -0.0629  0.3713
12190TIP3    H157985   5.714   3.069  11.100 -0.0484 -1.0287 -1.2170
12190TIP3    H257986   5.763   3.138  10.974  1.6650 -0.1316 -0.0945
12191TIP3   OH257987   1.048   1.835  15.176  0.3421 -0.3096 -0.0493
12191TIP3    H157988   1.018   1.751  15.141 -1.6282 -0.1610  1.1745
12191TIP3    H257989   0.997   1.900  15.128  1.3752  0.1929 -0.5064
12192TIP3   OH257990   6.434   6.693  15.149  0.0272  0.0420  0.3770
12192TIP3    H157991   6.375   6.768  15.149  2.7858  2.4145 -1.1388
12192TIP3    H257992   6.466   6.688  15.239 -0.0791  0.7671  0.4561
12193TIP3   OH257993   0.707   4.782  14.000 -1.0598  0.1090  0.1849
12193TIP3    H157994   0.724   4.825  13.916 -1.5627  2.9526  1.3987
12193TIP3    H257995   0.779   4.810  14.057  0.3895 -3.3618  0.3167
12194TIP3   OH257996   1.417   2.553   4.209  0.0603 -0.5496  0.9596
12194TIP3    H157997   1.410   2.615   4.137  3.6675 -2.1254 -0.9803
12194TIP3    H257998   1.329   2.517   4.218 -1.2617  2.0746 -0.3213
12195TIP3   OH257999   6.246   4.035   0.831  0.2117  0.0384  0.3726
12195TIP3    H158000   6.185   3.963   0.811  0.5386 -0.2725  0.4769
12195TIP3    H258001   6.298   4.046   0.752  0.9562 -0.6432  0.7466
12196TIP3   OH258002   3.087   2.027   3.080  0.7732  0.3948 -0.0064
12196TIP3    H158003   3.039   1.993   3.005  0.0404  0.9487  0.1991
12196TIP3    H258004   3.176   1.994   3.069  0.0840 -1.6484  0.2277
12197TIP3   OH258005   0.604   0.132  17.225 -0.6805  0.0365  0.2817
12197TIP3    H158006   0.608   0.147  17.320  2.5018 -1.0695  0.4553
12197TIP3    H258007   0.598   0.037  17.217 -0.2983  0.0826 -0.6007
12198TIP3   OH258008   5.373   4.036   1.224  0.1049 -0.2721  0.4959
12198TIP3    H158009   5.326   3.984   1.289  1.0298  0.3580  1.7081
12198TIP3    H258010   5.461   3.999   1.223  0.3246  0.2540  0.1969
12199TIP3   OH258011   0.250   4.253  14.047 -0.1959 -0.0796  0.0233
12199TIP3    H158012   0.257   4.325  14.109 -1.0418  1.2688 -1.3988
12199TIP3    H258013   0.306   4.278  13.974 -2.8772  0.6726 -1.8818
12200TIP3   OH258014   2.361   4.735  11.868  0.2791  0.3291 -0.0480
12200TIP3    H158015   2.289   4.767  11.814 -0.2693  0.0787  0.5223
12200TIP3    H258016   2.340   4.643  11.883  1.1230  0.0401 -0.5128
12201TIP3   OH258017   6.587   2.964   1.531  0.0499  0.3773 -0.3571
12201TIP3    H158018   6.598   2.898   1.599  1.4317  0.2640 -0.6647
12201TIP3    H258019   6.674   2.974   1.493 -0.4698  1.2486 -1.3643
12202TIP3   OH258020   6.109   3.194  14.106  0.0782 -0.4407 -0.5548
12202TIP3    H158021   6.175   3.126  14.088  1.9844  1.8678 -3.0015
12202TIP3    H258022   6.050   3.190  14.031  0.4709  0.8622 -0.9447
12203TIP3   OH258023   1.976   1.448   2.006  0.1533 -0.6247 -0.0759
12203TIP3    H158024   1.886   1.417   1.998  0.1392 -0.4264 -0.6655
12203TIP3    H258025   1.969   1.535   2.044  0.0730 -0.4277 -0.5437
12204TIP3   OH258026   4.086   2.397   3.009 -0.6102  0.0043 -0.1940
12204TIP3    H158027   4.168   2.437   2.982  0.0072 -0.7044  0.5944
12204TIP3    H258028   4.021   2.431   2.947  0.2225  0.7651 -0.6652
12205TIP3   OH258029   5.193   4.854   1.729 -0.3379 -0.7176 -0.3360
12205TIP3    H158030   5.177   4.948   1.720  0.0588 -0.7458 -1.5233
12205TIP3    H258031   5.289   4.847   1.728 -0.3720 -1.1540 -0.5429
12206TIP3   OH258032   6.192   0.729  14.453 -0.1774  0.0295  0.4590
12206TIP3    H158033   6.210   0.771  14.368 -1.6025  0.3642  0.3030
12206TIP3    H258034   6.279   0.715  14.491  0.4442  0.7771 -0.6204
12207TIP3   OH258035   6.583   2.874   3.635 -0.2212  0.0153 -0.2111
12207TIP3    H158036   6.670   2.905   3.659 -0.2068 -0.9138  1.0033
12207TIP3    H258037   6.523   2.934   3.680 -0.3503  2.2242 -2.9627
12208TIP3   OH258038   1.136   0.274   1.494  0.2562  0.2380  0.4948
12208TIP3    H158039   1.062   0.213   1.488 -0.8287  1.6249 -1.1007
12208TIP3    H258040   1.212   0.221   1.469 -0.4348 -0.7995  0.4998
12209TIP3   OH258041   0.891   4.542  12.139 -0.0786  0.3364  0.3037
12209TIP3    H158042   0.918   4.497  12.219  0.6386 -0.6913 -0.4942
12209TIP3    H258043   0.865   4.472  12.080 -1.2114  1.1193 -0.1635
12210TIP3   OH258044   6.240   0.650   0.282 -0.5589 -0.5798 -0.0732
12210TIP3    H158045   6.248   0.721   0.219  0.0321 -1.1972 -0.7148
12210TIP3    H258046   6.173   0.679   0.343 -0.0292  0.6987 -0.0804
12211TIP3   OH258047   2.575   3.578   0.867  0.3332 -0.2239  0.4068
12211TIP3    H158048   2.638   3.579   0.795  1.1416 -0.6017  1.0859
12211TIP3    H258049   2.527   3.661   0.858 -0.7923 -1.0190 -1.5784
12212TIP3   OH258050   2.876   5.425  12.144  0.2153 -0.6222  0.3988
12212TIP3    H158051   2.828   5.507  12.137 -0.0737 -0.8225 -0.0924
12212TIP3    H258052   2.859   5.394  12.232 -2.9222 -2.0839 -0.5763
12213TIP3   OH258053   4.560   0.874   0.465  0.3448 -0.0482  0.3441
12213TIP3    H158054   4.652   0.897   0.476 -0.4427  3.5030  0.6806
12213TIP3    H258055   4.537   0.906   0.378 -0.3461 -2.1339 -0.3170
12214TIP3   OH258056   3.477   1.117   1.376  0.3452 -0.1030 -0.2479
12214TIP3    H158057   3.400   1.162   1.343  1.0849  2.5028  1.2638
12214TIP3    H258058   3.447   1.072   1.455 -0.3011 -2.1064 -1.5405
12215TIP3   OH258059   6.184   3.418   0.593  0.1230  0.3494 -0.4344
12215TIP3    H158060   6.099   3.461   0.603  0.2928  0.5547  0.1655
12215TIP3    H258061   6.242   3.464   0.653  0.7713  0.4892 -1.1450
12216TIP3   OH258062   1.005   2.717  11.683 -0.1217  0.0481  0.1160
12216TIP3    H158063   1.078   2.755  11.634  0.3408 -1.6607 -0.6274
12216TIP3    H258064   1.034   2.718  11.774  2.5449 -3.7065 -0.4064
12217TIP3   OH258065   5.330   0.557  15.066  0.3573 -0.1940  0.4905
12217TIP3    H158066   5.360   0.615  15.136 -0.2362  0.3756  0.2733
12217TIP3    H258067   5.402   0.557  15.003 -0.7549  2.6993 -0.9721
12218TIP3   OH258068   6.113   6.176   0.483  0.5221  0.5821 -0.4849
12218TIP3    H158069   6.109   6.250   0.544 -0.5316  2.0101 -2.1798
12218TIP3    H258070   6.112   6.217   0.397  2.3883 -1.3486 -1.5135
12219TIP3   OH258071   4.753   1.839  11.804 -0.1808  0.4412  0.2403
12219TIP3    H158072   4.843   1.809  11.801  0.0930  1.2935 -0.5255
12219TIP3    H258073   4.714   1.807  11.722 -0.8332 -0.6687  0.9569
12220TIP3   OH258074   0.791   1.408  12.347 -0.0512 -1.1565 -0.0695
12220TIP3    H158075   0.777   1.341  12.281  0.2085  0.0985 -1.4449
12220TIP3    H258076   0.705   1.450  12.358 -0.1600 -1.5366  0.6183
12221TIP3   OH258077   6.444   2.923   0.148  0.0074  0.0495  0.3969
12221TIP3    H158078   6.533   2.889   0.147 -0.2422 -0.6612  1.3956
12221TIP3    H258079   6.439   2.975   0.229 -0.2831  0.6635 -0.0032
12222TIP3   OH258080   4.447   4.503  16.045 -0.0092 -0.2022 -0.4974
12222TIP3    H158081   4.405   4.420  16.025 -0.1350 -0.1664 -0.3834
12222TIP3    H258082   4.480   4.493  16.134 -2.0804  0.6738  0.4394
12223TIP3   OH258083   6.079   0.658   4.052  0.0891  0.0647  0.2100
12223TIP3    H158084   6.085   0.748   4.085 -3.7780  0.4225  0.3637
12223TIP3    H258085   6.038   0.667   3.967 -0.1104 -1.5733  0.1144
12224TIP3   OH258086   3.444   6.743   3.634  0.1745 -0.2214 -0.1752
12224TIP3    H158087   3.522   6.708   3.676 -0.5869  0.3164  1.7906
12224TIP3    H258088   3.429   6.828   3.676 -1.4215 -0.2775 -0.5386
12225TIP3   OH258089   2.788   5.508   2.656  0.0992  0.4934 -0.4888
12225TIP3    H158090   2.716   5.449   2.678  1.3213 -1.1279 -0.5612
12225TIP3    H258091   2.830   5.528   2.739  1.0619 -0.6690 -0.6602
12226TIP3   OH258092   2.338   3.329   4.211  0.4951  0.8765 -0.2611
12226TIP3    H158093   2.315   3.354   4.122 -2.0809  2.2485  0.6821
12226TIP3    H258094   2.410   3.387   4.235  1.2156  0.4857 -1.4124
12227TIP3   OH258095   3.678   5.557  12.077  1.0006  0.1644 -0.8654
12227TIP3    H158096   3.726   5.538  11.996  1.4355 -0.9939 -0.3616
12227TIP3    H258097   3.706   5.488  12.138  0.3145  0.7340  0.1209
12228TIP3   OH258098   3.422   1.714  16.652 -0.0322 -0.3177 -0.0160
12228TIP3    H158099   3.466   1.631  16.670  0.6225  0.1837  0.7932
12228TIP3    H258100   3.340   1.709  16.700 -0.6327 -1.0439 -1.0940
12229TIP3   OH258101   1.424   2.234   4.128 -0.1395 -0.2023 -0.0556
12229TIP3    H158102   1.378   2.241   4.211  0.7534 -1.1299  0.5477
12229TIP3    H258103   1.502   2.288   4.138  1.4523 -2.4883  0.8279
12230TIP3   OH258104   1.081   2.428   3.376  0.4016 -0.3615  0.2210
12230TIP3    H158105   0.998   2.381   3.372  1.6011 -2.6093 -0.0758
12230TIP3    H258106   1.140   2.367   3.420  1.7277  1.4658  1.0865
12231TIP3   OH258107   4.788   4.103  13.546 -0.1251 -0.2182 -0.6520
12231TIP3    H158108   4.700   4.140  13.539  0.2156  0.7056 -0.2378
12231TIP3    H258109   4.797   4.049  13.467 -1.3067 -0.8823 -0.3622
12232TIP3   OH258110   2.116   0.624   2.684  0.1290  0.0017 -0.1556
12232TIP3    H158111   2.077   0.554   2.737  0.4173  1.2259  1.7813
12232TIP3    H258112   2.209   0.623   2.707  0.1703  0.8904 -0.2488
12233TIP3   OH258113   2.907   5.580   4.628  0.0024  0.7077  0.2173
12233TIP3    H158114   2.908   5.538   4.542 -1.7582  0.1008  0.4398
12233TIP3    H258115   2.867   5.665   4.613  0.7673  1.0798  0.2594
12234TIP3   OH258116   4.223   1.822  12.880  0.1908  0.0697 -0.0398
12234TIP3    H158117   4.138   1.786  12.857  0.1806 -0.6574  1.0966
12234TIP3    H258118   4.286   1.757  12.850  0.1501 -1.2389  2.4725
12235TIP3   OH258119   3.012   2.868   5.354 -0.2240 -0.6722  0.4478
12235TIP3    H158120   3.029   2.798   5.417 -0.9015  0.0730  1.4909
12235TIP3    H258121   2.988   2.943   5.407 -0.8335 -0.0200 -0.7030
12236TIP3   OH258122   4.743   1.253   6.297 -0.4701 -0.4453  0.0190
12236TIP3    H158123   4.705   1.229   6.381 -1.4782  0.3894 -0.1681
12236TIP3    H258124   4.668   1.252   6.236  0.1495 -0.5716 -0.7574
12237TIP3   OH258125   6.656   2.774  13.012 -0.3168  0.2652 -0.0147
12237TIP3    H158126   6.733   2.831  13.017  0.2496 -0.5686  1.0173
12237TIP3    H258127   6.682   2.693  13.056 -1.5981 -0.2592 -0.1613
12238TIP3   OH258128   1.920   0.846  12.544 -0.3529  0.4417  0.2669
12238TIP3    H158129   1.895   0.790  12.618 -0.5781 -0.7454 -0.6804
12238TIP3    H258130   2.015   0.835  12.536 -0.3697  0.3494  0.1975
12239TIP3   OH258131   3.452   4.770   6.302 -0.6455  0.2939 -0.6885
12239TIP3    H158132   3.399   4.744   6.378  0.8753 -0.1583  0.2688
12239TIP3    H258133   3.388   4.791   6.234 -2.1041 -3.6317 -0.8010
12240TIP3   OH258134   2.954   6.093  12.193 -0.0334 -1.0734 -0.4960
12240TIP3    H158135   3.006   6.037  12.251 -0.3120 -0.5707  0.2577
12240TIP3    H258136   2.943   6.041  12.113  0.8070 -1.5657 -0.3020
12241TIP3   OH258137   5.730   1.826   2.137 -0.4909 -0.3028  0.2061
12241TIP3    H158138   5.721   1.910   2.093  1.2066 -1.7123 -3.1970
12241TIP3    H258139   5.796   1.841   2.205 -0.2302  1.0756 -0.3329
12242TIP3   OH258140   3.211   0.864   1.770 -0.8546  0.2217  0.1524
12242TIP3    H158141   3.249   0.880   1.857  0.1156  1.8817 -0.5232
12242TIP3    H258142   3.284   0.877   1.709 -0.7281 -3.8884 -0.8375
12243TIP3   OH258143   3.772   1.755   5.084  0.7543 -0.2577  0.7618
12243TIP3    H158144   3.798   1.719   4.999 -1.3896  1.2247 -0.6019
12243TIP3    H258145   3.733   1.681   5.131 -1.4204 -0.3498 -1.0543
12244TIP3   OH258146   1.365   0.443  11.144  0.4740  0.3207 -0.0845
12244TIP3    H158147   1.320   0.410  11.067  0.0930 -0.3495  0.4099
12244TIP3    H258148   1.394   0.364  11.191  3.4329  0.7068 -1.0800
12245TIP3   OH258149   2.332   3.631  15.755  0.1163  0.1932 -0.0527
12245TIP3    H158150   2.250   3.635  15.705  0.2336  0.6327 -0.2100
12245TIP3    H258151   2.328   3.705  15.815  0.0715 -0.2120  0.4513
12246TIP3   OH258152   4.306   6.637   2.545 -0.0970  0.0682  0.2409
12246TIP3    H158153   4.374   6.648   2.478 -2.5637 -0.1367 -2.4922
12246TIP3    H258154   4.336   6.564   2.598  0.3999 -2.2377 -2.9420
12247TIP3   OH258155   4.067   3.653  12.558  0.1188 -0.6068  0.1854
12247TIP3    H158156   4.155   3.689  12.543  0.3691 -1.5018 -0.5559
12247TIP3    H258157   4.066   3.571  12.510 -1.3944 -0.2513 -0.4385
12248TIP3   OH258158   3.562   4.061   4.378 -0.2837  0.1729  0.0467
12248TIP3    H158159   3.645   4.079   4.422 -1.2081  2.0666  1.1543
12248TIP3    H258160   3.523   4.148   4.365 -1.9471 -0.6464 -0.7241
12249TIP3   OH258161   0.053   2.691   4.688 -0.2117 -0.2011 -0.3514
12249TIP3    H158162   0.141   2.654   4.678 -1.0106 -1.8250 -1.8021
12249TIP3    H258163   0.052   2.765   4.627  0.0389 -0.3599 -0.5494
12250TIP3   OH258164   5.166   5.624  11.265 -0.4964 -0.1128  0.1009
12250TIP3    H158165   5.142   5.595  11.177  0.8203 -2.4343  0.4237
12250TIP3    H258166   5.090   5.602  11.319 -1.2012  1.0750 -0.3540
12251TIP3   OH258167   5.362   0.880  13.378  0.2270  0.2257  0.1350
12251TIP3    H158168   5.302   0.954  13.373 -0.5233 -0.2895  1.0374
12251TIP3    H258169   5.357   0.839  13.291 -0.9536  0.0438  0.2632
12252TIP3   OH258170   3.377   2.407   0.234  0.7506  0.1351 -0.4799
12252TIP3    H158171   3.452   2.396   0.293  2.2606 -0.2494 -2.3823
12252TIP3    H258172   3.413   2.448   0.156 -1.4548  1.9192 -0.6621
12253TIP3   OH258173   2.888   1.710  15.888  1.2685  0.5543  0.4936
12253TIP3    H158174   2.964   1.686  15.940  2.5023 -0.0456 -1.4586
12253TIP3    H258175   2.813   1.675  15.936  2.2650  0.6328  2.1559
12254TIP3   OH258176   4.379   2.620  15.488  0.3157 -0.3735 -0.1182
12254TIP3    H158177   4.475   2.626  15.485  0.2928 -0.3551 -1.1329
12254TIP3    H258178   4.352   2.695  15.541  0.8729 -0.4916  0.3443
12255TIP3   OH258179   5.660   4.206   0.328  0.0860 -0.4270 -0.1179
12255TIP3    H158180   5.628   4.296   0.333 -1.3380 -0.3911 -4.8106
12255TIP3    H258181   5.607   4.158   0.390 -0.6852  1.5814  0.8716
12256TIP3   OH258182   4.680   5.445   3.216  0.4228  0.0901 -0.3986
12256TIP3    H158183   4.653   5.353   3.224  0.1343  0.2056 -0.0070
12256TIP3    H258184   4.703   5.455   3.124  1.1591 -0.5690 -0.2974
12257TIP3   OH258185   2.469   1.121   5.254  0.5628  0.4835 -0.2367
12257TIP3    H158186   2.452   1.042   5.306  1.2757  0.2773 -0.3010
12257TIP3    H258187   2.501   1.185   5.317  1.3956  0.2439 -0.4017
12258TIP3   OH258188   3.978   0.494   2.309 -0.3774 -0.5443  0.1090
12258TIP3    H158189   3.894   0.476   2.353 -0.8758  0.6873 -0.3057
12258TIP3    H258190   4.040   0.510   2.380 -1.4311  2.6137  0.4541
12259TIP3   OH258191   6.736   3.614  11.053  0.4539 -0.5986 -0.3206
12259TIP3    H158192   6.714   3.705  11.073 -0.6461 -1.0905  0.8781
12259TIP3    H258193   6.762   3.615  10.961 -1.4136  0.6191 -0.8933
12260TIP3   OH258194   2.958   4.769  13.353 -0.0309 -0.0416  0.0096
12260TIP3    H158195   2.869   4.801  13.338 -0.9061 -2.6378 -0.8926
12260TIP3    H258196   2.995   4.760  13.265  0.6963 -0.1012  0.3167
12261TIP3   OH258197   2.445   6.251   1.194 -0.0472  0.0411  0.2340
12261TIP3    H158198   2.529   6.284   1.224 -0.0897  0.2866  0.0880
12261TIP3    H258199   2.462   6.161   1.167 -0.1687 -0.4596  1.7123
12262TIP3   OH258200   1.150   3.857   2.540  0.0282  0.3044 -0.1667
12262TIP3    H158201   1.164   3.765   2.561  1.8711 -0.5801 -4.2409
12262TIP3    H258202   1.227   3.902   2.575 -1.8248  0.8625  3.6552
12263TIP3   OH258203   5.872   1.550  15.198 -0.6236 -0.2866 -0.5801
12263TIP3    H158204   5.950   1.560  15.253 -0.5520  0.6710 -0.8286
12263TIP3    H258205   5.880   1.462  15.161  1.0398  0.2614 -1.6493
12264TIP3   OH258206   0.254   1.220  13.443  0.3358 -0.1177 -0.0063
12264TIP3    H158207   0.324   1.180  13.391 -1.3212 -2.9441 -0.3003
12264TIP3    H258208   0.209   1.278  13.381  0.7369 -0.4452 -0.6231
12265TIP3   OH258209   4.737   1.855   1.735  0.2604 -0.5810 -0.1934
12265TIP3    H158210   4.791   1.806   1.673  0.4464  0.3491 -0.8066
12265TIP3    H258211   4.773   1.944   1.732 -1.5217  0.1630 -0.8960
12266TIP3   OH258212   1.823   1.823  15.596  0.3272  0.1412 -0.1248
12266TIP3    H158213   1.806   1.785  15.510  1.1213  1.5479 -0.9413
12266TIP3    H258214   1.738   1.821  15.640 -0.3772  0.5487 -1.4257
12267TIP3   OH258215   0.431   3.094  15.745 -0.2726  0.1676  0.3068
12267TIP3    H158216   0.450   3.014  15.697 -0.2504 -0.6223  1.5922
12267TIP3    H258217   0.516   3.129  15.770 -0.2659 -1.6850  3.3348
12268TIP3   OH258218   4.010   2.166   5.010  0.4049  0.0867  0.2599
12268TIP3    H158219   4.045   2.141   5.095  2.1902  1.4759 -0.0054
12268TIP3    H258220   4.037   2.257   4.998 -1.9380  0.7394 -0.7553
12269TIP3   OH258221   0.882   4.536  15.890 -0.4251  0.6717  0.2248
12269TIP3    H158222   0.946   4.546  15.960 -0.8014  1.0632  0.5212
12269TIP3    H258223   0.867   4.626  15.859 -1.2522  0.6569  0.5523
12270TIP3   OH258224   1.865   3.971  12.185 -0.2385 -0.2832 -0.1462
12270TIP3    H158225   1.941   3.932  12.227 -0.0363  1.1851  0.9392
12270TIP3    H258226   1.852   3.920  12.105  1.2740 -1.1773  0.1510
12271TIP3   OH258227   1.047   2.276   2.359 -0.4739 -0.1347  0.7757
12271TIP3    H158228   1.100   2.197   2.364 -0.2586 -0.0433  0.0408
12271TIP3    H258229   1.082   2.324   2.284 -0.7543  0.5450  1.0733
12272TIP3   OH258230   0.386   4.463  16.183  0.5807  0.1198  0.2168
12272TIP3    H158231   0.474   4.496  16.202  0.9137  0.1837 -1.2435
12272TIP3    H258232   0.383   4.460  16.087  0.1844 -3.0382  0.2234
12273TIP3   OH258233   6.454   2.203  16.748 -0.7967  0.4467  0.1648
12273TIP3    H158234   6.468   2.242  16.661  0.1243 -0.4742 -0.1182
12273TIP3    H258235   6.541   2.175  16.776 -1.0253  1.1192  1.5908
12274TIP3   OH258236   1.636   3.552  10.887  0.3329 -0.7243 -0.3694
12274TIP3    H158237   1.593   3.638  10.889 -0.3025 -0.9987 -1.3066
12274TIP3    H258238   1.695   3.556  10.812  0.3396 -1.0841 -0.3870
12275TIP3   OH258239   1.922   0.843  13.595 -0.2798 -0.0555 -0.0485
12275TIP3    H158240   1.884   0.775  13.538  2.1735 -2.0970  0.5811
12275TIP3    H258241   2.014   0.845  13.572 -0.2938  3.4111 -0.2450
12276TIP3   OH258242   1.181   3.722   2.091  0.0695 -0.6604 -0.0197
12276TIP3    H158243   1.181   3.797   2.150  0.1327 -0.9437  0.3419
12276TIP3    H258244   1.139   3.754   2.011  1.2028  0.1109 -0.3228
12277TIP3   OH258245   3.454   0.554   2.507  0.4738 -0.2097 -0.8227
12277TIP3    H158246   3.494   0.639   2.524  0.1340  0.0272 -1.1821
12277TIP3    H258247   3.470   0.503   2.587 -0.9549  0.8254  0.1727
12278TIP3   OH258248   6.014   4.105   1.541 -0.1001 -0.2151 -0.6458
12278TIP3    H158249   6.081   4.149   1.490 -0.6089 -0.2235 -1.3230
12278TIP3    H258250   5.932   4.150   1.519 -0.1783  0.5240  1.0100
12279TIP3   OH258251   5.374   5.030   0.687 -0.1365 -0.4230 -0.0398
12279TIP3    H158252   5.467   5.035   0.665 -0.2271  0.3416 -0.2799
12279TIP3    H258253   5.372   5.015   0.781  0.2380 -1.4444 -0.1862
12280TIP3   OH258254   3.129   1.721   4.315  0.5682  0.3910 -0.8459
12280TIP3    H158255   3.224   1.710   4.318  0.3592 -1.5588  0.2042
12280TIP3    H258256   3.098   1.683   4.397 -1.2243 -0.4751 -1.8592
12281TIP3   OH258257   0.961   6.737  11.103  0.2517 -0.4804 -0.0834
12281TIP3    H158258   1.000   6.690  11.030  0.8158 -1.9158  1.0779
12281TIP3    H258259   0.909   6.807  11.063  0.8125 -1.0161 -1.8108
12282TIP3   OH258260   2.518   3.366   2.945  0.0074 -0.2562  0.2593
12282TIP3    H158261   2.528   3.374   2.850 -0.7529 -0.6021  0.1479
12282TIP3    H258262   2.608   3.364   2.979  0.2983 -1.4808 -0.5591
12283TIP3   OH258263   4.795   5.068  10.970 -0.6157  0.7305 -0.1345
12283TIP3    H158264   4.855   5.139  10.995 -1.7055  2.4048 -1.9986
12283TIP3    H258265   4.721   5.078  11.030  0.5680 -0.9465  1.7481
12284TIP3   OH258266   5.623   2.802  10.777  0.1283  0.6351 -0.3245
12284TIP3    H158267   5.711   2.835  10.763 -0.7036  2.5821 -1.3289
12284TIP3    H258268   5.613   2.731  10.713  0.9499  0.4187 -0.2157
12285TIP3   OH258269   1.693   1.151  16.060 -0.2198  0.3405  0.6505
12285TIP3    H158270   1.773   1.165  16.110  0.8908 -0.0946 -0.9045
12285TIP3    H258271   1.646   1.233  16.066  1.7557  1.6838 -0.7349
12286TIP3   OH258272   4.695   3.198   0.403  0.2383 -0.4704  0.1147
12286TIP3    H158273   4.708   3.292   0.391 -0.2367 -0.3525  0.5034
12286TIP3    H258274   4.784   3.162   0.404  0.3824 -0.3052 -2.0197
12287TIP3   OH258275   6.583   5.695   2.021 -0.5586 -0.3814  0.2822
12287TIP3    H158276   6.540   5.726   2.101  0.3643  0.1766  0.5742
12287TIP3    H258277   6.593   5.773   1.967 -1.3779 -0.7934 -0.4934
12288TIP3   OH258278   6.466   6.572  13.301 -0.4919  0.0059 -0.3623
12288TIP3    H158279   6.404   6.503  13.277 -2.3383  1.2269  0.6828
12288TIP3    H258280   6.496   6.547  13.389 -0.7238  0.2366 -0.2176
12289TIP3   OH258281   6.606   0.365  13.172  0.3757  0.5558 -0.8258
12289TIP3    H158282   6.658   0.443  13.156 -1.5840  2.0560 -0.2320
12289TIP3    H258283   6.587   0.330  13.085  0.3265  1.4045 -1.1601
12290TIP3   OH258284   1.054   0.194   0.967  0.4786 -0.0622 -0.4746
12290TIP3    H158285   1.015   0.118   1.011 -0.1876  0.9440  0.7067
12290TIP3    H258286   1.079   0.160   0.881 -2.4376 -0.9319 -1.0948
12291TIP3   OH258287   3.081   3.079  14.083 -0.2305 -0.5496 -0.3001
12291TIP3    H158288   2.990   3.101  14.104 -0.2172 -1.5732  0.9898
12291TIP3    H258289   3.130   3.157  14.107 -0.7422 -0.0664 -0.7983
12292TIP3   OH258290   0.193   0.426  16.387  0.0630  0.3327 -0.1175
12292TIP3    H158291   0.138   0.500  16.414  1.7537  1.5002  0.2638
12292TIP3    H258292   0.279   0.464  16.371  0.3865 -1.1522 -2.3607
12293TIP3   OH258293   1.938   4.475   1.452 -0.5387  0.1637  0.1566
12293TIP3    H158294   1.923   4.440   1.540 -0.5552  1.4358  0.6803
12293TIP3    H258295   1.854   4.512   1.426 -0.1967  0.9685  0.1628
12294TIP3   OH258296   6.375   0.977   1.405  0.1159 -0.2184 -0.1565
12294TIP3    H158297   6.325   0.990   1.325 -1.3421  0.1073  0.7631
12294TIP3    H258298   6.315   1.003   1.475  0.7995 -1.9571  1.1440
12295TIP3   OH258299   4.828   1.552  17.059 -0.0948 -0.0999  1.1460
12295TIP3    H158300   4.815   1.645  17.079 -0.1128 -0.2092  1.6522
12295TIP3    H258301   4.915   1.549  17.019 -1.3947  0.5846 -1.9664
12296TIP3   OH258302   3.165   6.277   4.924  0.2182  0.1459  0.0023
12296TIP3    H158303   3.160   6.369   4.900  1.2899  0.0823 -0.4946
12296TIP3    H258304   3.240   6.272   4.983  0.6507 -0.5354 -0.5937
12297TIP3   OH258305   1.600   3.312   2.357  0.0879  0.4152 -0.0959
12297TIP3    H158306   1.647   3.378   2.307  2.1508 -0.2160  0.8593
12297TIP3    H258307   1.508   3.328   2.339  0.6425  1.8998 -1.8939
12298TIP3   OH258308   2.816   2.825  11.442 -0.4662  0.1947  0.6399
12298TIP3    H158309   2.807   2.921  11.438 -0.4683  0.1594 -1.4279
12298TIP3    H258310   2.906   2.811  11.473 -1.1006  0.7866  2.9631
12299TIP3   OH258311   2.727   2.489  16.881  0.1265  0.3914  0.2919
12299TIP3    H158312   2.669   2.419  16.850 -0.1760  1.1562 -0.9477
12299TIP3    H258313   2.677   2.533  16.950 -0.2783  0.2769  0.0788
12300TIP3   OH258314   6.490   6.321  12.030  0.5072 -0.5204  0.3600
12300TIP3    H158315   6.401   6.346  12.056  1.4589  2.5723  1.1168
12300TIP3    H258316   6.519   6.391  11.971  2.7780 -0.8556  0.9661
12301TIP3   OH258317   2.603   6.424   3.466  0.0331  0.3882  0.0204
12301TIP3    H158318   2.626   6.425   3.559 -1.9447 -0.2615  0.5506
12301TIP3    H258319   2.523   6.477   3.460 -0.0285  0.1880 -1.2771
12302TIP3   OH258320   2.015   0.895   4.550 -0.5441  0.4726 -1.0124
12302TIP3    H158321   1.944   0.947   4.589 -0.1935 -0.1361  0.5089
12302TIP3    H258322   2.095   0.940   4.577 -0.1986 -1.1263  0.8900
12303TIP3   OH258323   1.616   0.418  11.995 -0.5461  0.8548  0.0166
12303TIP3    H158324   1.671   0.480  11.947 -0.1545  1.4220  1.1581
12303TIP3    H258325   1.629   0.335  11.950  1.1853  1.0000  0.2042
12304TIP3   OH258326   3.169   5.142   5.841 -0.0061 -1.2868  0.0899
12304TIP3    H158327   3.149   5.078   5.910  0.3863 -2.0569 -0.5046
12304TIP3    H258328   3.084   5.166   5.805 -0.1732 -1.2704  0.4877
12305TIP3   OH258329   4.271   3.058  11.875 -0.0140 -0.2400 -0.1501
12305TIP3    H158330   4.365   3.048  11.892 -0.3795 -2.0600  1.1130
12305TIP3    H258331   4.264   3.059  11.779  1.2787 -0.2405 -0.2672
12306TIP3   OH258332   6.638   2.953   4.336  0.0084 -0.6493 -0.2099
12306TIP3    H158333   6.701   2.905   4.284  0.0067 -1.2041  0.2829
12306TIP3    H258334   6.620   2.895   4.411  0.7586  0.5415  0.9242
12307TIP3   OH258335   4.807   2.587   1.792 -0.2929  0.1369 -0.2593
12307TIP3    H158336   4.861   2.621   1.720 -0.3531  2.3081  0.6650
12307TIP3    H258337   4.755   2.517   1.751  1.9994 -0.9371 -1.5404
12308TIP3   OH258338   2.770   4.900  12.570  0.3327  0.3976  0.0681
12308TIP3    H158339   2.745   4.980  12.524  0.6993  0.0276 -0.8006
12308TIP3    H258340   2.690   4.847  12.572  0.5363  0.0211 -1.0054
12309TIP3   OH258341   4.408   0.881   0.699  0.2417 -0.1722 -0.7718
12309TIP3    H158342   4.406   0.786   0.710 -0.6361 -0.5570 -3.5083
12309TIP3    H258343   4.464   0.895   0.623  0.8158  1.6035 -0.0864
12310TIP3   OH258344   1.240   4.441   2.257  0.9755  0.1821 -0.1394
12310TIP3    H158345   1.334   4.438   2.274  1.2308 -0.4705 -1.5054
12310TIP3    H258346   1.215   4.349   2.242  0.1091  0.3420  0.2376
12311TIP3   OH258347   3.115   4.211   5.512  0.8331  0.5912  0.3569
12311TIP3    H158348   3.051   4.207   5.583  0.7124 -1.7332  0.2189
12311TIP3    H258349   3.063   4.196   5.433  1.3421  0.0861  0.1105
12312TIP3   OH258350   2.721   4.212   3.489  0.0687 -0.0163 -0.1524
12312TIP3    H158351   2.771   4.292   3.507 -0.2636 -0.1687  1.5931
12312TIP3    H258352   2.779   4.141   3.516  0.0229 -0.3382 -0.8810
12313TIP3   OH258353   3.293   3.550  11.436 -0.1426 -0.4187 -0.0609
12313TIP3    H158354   3.329   3.524  11.352  2.5672 -0.0196  0.8850
12313TIP3    H258355   3.289   3.469  11.487 -1.8905 -0.6809 -0.5528
12314TIP3   OH258356   1.474   5.152  16.377  0.1202  0.1428 -0.3013
12314TIP3    H158357   1.436   5.232  16.413 -0.6254  0.3155 -1.4224
12314TIP3    H258358   1.424   5.082  16.419  2.0774  0.0948  2.2227
12315TIP3   OH258359   5.964   3.003  12.391 -0.1829  0.4229  0.3119
12315TIP3    H158360   6.003   2.933  12.339  2.4165  0.2170  2.3268
12315TIP3    H258361   5.958   3.077  12.331 -0.5711 -0.7503 -1.1620
12316TIP3   OH258362   5.604   6.000  15.937  0.3908  0.2082  0.2157
12316TIP3    H158363   5.536   6.014  16.004  0.1838 -0.3140  0.1191
12316TIP3    H258364   5.675   5.956  15.984  1.3973  2.2295  0.7166
12317TIP3   OH258365   5.616   4.884  13.776 -0.2314 -0.0807  0.4076
12317TIP3    H158366   5.565   4.897  13.856 -2.4809  1.1018 -1.1101
12317TIP3    H258367   5.553   4.894  13.705  1.6688 -1.1247 -1.5573
12318TIP3   OH258368   3.149   2.014   4.903 -0.4397 -0.1144  0.3162
12318TIP3    H158369   3.067   2.019   4.952 -0.0300  0.3871  0.9596
12318TIP3    H258370   3.147   1.928   4.861 -1.1612 -0.2182  0.5550
12319TIP3   OH258371   1.238   2.072  16.966 -0.0860 -0.3075  0.0867
12319TIP3    H158372   1.195   2.002  17.016 -0.9108  1.4949  2.0751
12319TIP3    H258373   1.167   2.111  16.915 -0.3958  1.0535  1.4518
12320TIP3   OH258374   6.080   2.206   5.425 -0.0749 -0.0807 -0.4359
12320TIP3    H158375   6.075   2.117   5.461 -1.1602  0.5970  1.2411
12320TIP3    H258376   5.989   2.229   5.406  0.1441  0.8349 -0.4135
12321TIP3   OH258377   2.475   4.573   2.102 -0.0143 -0.3607 -0.0785
12321TIP3    H158378   2.388   4.536   2.113 -0.7021  1.1750 -0.0558
12321TIP3    H258379   2.460   4.668   2.098  1.6134 -0.0930 -0.4696
12322TIP3   OH258380   1.524   3.880  11.524 -0.1228  0.0522  0.0365
12322TIP3    H158381   1.436   3.853  11.496  0.5798 -1.9361 -0.4345
12322TIP3    H258382   1.583   3.829  11.469  1.3397  1.1246  0.5559
12323TIP3   OH258383   4.090   1.072   0.976  0.1604 -0.1663  0.3814
12323TIP3    H158384   4.018   1.066   1.039  0.5177  0.8166  0.9139
12323TIP3    H258385   4.082   1.160   0.939  0.3501 -0.4968 -0.4834
12324TIP3   OH258386   3.852   0.735   1.837 -0.5960 -0.0930  0.0459
12324TIP3    H158387   3.801   0.809   1.870  0.6475  0.6283  0.4085
12324TIP3    H258388   3.801   0.658   1.861 -2.3618  0.6471 -1.1101
12325TIP3   OH258389   4.571   2.626  15.039 -0.3968  0.4809  0.5274
12325TIP3    H158390   4.635   2.558  15.060  0.1181  0.6809 -0.3610
12325TIP3    H258391   4.487   2.589  15.068 -0.0137 -0.1854  0.8114
12326TIP3   OH258392   3.161   5.583   0.353  0.2748 -0.9898  0.4017
12326TIP3    H158393   3.241   5.534   0.369  1.6194  1.3054  1.2416
12326TIP3    H258394   3.110   5.572   0.433  0.7753 -0.6686  0.7717
12327TIP3   OH258395   4.008   4.415  15.293 -0.3592  0.7994 -0.4838
12327TIP3    H158396   4.038   4.503  15.268  2.8492  0.2338  0.9274
12327TIP3    H258397   3.991   4.371  15.210  1.0262  1.8104 -1.3446
12328TIP3   OH258398   2.666   0.038  15.578  0.1124  0.5070 -0.0480
12328TIP3    H158399   2.650  -0.018  15.501 -0.5470  0.7821 -0.1120
12328TIP3    H258400   2.761   0.039  15.586  0.2457  1.1844 -1.3946
12329TIP3   OH258401   3.040   3.431  10.988 -0.5424  0.6408  0.2220
12329TIP3    H158402   3.087   3.505  10.948 -1.7643  0.9971 -0.6007
12329TIP3    H258403   2.949   3.459  10.991 -0.8689 -0.4506  0.8250
12330TIP3   OH258404   0.803   2.281   5.441  0.0292 -0.1857  0.2791
12330TIP3    H158405   0.782   2.188   5.434 -1.0347  0.0790 -0.5071
12330TIP3    H258406   0.861   2.298   5.367  1.1895 -0.4541  1.1148
12331TIP3   OH258407   4.307   6.275   4.258  0.2909  0.3639 -0.3389
12331TIP3    H158408   4.277   6.293   4.347  1.1017  0.6827 -0.1250
12331TIP3    H258409   4.319   6.361   4.218 -0.5167  0.2206 -0.9230
12332TIP3   OH258410   1.557   6.593   0.558 -0.1537 -0.2753 -0.2985
12332TIP3    H158411   1.485   6.530   0.569 -0.1582 -0.1732  0.2594
12332TIP3    H258412   1.537   6.638   0.476 -1.2050  0.3784  0.3095
12333TIP3   OH258413   4.445   6.725  14.480 -0.2230  0.6236 -0.2358
12333TIP3    H158414   4.534   6.760  14.490  0.0286  0.1706 -0.8283
12333TIP3    H258415   4.415   6.709  14.569  0.3640  0.5881 -0.0423
12334TIP3   OH258416   0.938   1.283  11.695 -0.6408 -0.8285 -0.1362
12334TIP3    H158417   0.954   1.296  11.601  0.2889 -2.7365 -0.3044
12334TIP3    H258418   0.844   1.270  11.702 -0.5237 -2.5907 -1.1438
12335TIP3   OH258419   0.597   0.281  14.966 -0.0171  0.6361  0.4675
12335TIP3    H158420   0.652   0.324  15.032  0.9032 -0.3175  0.3356
12335TIP3    H258421   0.556   0.209  15.013 -1.7065  1.6932  0.7340
12336TIP3   OH258422   1.061   5.093   4.601  0.1256 -0.0285 -0.1400
12336TIP3    H158423   1.096   5.149   4.532  0.4205 -0.3860 -0.2884
12336TIP3    H258424   0.987   5.048   4.561 -0.2973  0.4773  0.0708
12337TIP3   OH258425   5.528   2.640  11.998  0.0526 -0.1562  0.1203
12337TIP3    H158426   5.553   2.721  11.955 -1.1749  0.0522 -0.2245
12337TIP3    H258427   5.470   2.596  11.936  1.1582 -1.6039  0.0425
12338TIP3   OH258428   5.362   5.003  12.156 -0.2769  0.1502 -0.0819
12338TIP3    H158429   5.359   5.097  12.135  1.2763 -0.1833 -2.1333
12338TIP3    H258430   5.296   4.964  12.098  0.1415 -0.1835 -0.3357
12339TIP3   OH258431   2.996   0.921  16.450 -0.0005  0.0996  0.2742
12339TIP3    H158432   2.988   1.015  16.469  0.0297  0.0470  0.5612
12339TIP3    H258433   2.917   0.900  16.400 -1.5179 -0.2973  2.6350
12340TIP3   OH258434   1.196   5.853  15.956  0.6417  0.3400  0.1612
12340TIP3    H158435   1.264   5.806  15.908  0.3258 -0.4391  0.4600
12340TIP3    H258436   1.141   5.890  15.888 -0.4047 -1.6232 -0.1414
12341TIP3   OH258437   1.602   0.071   4.839  0.3219  0.4246  0.7887
12341TIP3    H158438   1.512   0.099   4.824  0.1148 -0.2428  0.7672
12341TIP3    H258439   1.603   0.037   4.928  0.0191 -1.5776  0.0705
12342TIP3   OH258440   3.533   5.502   2.007 -0.7471 -0.2973 -0.2119
12342TIP3    H158441   3.583   5.496   2.088 -0.6867 -1.3019 -0.3082
12342TIP3    H258442   3.448   5.464   2.029 -1.9129  2.3456  0.2514
12343TIP3   OH258443   4.741   5.499  16.514 -0.1587 -0.2391 -0.5599
12343TIP3    H158444   4.672   5.506  16.448  0.8306 -0.0560 -1.6007
12343TIP3    H258445   4.820   5.476  16.465  0.5017 -0.5957  0.6225
12344TIP3   OH258446   6.374   3.037   4.252  0.1674  0.0831  0.0535
12344TIP3    H158447   6.367   3.127   4.218 -1.1484  0.1129  0.3564
12344TIP3    H258448   6.467   3.026   4.269  0.5240  0.9667 -1.1378
12345TIP3   OH258449   2.720   1.440   1.067  0.2257 -0.1723  0.0164
12345TIP3    H158450   2.747   1.359   1.024  2.3708  0.9304 -0.8928
12345TIP3    H258451   2.801   1.492   1.072 -1.0376  1.8401  0.7274
12346TIP3   OH258452   3.764   1.671   0.037  0.2611 -0.6233  0.1169
12346TIP3    H158453   3.756   1.722   0.117 -0.6899 -1.5057  0.6186
12346TIP3    H258454   3.854   1.639   0.038  1.3627  2.1517 -0.9569
12347TIP3   OH258455   0.579   6.484  16.170 -0.3743 -0.0078  0.5514
12347TIP3    H158456   0.516   6.513  16.105  0.1560  1.5298  0.6888
12347TIP3    H258457   0.662   6.475  16.122 -0.1125  0.5763  0.8758
12348TIP3   OH258458   3.608   3.597   2.757 -0.0020 -0.3122  0.3627
12348TIP3    H158459   3.628   3.672   2.700 -1.3955  1.6492  2.3178
12348TIP3    H258460   3.679   3.596   2.821 -1.3667  1.1270  1.9804
12349TIP3   OH258461   2.488   4.896  13.180 -0.3050  0.1414  0.1232
12349TIP3    H158462   2.450   4.812  13.152  2.4150 -1.3346  0.5367
12349TIP3    H258463   2.437   4.920  13.257 -1.8909 -0.5168 -0.6783
12350TIP3   OH258464   1.656   3.598   1.347 -0.5784 -0.5724  0.0590
12350TIP3    H158465   1.733   3.600   1.290  0.0039  2.1883  0.7788
12350TIP3    H258466   1.591   3.652   1.301  0.3093  2.7459  2.3268
12351TIP3   OH258467   1.579   4.425  13.018  0.3468  0.0647 -0.0446
12351TIP3    H158468   1.567   4.519  13.002  1.7448  0.3544  0.5156
12351TIP3    H258469   1.591   4.387  12.931  1.3827  0.6537 -0.1730
12352TIP3   OH258470   2.638   2.779  16.509  0.0054 -0.3062  0.0726
12352TIP3    H158471   2.565   2.718  16.499 -0.6759  0.1505  1.7859
12352TIP3    H258472   2.598   2.866  16.506  0.5753 -0.0299  0.2963
12353TIP3   OH258473   1.970   3.747  15.386 -0.5689 -0.0463 -0.4005
12353TIP3    H158474   2.056   3.783  15.364 -1.1456  2.3427  0.9469
12353TIP3    H258475   1.931   3.723  15.302  0.7729  0.2916 -1.1494
12354TIP3   OH258476   0.640   6.510  12.344  0.3896  0.1752  0.0393
12354TIP3    H158477   0.558   6.559  12.343  0.3959  0.1925  0.2647
12354TIP3    H258478   0.614   6.421  12.367  0.0863 -0.4940 -2.5800
12355TIP3   OH258479   3.496   6.032   1.035  0.2596 -0.1304 -0.4603
12355TIP3    H158480   3.447   5.965   0.987 -2.7558  2.1268 -0.8094
12355TIP3    H258481   3.532   6.089   0.967 -0.7318  0.8727 -0.1863
12356TIP3   OH258482   2.415   4.525   1.197  0.5475 -0.5474 -0.3772
12356TIP3    H158483   2.473   4.542   1.272  0.5864  1.0886 -0.7411
12356TIP3    H258484   2.470   4.541   1.120 -0.4508  1.6191 -0.7339
12357TIP3   OH258485   5.294   0.379   2.211  0.0793  0.6449  0.0536
12357TIP3    H158486   5.268   0.447   2.148  2.7997  1.4342 -0.3542
12357TIP3    H258487   5.348   0.319   2.160 -0.5681 -0.6836  0.8916
12358TIP3   OH258488   5.802   5.768   5.641 -0.0167  0.2865  0.1688
12358TIP3    H158489   5.851   5.690   5.669  0.7544  0.5914 -0.2733
12358TIP3    H258490   5.867   5.820   5.593 -0.6332  0.9999  0.0939
12359TIP3   OH258491   5.400   5.652  14.143 -0.0878 -0.1335 -0.3618
12359TIP3    H158492   5.398   5.684  14.233  0.4817 -2.3452  0.4754
12359TIP3    H258493   5.327   5.698  14.101  0.4031  1.8844  0.8439
12360TIP3   OH258494   5.223   6.186   0.675  0.0042  0.8867  0.3447
12360TIP3    H158495   5.208   6.245   0.601 -0.4755  0.2708 -0.0622
12360TIP3    H258496   5.300   6.136   0.650 -1.2937 -0.7181 -0.6813
12361TIP3   OH258497   1.123   3.422   5.192  0.2310  0.6656  0.1050
12361TIP3    H158498   1.072   3.439   5.271 -1.8178 -1.2654 -0.7258
12361TIP3    H258499   1.176   3.345   5.213  1.2806  1.3810  0.2228
12362TIP3   OH258500   3.555   1.910   1.617  0.1960 -0.4342  0.4336
12362TIP3    H158501   3.465   1.892   1.589  0.8159 -3.0565 -0.0697
12362TIP3    H258502   3.609   1.884   1.543  1.5227 -1.9805  1.8677
12363TIP3   OH258503   5.947   1.442   3.784  0.6794  0.1624 -0.3982
12363TIP3    H158504   5.892   1.511   3.747  0.1838  0.5299  0.9590
12363TIP3    H258505   6.023   1.437   3.726  2.3570  4.1146  1.1386
12364TIP3   OH258506   0.329   2.069  15.263 -0.0336 -1.2147 -0.1443
12364TIP3    H158507   0.330   2.163  15.278 -0.1142 -1.1083 -0.8211
12364TIP3    H258508   0.248   2.052  15.216 -1.4633 -2.0036  2.3650
12365TIP3   OH258509   4.433   0.398   4.102  0.0838  0.0170 -0.8429
12365TIP3    H158510   4.441   0.325   4.163  0.5168 -0.3207 -1.3003
12365TIP3    H258511   4.362   0.451   4.138  0.1275 -0.3404 -0.2138
12366TIP3   OH258512   1.207   1.235  12.635 -0.1390  0.2854  0.6117
12366TIP3    H158513   1.124   1.242  12.586 -0.2178 -0.3521  0.6494
12366TIP3    H258514   1.200   1.303  12.702  0.1787  1.5203 -0.5456
12367TIP3   OH258515   3.395   4.721  13.887 -0.0065  0.5281  0.1168
12367TIP3    H158516   3.482   4.721  13.848  0.5412  0.9525  1.2862
12367TIP3    H258517   3.356   4.805  13.862  0.2398  0.6859  0.2621
12368TIP3   OH258518   6.397   0.030  16.546 -0.3176 -0.1481  0.4726
12368TIP3    H158519   6.351   0.005  16.466  3.4798 -1.3204 -1.6169
12368TIP3    H258520   6.436   0.115  16.525 -0.3158  0.1363  1.5866
12369TIP3   OH258521   6.208   3.263   3.650  0.7242 -0.0179 -0.6641
12369TIP3    H158522   6.124   3.216   3.646 -0.2907  1.7169 -0.8233
12369TIP3    H258523   6.204   3.312   3.732  1.5607  0.1426 -0.7110
12370TIP3   OH258524   0.365   4.042  12.802 -0.2515  0.0623 -0.0404
12370TIP3    H158525   0.433   4.107  12.821 -0.9119  0.7811 -0.0820
12370TIP3    H258526   0.313   4.081  12.732 -0.7264 -0.4683  0.0095
12371TIP3   OH258527   4.127   0.614  10.785  0.4548 -0.2192 -0.2194
12371TIP3    H158528   4.207   0.618  10.838 -0.3002 -0.2027  0.9749
12371TIP3    H258529   4.135   0.687  10.723  0.6165  0.8778  1.0352
12372TIP3   OH258530   3.243   4.596  15.707  0.1729  0.3935 -0.0688
12372TIP3    H158531   3.203   4.655  15.643 -0.1220  0.0222 -0.2342
12372TIP3    H258532   3.171   4.539  15.734  0.1836  0.8588  0.9579
12373TIP3   OH258533   4.282   0.885  14.059  0.2822  0.4094  0.1608
12373TIP3    H158534   4.315   0.972  14.035  2.9352 -0.2027  1.2571
12373TIP3    H258535   4.257   0.845  13.975  0.5596  1.6344 -0.5355
12374TIP3   OH258536   2.513   1.396  14.505  0.4596  1.0990  0.2091
12374TIP3    H158537   2.474   1.373  14.421  0.6393  0.0902  0.3894
12374TIP3    H258538   2.535   1.312  14.545 -0.5235  1.5225  1.6987
12375TIP3   OH258539   1.338   0.101  11.529 -0.4041 -0.3131 -0.1758
12375TIP3    H158540   1.415   0.088  11.473 -1.0402  0.3535 -1.2603
12375TIP3    H258541   1.367   0.163  11.596  0.2241 -0.6976 -0.0849
12376TIP3   OH258542   2.043   4.913   2.202 -0.0804 -0.8428 -0.0306
12376TIP3    H158543   2.096   4.990   2.224 -0.0538 -0.4129 -1.4909
12376TIP3    H258544   2.102   4.857   2.150 -0.3687 -1.4321  0.2697
12377TIP3   OH258545   2.991   3.314  16.524 -0.0333 -0.0216 -0.3577
12377TIP3    H158546   3.036   3.273  16.598  1.1836 -0.1641 -1.1624
12377TIP3    H258547   2.910   3.263  16.515  0.0582 -0.3425  0.5274
12378TIP3   OH258548   4.957   6.017  11.191 -0.6771 -0.2416  0.0993
12378TIP3    H158549   4.901   5.939  11.192  0.2493 -0.9817 -1.5108
12378TIP3    H258550   5.035   5.989  11.142  1.4615  0.5161  2.8287
12379TIP3   OH258551   1.409   5.433   0.118 -0.6836 -0.3967 -0.6611
12379TIP3    H158552   1.438   5.472   0.200 -1.0283 -0.1006 -0.6785
12379TIP3    H258553   1.490   5.413   0.071 -0.4701  2.5183 -1.7150
12380TIP3   OH258554   0.848   5.589   3.988 -0.2623  0.7253  0.1813
12380TIP3    H158555   0.803   5.649   4.047 -0.2134 -0.8295  1.9089
12380TIP3    H258556   0.779   5.529   3.958  0.4638 -1.5202  2.6527
12381TIP3   OH258557   5.249   3.082   0.754 -0.5186  0.4476  0.4944
12381TIP3    H158558   5.262   3.014   0.820  0.1136  1.2232  1.1852
12381TIP3    H258559   5.315   3.065   0.688 -1.7049 -0.8565 -0.4150
12382TIP3   OH258560   0.832   1.327   2.373  1.0987  0.4563 -0.2952
12382TIP3    H158561   0.911   1.354   2.326  1.6046  0.1846  0.3834
12382TIP3    H258562   0.864   1.292   2.456  0.3168 -0.4600 -0.3706
12383TIP3   OH258563   5.737   2.422   1.914  0.0317  0.3531  0.7340
12383TIP3    H158564   5.665   2.364   1.887  0.4067 -0.2937  1.1085
12383TIP3    H258565   5.815   2.382   1.877  0.1309  1.5015 -0.3777
12384TIP3   OH258566   4.172   5.109   1.641  0.3257  0.1393  0.1859
12384TIP3    H158567   4.087   5.139   1.673 -0.6203 -1.4246 -0.7629
12384TIP3    H258568   4.157   5.019   1.613  2.2929 -0.1568 -0.0648
12385TIP3   OH258569   5.670   3.476  15.795 -0.3591 -0.5120 -0.2605
12385TIP3    H158570   5.606   3.404  15.796 -0.4113 -0.5356  2.5637
12385TIP3    H258571   5.623   3.550  15.832  0.7662 -0.0805  0.3339
12386TIP3   OH258572   3.940   1.557   2.802 -0.3467 -0.1126  0.1575
12386TIP3    H158573   3.860   1.524   2.761  0.8343 -3.4166  0.2148
12386TIP3    H258574   3.990   1.478   2.823  2.4814  1.7849  1.0658
12387TIP3   OH258575   4.231   2.549  12.140 -0.0886  0.3620 -0.3864
12387TIP3    H158576   4.312   2.509  12.110 -0.0777  0.3291 -0.3163
12387TIP3    H258577   4.162   2.496  12.101 -0.0678 -0.5186  0.7324
12388TIP3   OH258578   2.274   4.633  13.436 -0.3942 -0.2768 -0.5598
12388TIP3    H158579   2.258   4.640  13.341 -0.8107  0.6240 -0.4324
12388TIP3    H258580   2.366   4.607  13.442 -0.1019  0.5469 -1.2035
12389TIP3   OH258581   4.706   1.496   5.806  0.1920  0.0384  0.1049
12389TIP3    H158582   4.801   1.506   5.799  0.0908 -0.0969 -2.1473
12389TIP3    H258583   4.673   1.527   5.722 -1.7467 -0.2791  0.7134
12390TIP3   OH258584   2.974   0.062   0.022 -0.1836 -0.4418  0.0909
12390TIP3    H158585   2.946  -0.004  -0.041 -3.1187 -0.7048  1.5127
12390TIP3    H258586   2.897   0.079   0.075  2.0817 -0.2091  3.6308
12391TIP3   OH258587   4.539   3.707  16.635 -0.3157 -0.0957  0.2306
12391TIP3    H158588   4.495   3.770  16.578  0.7873 -1.0652 -1.8045
12391TIP3    H258589   4.585   3.761  16.700 -1.0155  1.0822 -0.2340
12392TIP3   OH258590   6.738   3.887  11.182 -0.0026 -0.2143  0.0111
12392TIP3    H158591   6.678   3.907  11.253  0.3433  0.3679  0.1494
12392TIP3    H258592   6.808   3.836  11.223  2.2333  3.2998  1.0096
12393TIP3   OH258593   1.972   4.159   5.907 -0.6200  0.0909 -0.1520
12393TIP3    H158594   1.920   4.208   5.972 -0.4784 -0.1984  0.1854
12393TIP3    H258595   1.975   4.217   5.831 -3.2191 -0.7362 -0.9854
12394TIP3   OH258596   5.866   5.487   0.669 -0.0488  0.3635  0.4749
12394TIP3    H158597   5.799   5.556   0.667 -1.2049 -0.7023 -1.5460
12394TIP3    H258598   5.943   5.527   0.628 -0.1197  0.9581  0.9038
12395TIP3   OH258599   5.981   2.091  15.781  0.0940  0.8738  0.1374
12395TIP3    H158600   5.927   2.013  15.767 -0.6491  0.7539  3.0437
12395TIP3    H258601   5.929   2.163  15.746  0.4359  0.2281 -1.8446
12396TIP3   OH258602   2.081   5.900   1.417  0.1137 -0.7211 -0.5248
12396TIP3    H158603   2.130   5.969   1.373  0.8409  0.6543  2.2245
12396TIP3    H258604   1.995   5.937   1.433 -0.1308 -1.1943 -0.7087
12397TIP3   OH258605   4.578   6.439  15.599  0.0787 -0.6348  0.4167
12397TIP3    H158606   4.594   6.435  15.505 -2.1776 -0.0181 -0.0684
12397TIP3    H258607   4.599   6.529  15.624 -1.7949 -0.0105 -0.0879
12398TIP3   OH258608   3.097   3.904  15.618 -0.2050 -0.0670  0.2752
12398TIP3    H158609   3.050   3.987  15.614  0.3128  0.3668  2.0473
12398TIP3    H258610   3.147   3.909  15.700  0.4344 -1.8159  0.0391
12399TIP3   OH258611   2.113   2.329  17.051 -0.0641 -0.1268 -0.4693
12399TIP3    H158612   2.108   2.308  17.145  0.4571  1.0057 -0.1681
12399TIP3    H258613   2.079   2.251  17.007  0.6457 -1.0890  0.6212
12400TIP3   OH258614   2.872   5.316  14.807  0.0007  0.5205 -0.7145
12400TIP3    H158615   2.864   5.220  14.811  0.9355  0.3803 -1.5629
12400TIP3    H258616   2.811   5.342  14.738 -0.5958  0.5962 -0.1658
12401TIP3   OH258617   4.293   5.904   3.611  0.1900  0.6909  0.1239
12401TIP3    H158618   4.310   5.835   3.675  0.4402 -0.0352 -0.7096
12401TIP3    H258619   4.201   5.893   3.588  0.6406 -0.5070 -1.2866
12402TIP3   OH258620   4.309   3.173  11.332  0.2040  0.3855 -0.1417
12402TIP3    H158621   4.332   3.256  11.290  1.2330  0.6099  0.8180
12402TIP3    H258622   4.384   3.116  11.315  1.6449  1.1193  3.0294
12403TIP3   OH258623   4.031   0.799  15.476 -0.1826  0.0291  0.3697
12403TIP3    H158624   3.997   0.888  15.475 -0.3323 -0.0306 -0.1884
12403TIP3    H258625   3.986   0.756  15.548 -0.1475  0.3907  0.6060
12404TIP3   OH258626   3.810   1.946   6.647  0.1761  0.1131  0.1781
12404TIP3    H158627   3.839   2.038   6.642  1.7516 -0.4053 -1.3237
12404TIP3    H258628   3.883   1.901   6.690  0.2680 -0.7281 -0.8235
12405TIP3   OH258629   1.979   0.265  11.155 -0.4425 -0.3075 -0.6289
12405TIP3    H158630   1.990   0.176  11.190  1.8415  0.6037  1.2655
12405TIP3    H258631   2.015   0.260  11.066  0.1932 -1.1649 -0.3417
12406TIP3   OH258632   2.653   6.675  16.971 -0.0405 -0.3987  0.3382
12406TIP3    H158633   2.616   6.614  17.034 -0.3469  0.8329  1.3798
12406TIP3    H258634   2.593   6.749  16.970  0.6302  0.1613 -0.4723
12407TIP3   OH258635   2.456   4.972  14.063  0.4014  0.0252 -0.7001
12407TIP3    H158636   2.550   4.954  14.062  0.4556  0.2853 -0.3524
12407TIP3    H258637   2.442   5.030  13.988  0.3543 -0.7886 -1.3465
12408TIP3   OH258638   3.644   2.222   1.940 -0.4223 -0.1793  0.3599
12408TIP3    H158639   3.698   2.200   2.016 -1.5427  0.6153  1.4334
12408TIP3    H258640   3.657   2.316   1.927 -0.4607 -0.2534 -0.2600
12409TIP3   OH258641   3.724   2.816   4.798 -0.4611  0.3661 -0.2500
12409TIP3    H158642   3.789   2.844   4.862 -1.0406  0.6412  0.2266
12409TIP3    H258643   3.704   2.895   4.747 -1.6513  0.7059  0.7027
12410TIP3   OH258644   1.496   6.398  15.001  0.1926 -0.0186 -0.4471
12410TIP3    H158645   1.477   6.304  14.999  2.8210 -0.6275 -0.2386
12410TIP3    H258646   1.516   6.417  15.093 -2.1418  1.2271 -0.1179
12411TIP3   OH258647   3.191   0.249  16.220 -0.7485 -0.2736 -0.0751
12411TIP3    H158648   3.150   0.308  16.158  0.2729  0.2636 -0.2718
12411TIP3    H258649   3.276   0.228  16.180 -0.4168 -0.5578  0.7599
12412TIP3   OH258650   1.471   4.436   1.560 -0.2588  0.0157 -0.8274
12412TIP3    H158651   1.468   4.357   1.506 -0.6046  0.2044 -1.0854
12412TIP3    H258652   1.427   4.412   1.641  0.0191 -0.1865 -0.7370
12413TIP3   OH258653   6.408   2.787   6.754  0.5146  0.1389 -0.1757
12413TIP3    H158654   6.489   2.835   6.736 -0.6619  2.0308 -0.6472
12413TIP3    H258655   6.416   2.706   6.702  1.1970  1.2681 -1.9074
12414TIP3   OH258656   0.077   2.579   4.985  0.2353  0.4463  0.3577
12414TIP3    H158657   0.113   2.631   4.914 -0.0475 -0.2926 -0.3368
12414TIP3    H258658   0.050   2.497   4.944 -1.1185  0.5086  1.0724
12415TIP3   OH258659   6.405   4.273  17.007  0.5635  0.2032 -0.4685
12415TIP3    H158660   6.424   4.352  17.058  0.7971 -0.9861  1.4003
12415TIP3    H258661   6.473   4.271  16.940  0.4258  1.6812 -0.6831
12416TIP3   OH258662   2.249   3.955  17.160 -0.3376  0.6000  0.0306
12416TIP3    H158663   2.164   3.997  17.150  0.3216  2.0123  0.0562
12416TIP3    H258664   2.282   3.945  17.071  0.1836  1.6420  0.0899
12417TIP3   OH258665   0.117   1.875   1.745 -0.3993  0.3216 -0.3805
12417TIP3    H158666   0.172   1.838   1.676 -0.0971  0.8147 -0.4028
12417TIP3    H258667   0.033   1.829   1.735 -0.5757  0.8399 -1.5014
12418TIP3   OH258668   6.191   4.747  13.179 -0.1049 -0.2581 -0.2572
12418TIP3    H158669   6.150   4.705  13.103 -0.9468 -0.3210  0.2265
12418TIP3    H258670   6.275   4.779  13.145  0.6368 -2.4387 -0.6094
12419TIP3   OH258671   6.493   1.955  14.721 -0.2606  0.3539  0.2905
12419TIP3    H158672   6.542   1.976  14.800  1.5388  3.6445 -1.4885
12419TIP3    H258673   6.426   2.023  14.716 -1.5520 -0.8987 -0.1475
12420TIP3   OH258674   2.272   4.723  14.428 -0.0084 -0.1258 -0.3877
12420TIP3    H158675   2.185   4.753  14.403  0.1402  0.7342  0.0712
12420TIP3    H258676   2.307   4.682  14.349 -0.5516  0.1740 -0.7904
12421TIP3   OH258677   5.426   4.064   0.894 -0.3459  0.2021 -0.1428
12421TIP3    H158678   5.433   4.046   0.987 -0.9629  1.5159  0.1695
12421TIP3    H258679   5.505   4.023   0.856 -0.4418 -0.9279  0.8354
12422TIP3   OH258680   2.213   3.338  14.092  0.3890  0.1224  0.0997
12422TIP3    H158681   2.147   3.389  14.140 -0.1595  0.1192 -0.6463
12422TIP3    H258682   2.234   3.265  14.151 -0.4981 -0.0463  0.2182
12423TIP3   OH258683   0.248   0.694   3.884 -0.0888 -0.5872  0.4133
12423TIP3    H158684   0.218   0.784   3.875  0.2547 -0.1779  2.8036
12423TIP3    H258685   0.191   0.656   3.951  1.1464 -1.4678  1.0012
12424TIP3   OH258686   3.745   1.794   2.044 -0.4521 -0.4958 -0.1983
12424TIP3    H158687   3.808   1.847   2.093 -0.1946 -0.8978 -0.0928
12424TIP3    H258688   3.799   1.736   1.991 -0.7339 -0.5165 -0.4613
12425TIP3   OH258689   2.980   2.869  12.807 -0.1265  0.3633  0.0444
12425TIP3    H158690   2.939   2.956  12.813 -2.1464 -0.3961 -1.5344
12425TIP3    H258691   2.971   2.833  12.895  1.0381  1.8294  0.8180
12426TIP3   OH258692   5.544   5.314   0.809 -0.7895 -0.3203 -0.2617
12426TIP3    H158693   5.534   5.343   0.718 -0.7476  2.7030  0.5914
12426TIP3    H258694   5.624   5.262   0.808  0.0776  0.9334 -1.7235
12427TIP3   OH258695   3.235   1.462  14.963  0.0344  0.7588  0.0375
12427TIP3    H158696   3.243   1.384  14.909 -2.6251  0.9565 -0.7777
12427TIP3    H258697   3.226   1.428  15.052  1.8463  0.3342  0.1118
12428TIP3   OH258698   4.235   4.041  10.726  0.1015 -0.6761  0.1036
12428TIP3    H158699   4.237   4.045  10.631 -0.2009  0.1348  0.1221
12428TIP3    H258700   4.220   4.132  10.754  1.4328 -0.7004  0.9622
12429TIP3   OH258701   3.673   2.412  13.728 -0.0343 -0.0357  0.2872
12429TIP3    H158702   3.598   2.452  13.683 -0.2299  1.8651  2.1615
12429TIP3    H258703   3.741   2.407  13.660 -0.8258  1.2418 -0.6615
12430TIP3   OH258704   3.113   5.515  14.415  0.6584  0.0010  0.2290
12430TIP3    H158705   3.146   5.600  14.445 -0.8760  0.7421 -0.0894
12430TIP3    H258706   3.154   5.452  14.473  0.5479  1.1029  1.5580
12431TIP3   OH258707   3.948   2.318   4.281 -0.6293 -0.1180  0.0950
12431TIP3    H158708   3.940   2.306   4.187  0.8996  0.0982 -0.0939
12431TIP3    H258709   3.868   2.364   4.307 -0.3715  1.2359 -1.3534
12432TIP3   OH258710   5.569   0.616  14.931 -0.1778 -0.0707  0.3949
12432TIP3    H158711   5.645   0.634  14.985 -0.4943  1.1918  0.4402
12432TIP3    H258712   5.598   0.547  14.871  0.4449 -0.8534  1.5618
12433TIP3   OH258713   4.114   6.323  16.594  0.1829  0.3875  0.2010
12433TIP3    H158714   4.027   6.292  16.619  0.3837 -0.3482  0.0044
12433TIP3    H258715   4.170   6.246  16.601  0.6643  0.6685 -0.4366
12434TIP3   OH258716   2.892   1.110  11.249  0.1121 -0.5886 -0.0972
12434TIP3    H158717   2.952   1.143  11.181  1.0769 -2.9293 -0.4846
12434TIP3    H258718   2.806   1.146  11.225  0.9889  1.2570 -0.6524
12435TIP3   OH258719   3.910   1.204   0.701 -0.1895 -0.1858 -0.1720
12435TIP3    H158720   3.946   1.278   0.750  0.4138  0.3218 -1.3353
12435TIP3    H258721   3.823   1.191   0.738 -0.6131  1.5929 -0.4189
12436TIP3   OH258722   0.791   6.116  15.620 -0.2986 -0.3328 -0.2435
12436TIP3    H158723   0.862   6.177  15.640 -0.2561  0.4432 -2.4137
12436TIP3    H258724   0.763   6.081  15.704  0.9481  1.2710  0.8788
12437TIP3   OH258725   0.847   3.995   0.659 -0.3579  0.2075 -0.2458
12437TIP3    H158726   0.844   3.910   0.702  0.0492 -0.9518 -2.4064
12437TIP3    H258727   0.799   4.053   0.719  0.8825 -1.0737  2.1447
12438TIP3   OH258728   4.003   4.943  14.203 -0.8478 -0.2282  0.1978
12438TIP3    H158729   4.009   4.939  14.299  0.3026 -1.2951  0.1058
12438TIP3    H258730   4.049   5.024  14.180 -0.2744 -0.4615  0.4949
12439TIP3   OH258731   3.745   4.186   1.987 -0.1035  0.7642  0.2275
12439TIP3    H158732   3.684   4.116   1.965  0.2226  0.5463  0.0114
12439TIP3    H258733   3.735   4.251   1.917  0.0120  0.6649  0.1190
12440TIP3   OH258734   5.799   3.784  17.228 -0.0147 -0.4391 -0.3151
12440TIP3    H158735   5.875   3.730  17.208 -0.2586 -1.3532  1.1191
12440TIP3    H258736   5.758   3.799  17.142  1.1493 -0.8697 -0.9699
12441TIP3   OH258737   5.764   1.209   3.135  0.2380  0.1222 -0.2324
12441TIP3    H158738   5.742   1.129   3.181  0.6748  0.2603  0.2276
12441TIP3    H258739   5.693   1.270   3.156  1.1837  0.6850  1.5431
12442TIP3   OH258740   2.809   5.372  10.813 -0.2449 -0.2079  0.1341
12442TIP3    H158741   2.744   5.373  10.743 -0.4250  0.6310  0.3141
12442TIP3    H258742   2.825   5.464  10.833  0.1651 -0.4309  0.8636
12443TIP3   OH258743   2.461   0.467   5.914 -0.2113 -0.1795 -0.4193
12443TIP3    H158744   2.506   0.427   5.989 -1.0895  0.7643  0.6511
12443TIP3    H258745   2.532   0.501   5.860  0.4369 -0.4823  0.2127
12444TIP3   OH258746   1.656   3.804   2.871  0.3073 -0.4746 -0.3421
12444TIP3    H158747   1.603   3.875   2.837  1.5775  0.4171 -0.5375
12444TIP3    H258748   1.639   3.803   2.966 -0.1438 -0.2880 -0.4239
12445TIP3   OH258749   5.338   3.795  17.276  1.1339  0.2287 -0.2116
12445TIP3    H158750   5.338   3.705  17.244  0.0200  0.4843 -0.9659
12445TIP3    H258751   5.420   3.803  17.326  0.4096 -1.7296  1.4231
12446TIP3   OH258752   0.504   4.062   0.410  0.4487 -0.1334  0.3664
12446TIP3    H158753   0.477   4.015   0.331  3.6669 -0.5567 -0.6130
12446TIP3    H258754   0.494   4.155   0.387  1.9773 -0.2354 -0.8395
12447TIP3   OH258755   1.137   2.983   3.557  0.2572 -0.3357 -0.7031
12447TIP3    H158756   1.226   3.015   3.545  0.3468 -0.8227 -1.4495
12447TIP3    H258757   1.141   2.891   3.528  0.6178 -1.9243  3.6403
12448TIP3   OH258758   4.690   1.839  13.968 -0.5145  0.3411  0.4800
12448TIP3    H158759   4.629   1.905  13.934  2.5065  1.7591 -2.8095
12448TIP3    H258760   4.737   1.883  14.039 -0.3428  0.8218  0.0757
12449TIP3   OH258761   2.951   0.882  10.943  0.2476  0.9298 -0.6085
12449TIP3    H158762   2.933   0.967  10.984  0.4858  0.8313 -0.2933
12449TIP3    H258763   2.943   0.898  10.849  0.3974  1.3293 -0.5557
12450TIP3   OH258764   4.411   3.258   4.136  0.2957  0.1265 -0.5102
12450TIP3    H158765   4.381   3.178   4.179 -0.0215  0.8821  0.7451
12450TIP3    H258766   4.478   3.229   4.075 -0.5058 -1.2046 -0.8015
12451TIP3   OH258767   5.784   4.800   4.853 -0.2417  0.0715  0.0126
12451TIP3    H158768   5.713   4.830   4.910 -1.8408 -1.4070 -1.0910
12451TIP3    H258769   5.801   4.710   4.881 -1.7444 -1.0429 -2.3400
12452TIP3   OH258770   5.500   0.256  10.662 -0.3342 -0.1794 -0.7392
12452TIP3    H158771   5.462   0.294  10.582 -0.6285  1.0855 -0.0335
12452TIP3    H258772   5.583   0.302  10.672 -1.3211  1.3919  0.8859
12453TIP3   OH258773   1.016   5.729  15.546 -0.1564  0.4536 -0.2919
12453TIP3    H158774   1.060   5.812  15.565 -1.0218  0.8584  0.0021
12453TIP3    H258775   1.052   5.701  15.461  0.7483  0.7004  0.0006
12454TIP3   OH258776   0.720   4.707  11.248  0.2756  0.0640  0.3624
12454TIP3    H158777   0.685   4.755  11.173 -3.3379  2.5668  3.2880
12454TIP3    H258778   0.655   4.640  11.265  2.4564 -2.3657 -0.1999
12455TIP3   OH258779   3.033   2.218   6.014  0.0765  0.3144  0.2012
12455TIP3    H158780   2.969   2.157   5.978  0.0797  1.2630 -1.5207
12455TIP3    H258781   3.014   2.220   6.108 -0.5420 -1.5594  0.1530
12456TIP3   OH258782   1.107   6.390   1.323  0.0782  0.1787  0.4386
12456TIP3    H158783   1.124   6.483   1.311 -0.0788 -0.0688 -2.5048
12456TIP3    H258784   1.173   6.347   1.268  0.7209 -1.5372  2.4107
12457TIP3   OH258785   4.745   4.621  11.759 -0.1207 -0.2017  0.7865
12457TIP3    H158786   4.666   4.645  11.710 -1.6190 -1.7128  2.2851
12457TIP3    H258787   4.783   4.705  11.785 -0.7402  0.5789 -0.6991
12458TIP3   OH258788   6.383   6.207   4.857  0.2043  0.7641 -0.3952
12458TIP3    H158789   6.336   6.129   4.884 -1.3255  1.6624 -0.3218
12458TIP3    H258790   6.429   6.236   4.935  0.8936 -0.1122 -0.4603
12459TIP3   OH258791   2.304   1.590  12.233 -0.0386 -0.0113 -0.4378
12459TIP3    H158792   2.330   1.537  12.158  2.4311 -1.7631  1.4462
12459TIP3    H258793   2.220   1.553  12.260  1.6872 -3.4423  0.9478
12460TIP3   OH258794   0.311   5.850  11.215 -0.4278 -0.1687  0.3821
12460TIP3    H158795   0.230   5.798  11.215 -0.4661 -0.1178 -0.4752
12460TIP3    H258796   0.281   5.941  11.209 -0.2998 -0.1734 -0.3891
12461TIP3   OH258797   6.204   1.169   0.944  0.5526  0.0207 -0.2357
12461TIP3    H158798   6.193   1.227   0.869 -0.8010 -1.7198 -1.4757
12461TIP3    H258799   6.171   1.084   0.913  0.4720 -0.8855  2.1551
12462TIP3   OH258800   5.711   2.498  13.864 -0.3328  0.0198 -0.3715
12462TIP3    H158801   5.719   2.536  13.777 -0.6205 -0.5259 -0.6449
12462TIP3    H258802   5.739   2.407  13.853  0.4025  0.1582  0.2762
12463TIP3   OH258803   3.436   4.679  10.920 -0.1046 -0.0777 -0.2874
12463TIP3    H158804   3.410   4.743  10.853 -1.5154  0.2094  0.4961
12463TIP3    H258805   3.395   4.597  10.893  0.7624 -0.3972 -0.6780
12464TIP3   OH258806   4.312   0.041   0.213  0.0810 -0.0880  0.2378
12464TIP3    H158807   4.258   0.107   0.257  2.1732  1.5038  0.6098
12464TIP3    H258808   4.358   0.090   0.144  0.8863 -1.3911 -0.1881
12465TIP3   OH258809   0.444   6.302  15.772  0.2784  0.9913  0.4815
12465TIP3    H158810   0.504   6.304  15.847  2.7211  0.0443 -1.3194
12465TIP3    H258811   0.443   6.210  15.745 -0.9573  1.2371 -0.3770
12466TIP3   OH258812   1.293   0.990  12.736  0.8627  0.2162  0.0760
12466TIP3    H158813   1.285   1.074  12.691 -1.0196 -0.9311 -1.8775
12466TIP3    H258814   1.203   0.962  12.751  1.4423 -1.6619  0.2991
12467TIP3   OH258815   0.310   6.570   4.359 -0.1038 -0.0610  0.1426
12467TIP3    H158816   0.403   6.552   4.347 -0.1304  0.6517 -1.3984
12467TIP3    H258817   0.296   6.654   4.315 -1.5957 -0.4791 -0.2280
12468TIP3   OH258818   1.020   6.496   2.321 -0.0792 -0.0384  0.4525
12468TIP3    H158819   1.084   6.434   2.356  1.4855  2.0222  1.5127
12468TIP3    H258820   0.960   6.513   2.393 -0.5779 -0.4072  0.1272
12469TIP3   OH258821   4.946   3.870   2.516 -0.1942 -0.6971  0.1152
12469TIP3    H158822   4.956   3.899   2.426  1.1286 -2.0273 -0.1857
12469TIP3    H258823   4.853   3.850   2.524 -0.7155  1.2556 -0.3385
12470TIP3   OH258824   4.090   5.446  12.860  0.4977 -0.2152 -0.4794
12470TIP3    H158825   4.092   5.392  12.938  2.4425  0.3866 -0.0646
12470TIP3    H258826   4.006   5.426  12.818 -0.3700 -0.8881  1.5009
12471TIP3   OH258827   4.054   2.367   1.737 -0.6314  0.0922  0.4055
12471TIP3    H158828   4.076   2.448   1.691 -0.5133  0.1996  0.6502
12471TIP3    H258829   4.007   2.314   1.672  2.7884 -1.3825 -1.1262
12472TIP3   OH258830   0.459   4.030  11.311  0.3193  0.1781  0.1095
12472TIP3    H158831   0.535   3.975  11.295  0.5050  0.2718  0.6646
12472TIP3    H258832   0.450   4.083  11.232  1.5663  1.0382  0.5197
12473TIP3   OH258833   5.957   4.704   3.763  0.3581 -0.0425  0.1925
12473TIP3    H158834   6.039   4.714   3.715  0.2022  0.0268 -0.0626
12473TIP3    H258835   5.960   4.770   3.831  1.1223 -0.9364  1.0493
12474TIP3   OH258836   3.185   2.456   1.112 -0.0567  0.6223  0.1761
12474TIP3    H158837   3.187   2.430   1.020 -3.3456 -0.5111  0.2719
12474TIP3    H258838   3.117   2.523   1.117  0.1314  0.7398  1.7411
12475TIP3   OH258839   0.577   3.070   0.133  0.1049  0.2506  0.0876
12475TIP3    H158840   0.531   3.135   0.080 -0.5207  1.4464  1.9816
12475TIP3    H258841   0.627   3.122   0.196  2.2732 -1.0813 -0.4210
12476TIP3   OH258842   0.499   4.197  11.108 -0.3154  0.1471 -0.1070
12476TIP3    H158843   0.458   4.283  11.105  1.7520  1.1733 -2.1032
12476TIP3    H258844   0.533   4.183  11.019  1.7651 -1.5029  0.8544
12477TIP3   OH258845   5.713   2.925   3.960 -0.1029 -0.3301  0.0429
12477TIP3    H158846   5.635   2.874   3.939 -1.3440  1.0920  0.9371
12477TIP3    H258847   5.768   2.919   3.882 -1.8627 -0.0252 -1.2991
12478TIP3   OH258848   5.904   3.205  12.230 -0.2052 -0.3363  0.0821
12478TIP3    H158849   5.841   3.272  12.203  0.9848  0.5404 -0.6229
12478TIP3    H258850   5.930   3.163  12.148 -0.5914 -1.3592  0.4727
12479TIP3   OH258851   0.048   1.601   6.699  0.3380  0.3562 -0.3025
12479TIP3    H158852  -0.010   1.630   6.770  1.4684  0.9518  0.4215
12479TIP3    H258853  -0.005   1.609   6.620 -0.3886  1.4588  0.2581
12480TIP3   OH258854   3.077   0.304   3.320  0.0411  0.3562 -0.0484
12480TIP3    H158855   3.057   0.273   3.409  1.2110  0.9022  0.4314
12480TIP3    H258856   3.084   0.224   3.268  1.8696 -0.1707  0.9157
12481TIP3   OH258857   0.776   3.924  13.359 -0.6740  0.0741  0.0477
12481TIP3    H158858   0.762   3.892  13.448 -1.7388 -0.5944 -0.3372
12481TIP3    H258859   0.830   3.856  13.318  0.5438  0.7974  0.4183
12482TIP3   OH258860   6.690   2.338  10.691 -0.6023 -0.2855 -0.1887
12482TIP3    H158861   6.652   2.395  10.758  2.7687  2.0199  0.0325
12482TIP3    H258862   6.725   2.264  10.740  2.2134  1.5828  0.9328
12483TIP3   OH258863   6.286   1.044   6.148 -0.1581 -0.0774  0.7467
12483TIP3    H158864   6.226   1.113   6.121  0.1734  0.3323  1.0305
12483TIP3    H258865   6.374   1.080   6.133  0.0191 -0.5746  0.5579
12484TIP3   OH258866   2.579   1.619   1.889 -0.1384 -0.3414  0.1785
12484TIP3    H158867   2.542   1.670   1.817 -0.0027  0.5377  0.7177
12484TIP3    H258868   2.516   1.549   1.904 -1.6987  1.1719  1.1422
12485TIP3   OH258869   0.135   6.118   5.609 -0.1378  0.6178 -0.0321
12485TIP3    H158870   0.151   6.149   5.698 -0.8123 -1.0715  0.7239
12485TIP3    H258871   0.094   6.192   5.565 -0.4261  1.2555  1.2615
12486TIP3   OH258872   1.378   4.020  12.189 -0.1213  0.1065 -0.1539
12486TIP3    H158873   1.442   4.069  12.240 -0.0427 -0.9261  0.7634
12486TIP3    H258874   1.429   3.957  12.139 -0.2190  0.9630 -1.3779
12487TIP3   OH258875   0.574   0.218  16.826  0.5472 -0.3086  0.2732
12487TIP3    H158876   0.525   0.239  16.906 -0.3179  0.7504 -0.5143
12487TIP3    H258877   0.507   0.204  16.760  1.0286 -4.6715  0.3960
12488TIP3   OH258878   6.285   4.251  13.112  0.3533 -0.3631 -0.0904
12488TIP3    H158879   6.196   4.223  13.130  1.1113 -2.1278  1.1498
12488TIP3    H258880   6.288   4.262  13.017 -1.3537  0.4268 -0.0720
12489TIP3   OH258881   6.149   4.556   2.004 -0.0491 -0.1433 -0.4279
12489TIP3    H158882   6.218   4.554   1.938  0.6002  0.8666  0.1988
12489TIP3    H258883   6.076   4.601   1.961  0.7982  1.6391 -0.0995
12490TIP3   OH258884   3.683   4.676   2.425 -0.2931 -0.3294  0.2744
12490TIP3    H158885   3.654   4.656   2.514 -0.0318  0.2404  0.4934
12490TIP3    H258886   3.730   4.759   2.434 -0.3322 -0.2352 -0.4100
12491TIP3   OH258887   5.263   3.207   1.166  0.1373 -0.1251 -0.2488
12491TIP3    H158888   5.345   3.175   1.128 -0.3765  0.2045 -1.7044
12491TIP3    H258889   5.262   3.300   1.144  0.0366  0.1895  1.0270
12492TIP3   OH258890   0.280   5.592   2.503 -0.3416 -0.1743 -0.6469
12492TIP3    H158891   0.199   5.636   2.529 -0.9039 -0.2064 -2.2560
12492TIP3    H258892   0.254   5.503   2.481  0.3365 -0.5214 -0.1042
12493TIP3   OH258893   1.919   4.718  15.376  0.1297 -0.0661 -0.1558
12493TIP3    H158894   1.917   4.636  15.424 -0.5801 -0.1541 -0.3325
12493TIP3    H258895   1.995   4.710  15.318  1.4486  0.3350  1.4263
12494TIP3   OH258896   3.131   0.161   0.985  0.5492 -0.5898  0.9011
12494TIP3    H158897   3.223   0.190   0.982  1.0486 -2.0619  1.1000
12494TIP3    H258898   3.086   0.230   1.033  1.5331  0.2120  0.7112
12495TIP3   OH258899   0.094   5.032   3.363 -0.1241  0.1531 -0.0787
12495TIP3    H158900   0.187   5.030   3.339  1.0643  0.3200  3.9067
12495TIP3    H258901   0.080   5.121   3.396 -0.9473 -0.6637  1.8899
12496TIP3   OH258902   1.516   6.351   0.371 -0.8057  0.2342 -0.1526
12496TIP3    H158903   1.539   6.269   0.327  0.7188  0.3214  0.4267
12496TIP3    H258904   1.515   6.329   0.464 -1.4415  0.6513 -0.0523
12497TIP3   OH258905   5.719   3.300  13.210  0.3392 -0.6872 -0.0260
12497TIP3    H158906   5.679   3.250  13.282  1.6258 -0.4232  0.9235
12497TIP3    H258907   5.731   3.388  13.246 -1.6346  0.2885 -1.5857
12498TIP3   OH258908   2.843   6.614  14.568  0.4495  0.3612  0.0530
12498TIP3    H158909   2.816   6.681  14.505 -0.1430  0.6774  0.6208
12498TIP3    H258910   2.763   6.597  14.619  1.0034  0.3770  0.9451
12499TIP3   OH258911   5.486   2.312  14.419  0.3325 -0.0135 -0.2116
12499TIP3    H158912   5.433   2.388  14.394  1.7039  0.4649 -1.8400
12499TIP3    H258913   5.543   2.297  14.343  1.4772 -1.4309  0.8859
12500TIP3   OH258914   6.379   2.642   2.697 -0.2205  0.2232 -0.1953
12500TIP3    H158915   6.340   2.584   2.631  0.1069  1.2436 -1.3100
12500TIP3    H258916   6.473   2.638   2.680 -0.0610 -0.1478  0.7560
12501TIP3   OH258917   4.591   2.641  13.406  0.1999 -0.0739 -0.1783
12501TIP3    H158918   4.556   2.712  13.460  1.2384  1.4374 -1.4228
12501TIP3    H258919   4.684   2.638  13.428  1.0929  1.8608 -3.0981
12502TIP3   OH258920   2.668   5.855  11.877 -0.3594 -0.1791 -0.4525
12502TIP3    H158921   2.657   5.859  11.783 -0.8223 -0.1095 -0.3944
12502TIP3    H258922   2.604   5.791  11.907 -1.9173  1.5316  0.0816
12503TIP3   OH258923   6.171   6.687   3.065 -0.4888  0.0293 -0.5671
12503TIP3    H158924   6.243   6.696   3.128  0.1685  0.9680 -1.4154
12503TIP3    H258925   6.098   6.734   3.106  0.6473  2.8453 -1.4945
12504TIP3   OH258926   5.803   0.120   1.626 -0.2116  0.1795  0.2675
12504TIP3    H158927   5.884   0.125   1.677 -0.7885 -0.9536  1.3477
12504TIP3    H258928   5.740   0.080   1.685 -1.1702 -0.3230 -1.0512
12505TIP3   OH258929   2.651   0.978   4.702  0.0551  0.5194  0.1749
12505TIP3    H158930   2.694   0.955   4.785  1.1978 -0.7203 -0.7123
12505TIP3    H258931   2.558   0.983   4.724  0.4125  0.9836  1.6845
12506TIP3   OH258932   2.126   1.953   3.408 -0.2214 -0.1576  0.0354
12506TIP3    H158933   2.143   2.032   3.357  0.2785  1.3893  2.4386
12506TIP3    H258934   2.053   1.976   3.465  0.8095 -0.9123  1.7439
12507TIP3   OH258935   5.555   0.762  15.964 -0.3066 -0.5227  0.0612
12507TIP3    H158936   5.468   0.778  15.999 -0.0266  1.4940 -0.0428
12507TIP3    H258937   5.588   0.686  16.013 -2.2054 -1.5214 -0.1289
12508TIP3   OH258938   1.847   0.479  12.922 -0.3486 -0.0205  0.1307
12508TIP3    H158939   1.778   0.452  12.983 -0.1442 -1.4203 -0.2250
12508TIP3    H258940   1.896   0.399  12.903  3.1149  1.3397  2.4109
12509TIP3   OH258941   5.928   0.354  15.073  0.2066 -0.3332 -0.4550
12509TIP3    H158942   5.878   0.273  15.061 -2.7540  1.3426 -0.5127
12509TIP3    H258943   5.908   0.405  14.995 -0.4932  1.6051  0.9139
12510TIP3   OH258944   1.738   0.290  15.571  0.7387  0.3145 -0.3289
12510TIP3    H158945   1.699   0.377  15.578  1.2155  0.8645 -3.1361
12510TIP3    H258946   1.695   0.238  15.639 -1.6450  2.0127 -0.4263
12511TIP3   OH258947   4.958   6.523  14.575  0.5179 -0.4407 -0.4534
12511TIP3    H158948   4.929   6.573  14.499  0.5581  1.5474  0.7451
12511TIP3    H258949   4.896   6.451  14.582 -1.5919  1.2834 -0.4151
12512TIP3   OH258950   0.887   2.386  15.975 -0.8289 -0.1192 -0.4709
12512TIP3    H158951   0.829   2.442  16.027 -0.7561 -0.3590 -0.1288
12512TIP3    H258952   0.897   2.306  16.027 -0.4626 -0.2167 -0.6853
12513TIP3   OH258953   3.140   0.913   0.549 -0.1562  0.1792 -0.2158
12513TIP3    H158954   3.167   1.004   0.562 -1.5761  0.9818 -2.3415
12513TIP3    H258955   3.221   0.866   0.528  0.4828  1.1123  0.1457
12514TIP3   OH258956   0.460   2.334  14.930  0.0188 -0.3445 -0.0365
12514TIP3    H158957   0.485   2.400  14.995 -0.4679 -0.4154  0.2290
12514TIP3    H258958   0.507   2.255  14.957  0.3563 -0.1909 -0.1716
12515TIP3   OH258959   2.190   2.015   5.169 -0.1234 -0.9097 -0.2961
12515TIP3    H158960   2.274   2.058   5.185 -0.0803 -0.8166 -0.7476
12515TIP3    H258961   2.151   2.006   5.255  0.3644 -0.9787 -0.0776
12516TIP3   OH258962   2.167   4.947  14.047 -0.1795 -0.2426  0.0487
12516TIP3    H158963   2.259   4.971  14.043 -0.3536  0.3002 -2.2806
12516TIP3    H258964   2.127   5.010  14.106  0.3376  1.8903 -1.7594
12517TIP3   OH258965   4.826   2.883  14.354  0.1774  0.1933  0.2328
12517TIP3    H158966   4.736   2.909  14.334 -0.0171 -1.1465 -0.7521
12517TIP3    H258967   4.862   2.853  14.271  1.1475 -0.4197  0.8463
12518TIP3   OH258968   2.351   3.198   5.461 -0.2176  0.6109  0.1479
12518TIP3    H158969   2.287   3.174   5.529  0.4219 -0.1185  0.5166
12518TIP3    H258970   2.436   3.185   5.504  0.1810  1.5069 -0.3532
12519TIP3   OH258971   1.029   1.957   3.669  0.1647  0.1574 -0.1220
12519TIP3    H158972   0.997   1.966   3.579  1.2096 -0.1386 -0.5362
12519TIP3    H258973   0.997   1.871   3.697 -1.0908  0.7036  0.1974
12520TIP3   OH258974   6.534   4.171   0.747 -0.0916 -0.4647 -0.3060
12520TIP3    H158975   6.600   4.119   0.703  2.0136  2.2023 -0.5387
12520TIP3    H258976   6.578   4.206   0.824 -1.8188 -0.0612  0.5570
12521TIP3   OH258977   6.083   6.546  12.708 -0.0041 -0.0304 -0.2850
12521TIP3    H158978   6.029   6.472  12.733 -0.5802 -0.0749 -1.5898
12521TIP3    H258979   6.050   6.619  12.761  0.4517 -0.6525  0.8723
12522TIP3   OH258980   6.638   4.323  14.855  0.2513 -0.1842  0.4115
12522TIP3    H158981   6.681   4.238  14.847 -0.8937 -0.6549 -2.0015
12522TIP3    H258982   6.587   4.331  14.773 -0.6722  2.2599  1.1375
12523TIP3   OH258983   3.592   3.275   2.082  0.5262  0.6782 -0.3871
12523TIP3    H158984   3.672   3.308   2.043 -0.1394  2.0809 -0.6403
12523TIP3    H258985   3.534   3.259   2.007  1.4691 -3.1337 -0.4825
12524TIP3   OH258986   1.260   4.033   5.188 -0.0409  0.0668 -0.0942
12524TIP3    H158987   1.325   3.972   5.152 -0.2878 -0.7997  0.8696
12524TIP3    H258988   1.236   4.089   5.115  0.5037 -0.7358 -0.9063
12525TIP3   OH258989   4.790   2.489   1.447  0.3245  0.5640  0.1285
12525TIP3    H158990   4.777   2.583   1.449  1.5810  0.7816 -1.0963
12525TIP3    H258991   4.726   2.455   1.510 -1.5257  2.0552 -0.8332
12526TIP3   OH258992   2.340   6.250   6.111 -0.1110 -0.1494  0.1311
12526TIP3    H158993   2.292   6.329   6.137 -1.2317 -1.0771  1.0083
12526TIP3    H258994   2.427   6.260   6.151 -0.4309  0.3829  0.7151
12527TIP3   OH258995   3.710   2.609  15.497  0.3406 -0.3828  0.2727
12527TIP3    H158996   3.642   2.590  15.562 -0.3932 -0.2858 -0.4470
12527TIP3    H258997   3.791   2.584  15.539 -0.1940 -0.9762  0.9725
12528TIP3   OH258998   0.900   0.154   5.524  0.1344  0.2038 -0.0800
12528TIP3    H158999   0.980   0.165   5.473  0.2910  1.1035  0.3299
12528TIP3    H259000   0.928   0.107   5.603  0.1337 -0.0725 -0.2457
12529TIP3   OH259001   2.778   1.927  17.254 -0.0805 -0.1177  0.2232
12529TIP3    H159002   2.837   2.003  17.256 -1.1430  0.8053 -1.1189
12529TIP3    H259003   2.799   1.878  17.333  0.3505  1.8039  1.3722
12530TIP3   OH259004   6.433   0.319   4.675  0.3853 -0.0295  0.2993
12530TIP3    H159005   6.417   0.269   4.596 -0.9609 -0.8044  1.0147
12530TIP3    H259006   6.527   0.311   4.691  0.5475 -0.4749 -0.7947
12531TIP3   OH259007   4.515   0.465  13.649 -0.3330 -0.3473 -0.1351
12531TIP3    H159008   4.552   0.470  13.737  1.6830  0.0100 -0.9564
12531TIP3    H259009   4.590   0.451  13.592 -1.7545 -2.3810 -1.6662
12532TIP3   OH259010   6.001   1.444  12.256 -0.7587  0.2422 -0.7963
12532TIP3    H159011   5.964   1.531  12.240  0.0418  1.1968  2.0800
12532TIP3    H259012   6.060   1.429  12.182 -0.6215  2.2979 -1.1502
12533TIP3   OH259013   2.239   3.487   0.315  0.1973 -0.4640 -0.3707
12533TIP3    H159014   2.310   3.423   0.319  0.3723 -0.3403 -1.3353
12533TIP3    H259015   2.271   3.555   0.256  0.4079  1.0123  1.3344
12534TIP3   OH259016   0.417   0.232   0.742 -0.0788 -0.3568 -0.5253
12534TIP3    H159017   0.383   0.301   0.686 -0.2107  0.2579  0.2880
12534TIP3    H259018   0.340   0.178   0.763 -0.1025 -0.3648 -0.6351
12535TIP3   OH259019   5.648   1.512  13.656  0.1364  0.1794 -0.1849
12535TIP3    H159020   5.733   1.486  13.620  0.5997  1.2349  0.1078
12535TIP3    H259021   5.596   1.537  13.579  0.0771 -0.5062 -0.3673
12536TIP3   OH259022   1.613   3.356  16.822  0.2347  0.0375  0.3702
12536TIP3    H159023   1.623   3.287  16.888  0.7623 -1.0525 -0.8329
12536TIP3    H259024   1.692   3.410  16.832  0.1745  0.0497  0.8152
12537TIP3   OH259025   2.533   4.537  14.380  0.3404 -0.2142 -0.2208
12537TIP3    H159026   2.588   4.459  14.375  2.4744  1.2630 -1.1389
12537TIP3    H259027   2.535   4.575  14.292  1.3365  2.1137  0.7145
12538TIP3   OH259028   4.343   6.667   6.419  0.0002 -0.3994  0.3853
12538TIP3    H159029   4.396   6.731   6.372  1.9917 -1.2301  1.4104
12538TIP3    H259030   4.405   6.600   6.447 -1.6062 -1.4323  1.6478
12539TIP3   OH259031   2.123   3.255  16.217  0.2428  0.1766  0.6927
12539TIP3    H159032   2.205   3.207  16.227  1.2524  1.5933 -0.2960
12539TIP3    H259033   2.076   3.241  16.299  1.2334 -1.0857  1.0700
12540TIP3   OH259034   2.703   3.532  15.488 -0.4177 -0.1257 -0.2253
12540TIP3    H159035   2.764   3.547  15.414  1.5458 -1.4360  1.0319
12540TIP3    H259036   2.720   3.605  15.547  0.0595 -0.5655  0.1905
12541TIP3   OH259037   0.644   3.471  11.987  0.4938 -1.3690  0.1603
12541TIP3    H159038   0.701   3.490  11.913  1.8852 -2.4135  0.9248
12541TIP3    H259039   0.556   3.466  11.948  0.8545  0.4087 -1.0146
12542TIP3   OH259040   0.040   4.492   2.828  0.0506 -0.0237  0.1933
12542TIP3    H159041   0.068   4.471   2.917  1.7857 -0.6814 -0.4745
12542TIP3    H259042  -0.027   4.427   2.808 -2.4846  1.8336  1.9628
12543TIP3   OH259043   4.882   2.673  13.783  0.3122  0.1650  0.6604
12543TIP3    H159044   4.898   2.752  13.730  0.6068  0.1184  0.6747
12543TIP3    H259045   4.947   2.610  13.751 -0.7849 -0.5274 -0.2792
12544TIP3   OH259046   0.284   1.533  15.871 -0.2363  0.0523 -0.7134
12544TIP3    H159047   0.225   1.467  15.835 -0.1689 -0.3331 -0.1306
12544TIP3    H259048   0.371   1.494  15.862  0.0059  0.8676 -2.1177
12545TIP3   OH259049   0.930   3.972   5.130  0.0151 -0.4638  0.3228
12545TIP3    H159050   0.971   4.022   5.059 -2.0630  0.6078 -0.1909
12545TIP3    H259051   0.983   3.993   5.207  1.5920 -0.7029 -0.6382
12546TIP3   OH259052   2.689   3.432   1.953  0.2828  0.3942  0.2384
12546TIP3    H159053   2.776   3.469   1.942  0.8783 -0.7548  0.8774
12546TIP3    H259054   2.699   3.368   2.024 -0.7583 -0.7396 -0.5967
12547TIP3   OH259055   2.036   0.562  11.253 -0.0205  0.0673  0.1631
12547TIP3    H159056   2.083   0.483  11.228 -0.8305 -0.6444  0.8451
12547TIP3    H259057   2.034   0.615  11.173  1.9414  0.1517  0.1170
12548TIP3   OH259058   3.321   5.400   4.682 -0.2300  0.1232  0.1402
12548TIP3    H159059   3.380   5.393   4.606 -0.5334 -0.9978 -0.0103
12548TIP3    H259060   3.275   5.483   4.669 -1.1386 -0.6048 -1.5438
12549TIP3   OH259061   3.791   0.796   0.995 -0.2168 -0.1453  0.6134
12549TIP3    H159062   3.759   0.827   0.910 -1.9862 -0.1497  1.2482
12549TIP3    H259063   3.755   0.858   1.058  1.2903  0.0081  1.3681
12550TIP3   OH259064   1.785   3.065  10.613 -0.2678  0.0416 -0.4857
12550TIP3    H159065   1.766   3.152  10.577  0.0023  0.0115 -0.7104
12550TIP3    H259066   1.715   3.009  10.580 -1.1905  0.4469  0.7432
12551TIP3   OH259067   4.692   4.978   6.116 -0.1358 -0.7440  0.6522
12551TIP3    H159068   4.596   4.981   6.116 -0.1062  0.3738  0.6432
12551TIP3    H259069   4.719   5.069   6.110  0.9292 -1.0954 -0.3109
12552TIP3   OH259070   1.083   5.183  15.735  0.1125  0.1219 -0.3140
12552TIP3    H159071   1.038   5.171  15.819 -0.0820  0.2014 -0.4051
12552TIP3    H259072   1.085   5.278  15.722  0.0715  0.1060 -0.4371
12553TIP3   OH259073   5.535   1.467  13.409  0.4612 -0.1267  0.4827
12553TIP3    H159074   5.468   1.414  13.453  0.6591 -1.1298 -0.3898
12553TIP3    H259075   5.605   1.405  13.388  0.1422  0.1735 -1.7098
12554TIP3   OH259076   4.715   2.515   4.477  0.4632 -0.2332  0.0029
12554TIP3    H159077   4.736   2.431   4.519  2.1798  0.5606  0.8402
12554TIP3    H259078   4.643   2.551   4.531 -1.3755 -1.7810 -1.2758
12555TIP3   OH259079   2.827   5.489  15.136 -0.4096 -0.6516 -0.0440
12555TIP3    H159080   2.918   5.499  15.165 -0.5975  1.2846  0.0032
12555TIP3    H259081   2.794   5.414  15.186  0.8118 -0.6651  0.7942
12556TIP3   OH259082   2.651   3.362   3.309  0.2881  0.3013 -0.5427
12556TIP3    H159083   2.590   3.290   3.326 -0.1733  0.6761 -0.5853
12556TIP3    H259084   2.598   3.428   3.264  0.6768  0.7129 -0.4039
12557TIP3   OH259085   5.936   6.658  14.549 -0.2077 -0.4227 -0.1899
12557TIP3    H159086   5.962   6.750  14.544 -0.6981 -0.2263  0.6854
12557TIP3    H259087   5.941   6.627  14.459 -0.7107  0.6479 -0.5986
12558TIP3   OH259088   5.447   4.528  17.186 -0.2791 -0.0080  0.0312
12558TIP3    H159089   5.474   4.484  17.266 -1.8538 -1.1872 -0.0375
12558TIP3    H259090   5.432   4.619  17.211 -1.1063 -0.4437  1.1776
12559TIP3   OH259091   2.989   5.485  16.852  0.4576 -0.2224  0.0927
12559TIP3    H159092   2.903   5.477  16.894 -0.4658 -0.3209 -1.6907
12559TIP3    H259093   2.974   5.544  16.778  2.5343  1.8134  1.1842
12560TIP3   OH259094   0.640   3.317   2.444 -0.2726  0.7750  0.0079
12560TIP3    H159095   0.718   3.274   2.481 -0.8949 -0.3553  0.0649
12560TIP3    H259096   0.571   3.299   2.508 -0.6174  1.6541 -0.1098
12561TIP3   OH259097   1.267   5.993   3.013  0.0350  0.1130 -0.2285
12561TIP3    H159098   1.190   5.963   2.964 -0.5133 -1.5933  1.5429
12561TIP3    H259099   1.232   6.050   3.080 -0.0491 -2.1611  1.8076
12562TIP3   OH259100   5.820   1.213  12.730 -0.5772  0.2232 -0.1137
12562TIP3    H159101   5.905   1.207  12.687 -0.7092  0.5341 -0.4310
12562TIP3    H259102   5.837   1.190  12.821  0.1127  1.6682  0.1463
12563TIP3   OH259103   0.159   2.377  12.418 -0.4466  0.1050  0.4845
12563TIP3    H159104   0.140   2.285  12.435 -0.3843  0.1588  0.8706
12563TIP3    H259105   0.074   2.420  12.422 -0.5529 -0.0252 -0.3140
12564TIP3   OH259106   5.322   5.719   0.410  0.3134  0.0161 -0.2018
12564TIP3    H159107   5.318   5.651   0.477 -1.6570 -0.4068 -0.6988
12564TIP3    H259108   5.415   5.741   0.404  0.5059  1.3423  3.9235
12565TIP3   OH259109   2.193   3.924   2.373  0.1935  0.0541  0.3647
12565TIP3    H159110   2.131   3.904   2.443 -2.4023 -0.5863 -1.9330
12565TIP3    H259111   2.260   3.855   2.380  0.2644  0.2548  2.3875
12566TIP3   OH259112   4.572   1.456   0.702 -0.0261 -0.3134  0.1584
12566TIP3    H159113   4.615   1.373   0.683  1.2369  0.1610  0.8685
12566TIP3    H259114   4.479   1.433   0.711  0.0321 -1.3377 -1.4718
12567TIP3   OH259115   5.689   5.831  13.234  0.1404 -0.3592  0.7222
12567TIP3    H159116   5.749   5.886  13.184  0.2748 -0.2818  0.9624
12567TIP3    H259117   5.657   5.889  13.304 -1.0319 -0.0769 -0.0171
12568TIP3   OH259118   5.091   1.533  11.778 -0.3259 -0.5525 -0.7076
12568TIP3    H159119   5.133   1.596  11.720  1.5695  0.4446  1.6085
12568TIP3    H259120   5.148   1.456  11.776  2.1246  0.9323  2.7161
12569TIP3   OH259121   5.744   5.612   1.496 -0.0849 -0.1730 -0.3172
12569TIP3    H159122   5.699   5.646   1.573 -0.2301  1.1154 -0.9427
12569TIP3    H259123   5.712   5.523   1.487 -1.8053  0.3946 -0.1968
12570TIP3   OH259124   3.420   3.255  11.088 -0.0039  0.1284 -0.5006
12570TIP3    H159125   3.503   3.294  11.061 -1.7637  1.6932 -4.3977
12570TIP3    H259126   3.419   3.169  11.048  0.1809 -0.3545  0.5137
12571TIP3   OH259127   2.060   0.097  16.570  0.1170  0.0588 -0.0160
12571TIP3    H159128   2.121   0.060  16.506  1.5536  2.2435  0.0226
12571TIP3    H259129   2.085   0.189  16.578 -2.4304  0.7621  0.9209
12572TIP3   OH259130   2.914   2.554   6.037 -0.5884  0.2872  0.3990
12572TIP3    H159131   2.824   2.523   6.048 -0.3881 -1.7362 -2.4991
12572TIP3    H259132   2.964   2.504   6.102 -1.1805 -0.7808  0.0556
12573TIP3   OH259133   2.651   1.196   5.058 -0.0304  0.0618 -0.3534
12573TIP3    H159134   2.619   1.284   5.042 -0.8859 -0.0440  0.6315
12573TIP3    H259135   2.574   1.148   5.090  0.6024 -0.8136 -0.1014
12574TIP3   OH259136   0.292   3.401  12.120 -0.9332  0.9044  0.2238
12574TIP3    H159137   0.317   3.316  12.157  0.3396  1.0383 -0.2911
12574TIP3    H259138   0.205   3.386  12.083 -0.3928 -0.4064 -0.5725
12575TIP3   OH259139   1.602   2.088   5.697  0.1599 -0.0101  0.5949
12575TIP3    H159140   1.614   2.034   5.775  0.8093  0.4245  0.8083
12575TIP3    H259141   1.645   2.038   5.627 -1.9639 -1.2557  0.1109
12576TIP3   OH259142   4.858   1.080  12.043  0.0295 -0.0232  0.1083
12576TIP3    H159143   4.802   1.154  12.067 -0.4270 -0.6232  0.9699
12576TIP3    H259144   4.851   1.073  11.948  1.2727  1.9584 -0.1769
12577TIP3   OH259145   5.405   2.260   3.124  0.2325 -0.3594 -0.2091
12577TIP3    H159146   5.492   2.245   3.162 -0.2514 -1.0037  0.6922
12577TIP3    H259147   5.357   2.179   3.143  0.3810 -1.3379 -3.5002
12578TIP3   OH259148   5.925   4.863  12.189 -0.1412 -0.2328 -0.1918
12578TIP3    H159149   5.896   4.778  12.158 -0.5836 -0.5808  1.1152
12578TIP3    H259150   6.010   4.846  12.230  0.3223  0.1770 -0.9550
12579TIP3   OH259151   4.815   5.532   0.718  0.0645 -0.2217 -0.3784
12579TIP3    H159152   4.738   5.513   0.665 -0.5162  2.6998 -0.7773
12579TIP3    H259153   4.779   5.554   0.804  0.6307 -0.6644 -0.0231
12580TIP3   OH259154   0.406   0.928   3.167 -0.1679  0.4468 -0.0284
12580TIP3    H159155   0.395   0.834   3.182  0.3323  0.1745 -1.2565
12580TIP3    H259156   0.353   0.969   3.235 -3.5840 -0.7282 -1.7576
12581TIP3   OH259157   1.901   2.695   1.504  0.0871  0.2249 -0.1808
12581TIP3    H159158   1.953   2.695   1.585 -3.1036 -0.4527  2.0602
12581TIP3    H259159   1.875   2.787   1.492  0.6136  0.3361 -0.5157
12582TIP3   OH259160   3.057   2.420  14.081  0.0434  0.0317 -0.0983
12582TIP3    H159161   3.008   2.383  14.155  0.3075  1.0495  0.5995
12582TIP3    H259162   2.992   2.470  14.032 -0.1852 -0.8411 -0.7131
12583TIP3   OH259163   3.388   0.761   0.550 -0.5511 -0.2773 -0.2382
12583TIP3    H159164   3.437   0.741   0.629 -2.4585  0.3669  1.2024
12583TIP3    H259165   3.454   0.790   0.487  1.1121 -1.5842  0.8212
12584TIP3   OH259166   1.427   6.222  15.798 -0.2550 -0.2242 -0.6395
12584TIP3    H159167   1.499   6.282  15.817 -0.4922 -0.6809  2.2326
12584TIP3    H259168   1.361   6.276  15.756  0.6365  0.8765 -0.6840
12585TIP3   OH259169   1.425   3.595   5.825 -0.0878  0.3068 -0.6326
12585TIP3    H159170   1.486   3.522   5.818 -0.6118 -0.2838  0.6286
12585TIP3    H259171   1.479   3.673   5.812  1.8807  0.0952  4.0678
12586TIP3   OH259172   6.224   1.583  14.549  0.2348  0.3980 -0.3171
12586TIP3    H159173   6.170   1.607  14.624 -1.0270 -0.3950 -0.9248
12586TIP3    H259174   6.255   1.495  14.569  0.4048  0.4269 -0.4524
12587TIP3   OH259175   2.299   5.672   1.896  0.1136  0.3822  0.2805
12587TIP3    H159176   2.369   5.737   1.909  1.2965 -0.7739 -0.0501
12587TIP3    H259177   2.325   5.599   1.952  0.3805 -0.9628 -1.5044
12588TIP3   OH259178   0.257   1.108   1.390 -0.3200 -0.3620  0.2979
12588TIP3    H159179   0.235   1.041   1.455  1.5461 -1.1016  0.2158
12588TIP3    H259180   0.317   1.064   1.329 -0.6451  0.8191 -0.9349
12589TIP3   OH259181   6.565   1.876  16.851 -0.6321 -0.2517 -0.2467
12589TIP3    H159182   6.580   1.942  16.919  1.0628 -2.4834  1.7297
12589TIP3    H259183   6.603   1.914  16.772  1.2479  0.7724  1.0646
12590TIP3   OH259184   2.162   5.514   4.948 -0.0229  0.5028  0.1832
12590TIP3    H159185   2.104   5.449   4.988  0.0324 -0.0519 -0.6156
12590TIP3    H259186   2.108   5.557   4.881 -0.4697  2.2201  1.5535
12591TIP3   OH259187   5.987   1.145   5.601  0.0919  0.0987  0.0594
12591TIP3    H159188   6.077   1.150   5.633  0.2570 -0.2333 -0.3361
12591TIP3    H259189   5.987   1.197   5.521 -0.1810  0.4680  0.2978
12592TIP3   OH259190   2.298   3.165   4.903 -0.1200 -0.0008 -0.5191
12592TIP3    H159191   2.218   3.200   4.864  0.7468  0.3578 -2.0526
12592TIP3    H259192   2.338   3.113   4.833  1.6801  0.9515 -0.2557
12593TIP3   OH259193   0.578   4.395   6.179  0.1953  0.5352 -0.4834
12593TIP3    H159194   0.489   4.425   6.194  0.1585  0.3610 -0.3447
12593TIP3    H259195   0.625   4.472   6.146 -0.4464  0.1580 -2.3666
12594TIP3   OH259196   2.505   2.990  16.789  0.0125  0.7073 -0.3997
12594TIP3    H159197   2.471   3.079  16.793  0.1510  0.7702 -0.6601
12594TIP3    H259198   2.466   2.946  16.865 -2.1501  0.2428 -1.7263
12595TIP3   OH259199   2.375   4.171   1.732  0.0694 -0.7625 -0.1919
12595TIP3    H159200   2.387   4.079   1.755 -1.2139 -1.5797 -2.3988
12595TIP3    H259201   2.283   4.177   1.706  0.0682  1.2146  0.1674
12596TIP3   OH259202   6.078   5.177  14.655  0.0351 -0.1265  0.6134
12596TIP3    H159203   6.087   5.224  14.573 -0.8327 -0.6083  0.2269
12596TIP3    H259204   6.025   5.235  14.710  0.4695  0.1194  0.7794
12597TIP3   OH259205   2.368   4.963   1.279  0.5307  0.2634 -0.9983
12597TIP3    H159206   2.298   5.026   1.295  0.3498  0.1642 -1.3974
12597TIP3    H259207   2.355   4.934   1.188  1.0038  0.1439 -1.0325
12598TIP3   OH259208   0.464   3.944  16.726  0.1695  0.3135 -0.3353
12598TIP3    H159209   0.498   4.033  16.731 -1.1470  0.9014 -1.2375
12598TIP3    H259210   0.418   3.931  16.809  0.8725  0.2401  0.0504
12599TIP3   OH259211   0.471   3.315  14.572  0.1294  0.4502 -0.2386
12599TIP3    H159212   0.453   3.307  14.666  0.4053 -0.5301 -0.2521
12599TIP3    H259213   0.518   3.235  14.551 -2.3284 -0.7258 -1.7623
12600TIP3   OH259214   3.488   5.140  14.306  0.5156  0.4597 -0.0472
12600TIP3    H159215   3.582   5.152  14.305  0.6335 -0.3442 -1.7414
12600TIP3    H259216   3.467   5.104  14.220 -1.2615  0.0573  0.5076
12601TIP3   OH259217   3.548   3.898  13.887 -0.0026  0.2082  0.2403
12601TIP3    H159218   3.502   3.876  13.967 -1.4681 -2.3051 -1.1535
12601TIP3    H259219   3.585   3.814  13.857 -0.9775  0.6620 -2.5404
12602TIP3   OH259220   5.563   0.212  13.086 -0.1385  0.1085  0.2943
12602TIP3    H159221   5.630   0.209  13.018 -0.7067  0.0943 -0.2831
12602TIP3    H259222   5.502   0.279  13.055 -1.5626 -1.3950 -0.3365
12603TIP3   OH259223   6.075   3.431   2.728 -0.5670  0.1755  0.1718
12603TIP3    H159224   5.984   3.446   2.700 -0.8527  0.7802  1.3644
12603TIP3    H259225   6.073   3.345   2.770 -0.5656  0.1415  0.1021
12604TIP3   OH259226   3.742   4.557   0.620  0.2908 -0.4192  0.0683
12604TIP3    H159227   3.719   4.466   0.639 -0.8841  0.1168  1.3582
12604TIP3    H259228   3.831   4.567   0.654  0.3269 -1.0179  0.1568
12605TIP3   OH259229   2.195   4.775   6.702 -0.0132 -0.7004  0.5959
12605TIP3    H159230   2.203   4.855   6.754 -1.1638  1.2076 -1.9287
12605TIP3    H259231   2.123   4.727   6.743  0.1187 -0.0213  1.6551
12606TIP3   OH259232   2.072   5.839  13.103  0.1135 -0.4494  0.5289
12606TIP3    H159233   2.023   5.851  13.185  0.4587 -2.0560  0.9982
12606TIP3    H259234   2.031   5.901  13.042 -2.1123 -1.2768  1.0713
12607TIP3   OH259235   3.299   2.525   5.930 -0.2801  0.3055 -0.0736
12607TIP3    H159236   3.255   2.509   5.846 -1.2469 -0.0476  0.4857
12607TIP3    H259237   3.231   2.509   5.996  0.3198  1.1151  0.7603
12608TIP3   OH259238   3.303   1.169  12.082  0.4736 -0.2789  0.1951
12608TIP3    H159239   3.250   1.248  12.095  2.5781  1.3495 -0.5582
12608TIP3    H259240   3.310   1.131  12.170  0.7633  1.3285  0.9208
12609TIP3   OH259241   4.773   1.590   2.144  0.3639  0.5366 -0.2484
12609TIP3    H159242   4.775   1.629   2.057  1.3033 -0.7172 -0.8115
12609TIP3    H259243   4.846   1.529   2.145 -0.1221 -0.0676  1.1516
12610TIP3   OH259244   1.762   3.124   6.066 -0.1950 -0.1407 -0.1679
12610TIP3    H159245   1.824   3.054   6.087 -0.3185  0.1110  1.0921
12610TIP3    H259246   1.680   3.097   6.107  0.1663  1.4733  1.7926
12611TIP3   OH259247   3.779   5.157  15.214 -0.7591 -0.2145  0.6350
12611TIP3    H159248   3.875   5.162  15.213 -0.7811  1.2295  1.5046
12611TIP3    H259249   3.760   5.064  15.226  0.4558 -0.8694 -1.8314
12612TIP3   OH259250   2.904   5.766  15.831 -0.1861 -0.2456 -0.5350
12612TIP3    H159251   2.841   5.811  15.775 -0.3734 -0.0205 -0.1540
12612TIP3    H259252   2.989   5.800  15.804 -0.2775 -0.1175 -0.6637
12613TIP3   OH259253   3.894   6.583  12.425 -0.0548 -0.5598 -0.0060
12613TIP3    H159254   3.937   6.570  12.510 -1.2287 -0.0823  0.6857
12613TIP3    H259255   3.858   6.671  12.430 -1.0228 -0.9119 -0.5982
12614TIP3   OH259256   5.079   0.966   1.171  0.2331  0.0224  0.1757
12614TIP3    H159257   5.144   1.005   1.113  1.2511 -0.8528  0.6857
12614TIP3    H259258   5.033   1.040   1.210 -1.1096  0.6517 -2.3611
12615TIP3   OH259259   0.003   3.741   4.820  0.2309 -0.3590  0.5571
12615TIP3    H159260  -0.001   3.647   4.838  2.0554 -0.4479  0.6627
12615TIP3    H259261   0.059   3.776   4.890  0.0859  0.7032  0.1557
12616TIP3   OH259262   0.616   4.321   5.813 -0.1820  0.2507  0.5022
12616TIP3    H159263   0.562   4.244   5.794 -1.7100  1.1315  1.1121
12616TIP3    H259264   0.570   4.394   5.771  0.9810  0.9245  0.3499
12617TIP3   OH259265   3.882   4.812  11.868  0.0994  0.1649 -0.3266
12617TIP3    H159266   3.871   4.798  11.962 -0.9768 -0.5959 -0.5540
12617TIP3    H259267   3.845   4.899  11.852 -0.8456 -0.2120 -0.2334
12618TIP3   OH259268   5.449   2.474  16.019  0.4978 -0.2350  0.0668
12618TIP3    H159269   5.368   2.426  16.031  0.0451 -0.1659 -2.3102
12618TIP3    H259270   5.462   2.521  16.102 -2.4522  0.6125  0.1356
12619TIP3   OH259271   0.288   2.840  12.017 -0.0825  0.0306 -0.2991
12619TIP3    H159272   0.320   2.754  11.988 -1.7841 -0.8337  0.2532
12619TIP3    H259273   0.194   2.839  11.998 -0.3680  1.2871  0.8554
12620TIP3   OH259274   1.044   6.458  13.087 -0.2584  0.5747  0.0795
12620TIP3    H159275   0.992   6.384  13.056  0.9421 -1.0073  1.6264
12620TIP3    H259276   0.981   6.529  13.097 -1.7083 -0.6356 -0.1253
12621TIP3   OH259277   6.160   3.738   5.516 -0.3625  0.6073 -0.6084
12621TIP3    H159278   6.165   3.830   5.490 -0.1889  1.0249  0.8201
12621TIP3    H259279   6.068   3.724   5.537 -0.1841  0.7920  0.3173
12622TIP3   OH259280   2.632   4.915   1.739  0.4422  0.3040 -0.0247
12622TIP3    H159281   2.636   4.890   1.831 -0.3720 -3.1771 -0.7839
12622TIP3    H259282   2.569   4.987   1.736  1.5660  1.4907  2.2268
12623TIP3   OH259283   1.274   2.184   4.377 -0.1889  0.1118  0.0484
12623TIP3    H159284   1.205   2.124   4.406 -0.3244  0.5035  0.5510
12623TIP3    H259285   1.333   2.190   4.452  0.3077 -0.0896 -0.3202
12624TIP3   OH259286   1.520   0.570   3.885 -0.5012 -0.0123  0.0652
12624TIP3    H159287   1.537   0.536   3.797 -0.2435  0.7330 -0.1808
12624TIP3    H259288   1.497   0.662   3.872  1.5590  0.6958  0.9101
12625TIP3   OH259289   3.836   6.311  10.288 -0.3786  0.1225  0.4208
12625TIP3    H159290   3.879   6.361  10.357 -0.5166  0.1075  0.5171
12625TIP3    H259291   3.804   6.378  10.227  0.5996  0.1014 -0.1396
12626TIP3   OH259292   4.784   4.826  14.391  0.5136 -0.1622 -0.4871
12626TIP3    H159293   4.789   4.761  14.461  1.7181 -0.7470 -1.0765
12626TIP3    H259294   4.858   4.884  14.407  1.1059 -0.5891 -1.5147
12627TIP3   OH259295   3.698   3.778  14.585  0.0807 -0.2105 -0.2598
12627TIP3    H159296   3.783   3.818  14.602 -0.5278  1.4269 -0.7900
12627TIP3    H259297   3.718   3.689  14.558  1.7969  0.6639 -2.2060
12628TIP3   OH259298   5.134   3.505   3.710 -0.8238  0.8657 -0.4425
12628TIP3    H159299   5.064   3.567   3.732 -0.7271  0.6325  0.5909
12628TIP3    H259300   5.088   3.430   3.671 -1.2639  0.3718  0.9529
12629TIP3   OH259301   2.386   2.319   0.613  0.1574 -0.0958 -0.2077
12629TIP3    H159302   2.383   2.224   0.603 -0.1412 -0.4012  2.0705
12629TIP3    H259303   2.294   2.346   0.618  0.1932 -0.1978  2.4112
12630TIP3   OH259304   0.017   3.676  16.031  0.0495  0.3496  0.2112
12630TIP3    H159305  -0.025   3.643  15.951 -0.3959  0.8379  0.2348
12630TIP3    H259306   0.108   3.647  16.024 -0.1926 -0.3617 -0.0488
12631TIP3   OH259307   1.739   6.335   1.246 -0.1593 -0.3911 -0.4521
12631TIP3    H159308   1.685   6.409   1.274 -1.1433 -1.1737 -0.2192
12631TIP3    H259309   1.828   6.370   1.243 -0.9041  1.6304 -3.2452
12632TIP3   OH259310   5.118   3.584   1.636  0.4279  0.4088  0.0173
12632TIP3    H159311   5.197   3.600   1.688  1.0970 -1.6087 -0.2781
12632TIP3    H259312   5.118   3.489   1.622 -3.7143 -0.1849  2.5695
12633TIP3   OH259313   3.939   4.807  13.916 -0.4695 -0.0821  0.1032
12633TIP3    H159314   3.945   4.730  13.973 -0.8751 -1.0569 -1.1341
12633TIP3    H259315   4.011   4.797  13.854 -1.2633 -0.1026 -0.8269
12634TIP3   OH259316   1.476   5.933  15.198 -0.4907  0.0332 -0.6423
12634TIP3    H159317   1.436   5.914  15.113 -0.0882 -0.1575 -0.7885
12634TIP3    H259318   1.405   5.971  15.249 -0.5650  0.8239 -1.3002
12635TIP3   OH259319   2.528   0.831   0.889 -0.0557 -0.5434 -0.6455
12635TIP3    H159320   2.480   0.753   0.915 -0.1923 -0.0676  0.6119
12635TIP3    H259321   2.620   0.807   0.899 -0.0501 -1.0022 -1.6917
12636TIP3   OH259322   5.693   2.385   4.029 -0.0565  0.0725 -0.7400
12636TIP3    H159323   5.771   2.436   4.052 -0.0304 -0.2333 -0.1174
12636TIP3    H259324   5.634   2.396   4.104  0.2770 -1.4588 -0.2127
12637TIP3   OH259325   0.117   2.799  11.405  0.0824 -0.3137  0.7357
12637TIP3    H159326   0.096   2.751  11.325 -0.4489 -2.3431  1.9966
12637TIP3    H259327   0.212   2.801  11.408  0.1149  0.3873 -0.2523
12638TIP3   OH259328   1.679   2.695   0.050 -0.2735  0.1232 -0.6407
12638TIP3    H159329   1.771   2.716   0.063 -0.8990  1.9691  1.4965
12638TIP3    H259330   1.675   2.599   0.051  1.5648  0.0148 -0.4687
12639TIP3   OH259331   2.298   4.243   3.250 -0.1148 -0.4621 -0.2472
12639TIP3    H159332   2.238   4.251   3.323 -1.2121 -0.9295 -1.0696
12639TIP3    H259333   2.246   4.265   3.173  1.3049  1.2009 -0.8139
12640TIP3   OH259334   0.427   2.635   3.172 -0.5923 -0.4595 -0.4193
12640TIP3    H159335   0.379   2.715   3.196  0.6077  0.4243 -0.8603
12640TIP3    H259336   0.469   2.607   3.253 -0.0027  0.0808 -0.5321
12641TIP3   OH259337   3.692   0.988   0.777 -0.2166 -0.4303  0.6220
12641TIP3    H159338   3.743   0.988   0.696 -0.4886 -0.9394  0.4532
12641TIP3    H259339   3.627   1.057   0.764  0.4332  0.2455  0.8492
12642TIP3   OH259340   0.043   1.787   4.651 -0.2905 -0.5657  0.1403
12642TIP3    H159341  -0.037   1.734   4.650 -0.4039 -0.4017  0.2979
12642TIP3    H259342   0.085   1.764   4.734 -1.0221  0.5780  0.8550
12643TIP3   OH259343   3.067   2.646   5.557  0.5787 -0.3019  0.1094
12643TIP3    H159344   3.158   2.674   5.551  0.4543 -0.1231 -1.0862
12643TIP3    H259345   3.062   2.599   5.641  1.5247  0.5423  0.6592
12644TIP3   OH259346   1.446   1.942  12.350 -0.0207 -0.4770 -0.2394
12644TIP3    H159347   1.470   1.862  12.302 -0.8804 -0.3487 -0.8959
12644TIP3    H259348   1.404   1.910  12.430  1.5479 -0.6938  0.5470
12645TIP3   OH259349   5.539   5.152  15.048 -0.1952  0.0470  0.5545
12645TIP3    H159350   5.632   5.148  15.025  0.3372  1.6537  2.1331
12645TIP3    H259351   5.500   5.204  14.978  0.3822  0.5601  0.6028
12646TIP3   OH259352   1.981   4.606  12.913 -0.0649 -0.0998 -0.3007
12646TIP3    H159353   2.032   4.653  12.846 -0.0919  2.3215  1.2563
12646TIP3    H259354   1.924   4.673  12.950  0.3443 -1.1937  2.5142
12647TIP3   OH259355   1.838   5.945   5.812  0.0304  0.1116 -0.2393
12647TIP3    H159356   1.885   5.978   5.889  0.5419 -1.1721  0.0180
12647TIP3    H259357   1.748   5.936   5.841  0.1717 -0.1196  0.1337
12648TIP3   OH259358   2.458   6.353  10.999 -0.3512 -0.0956 -0.0506
12648TIP3    H159359   2.370   6.360  10.962 -1.0177 -0.3424  1.4170
12648TIP3    H259360   2.493   6.442  10.996 -1.5762  0.4814  1.4888
12649TIP3   OH259361   1.425   3.360  14.880  0.0948  1.1187 -0.0076
12649TIP3    H159362   1.475   3.280  14.867  1.7070  1.8880  1.0889
12649TIP3    H259363   1.468   3.424  14.823  0.1078  1.6859  0.6272
12650TIP3   OH259364   0.156   0.517  16.792 -0.1616  0.4294 -0.7459
12650TIP3    H159365   0.251   0.499  16.797 -0.3567 -0.3483  1.8184
12650TIP3    H259366   0.117   0.430  16.781 -0.6861  0.0994  2.5715
12651TIP3   OH259367   0.966   4.062   4.402  0.0232  0.5294 -0.6604
12651TIP3    H159368   0.906   4.106   4.341 -1.0239 -0.2310 -0.2172
12651TIP3    H259369   0.909   4.006   4.455  0.8533  1.4047  1.2506
12652TIP3   OH259370   4.084   4.386   4.676  0.1211 -0.3056 -0.0485
12652TIP3    H159371   4.033   4.324   4.623 -2.0100  0.0057  1.5043
12652TIP3    H259372   4.027   4.462   4.686  0.3551 -0.3872  2.7080
12653TIP3   OH259373   4.557   1.205  16.357 -0.0500  0.1315  0.4039
12653TIP3    H159374   4.581   1.183  16.267 -2.2716 -1.1216  0.0420
12653TIP3    H259375   4.630   1.172  16.410  1.6277  1.5116 -0.9129
12654TIP3   OH259376   4.188   5.744  14.988  1.0060  0.3776  0.3914
12654TIP3    H159377   4.212   5.661  15.030  2.6074  0.0308 -1.1316
12654TIP3    H259378   4.245   5.809  15.028  0.3336  0.6320  0.9728
12655TIP3   OH259379   4.782   0.616   2.855  0.6121 -0.7634 -0.2927
12655TIP3    H159380   4.739   0.545   2.808 -1.9599  1.0243 -0.8418
12655TIP3    H259381   4.748   0.610   2.944 -1.3322  0.9629 -0.8501
12656TIP3   OH259382   4.273   6.128  16.675  1.1839  0.0096 -0.3611
12656TIP3    H159383   4.342   6.093  16.619  1.4103 -1.1385  0.5781
12656TIP3    H259384   4.282   6.077  16.757 -2.2925 -1.9249 -1.0048
12657TIP3   OH259385   1.538   2.914  12.125 -0.1512 -0.4064 -0.5609
12657TIP3    H159386   1.593   2.980  12.167  0.8293 -1.8950  0.5824
12657TIP3    H259387   1.529   2.944  12.035  1.6536  0.4516 -0.4936
12658TIP3   OH259388   1.251   4.597   4.548  0.2917 -0.2179 -0.3557
12658TIP3    H159389   1.236   4.691   4.558 -1.6283 -0.3377 -1.4875
12658TIP3    H259390   1.335   4.581   4.591  1.3106  2.2086 -1.2635
12659TIP3   OH259391   5.074   1.891  13.874  0.1815  0.1250  0.7528
12659TIP3    H159392   5.088   1.867  13.782 -0.7781  0.8848  0.3851
12659TIP3    H259393   5.048   1.809  13.916  1.5601 -0.4229  0.5666
12660TIP3   OH259394   3.670   6.125  16.366 -0.0273  0.1254  0.1206
12660TIP3    H159395   3.677   6.046  16.313  0.5540 -0.4538  1.0316
12660TIP3    H259396   3.642   6.094  16.452 -3.1879  1.2777 -0.3876
12661TIP3   OH259397   6.307   6.534   5.752  0.2693 -0.2723 -0.7018
12661TIP3    H159398   6.378   6.594   5.777  0.8532 -1.3420  0.2758
12661TIP3    H259399   6.276   6.569   5.668  0.5703  1.4042 -0.1644
12662TIP3   OH259400   3.927   4.409  16.269 -0.1876 -0.6599 -0.4486
12662TIP3    H159401   3.901   4.499  16.289  0.3815 -0.5551 -0.1623
12662TIP3    H259402   3.901   4.397  16.178 -0.9575 -0.4619 -0.2640
12663TIP3   OH259403   5.714   5.453   2.106 -0.0842  0.3049  0.1117
12663TIP3    H159404   5.792   5.506   2.119  0.4917 -0.2425 -0.9397
12663TIP3    H259405   5.653   5.510   2.059 -0.9768  1.2608  2.3023
12664TIP3   OH259406   4.869   1.905  14.153 -0.1437 -0.5125 -0.1130
12664TIP3    H159407   4.878   1.872  14.243  1.2650 -2.3323 -0.8503
12664TIP3    H259408   4.917   1.987  14.153 -0.9270 -0.0282  1.0011
12665TIP3   OH259409   2.096   0.344  13.505  0.3873 -0.2424  0.2244
12665TIP3    H159410   2.163   0.278  13.527  1.4592  1.3359  1.9860
12665TIP3    H259411   2.014   0.305  13.534  0.8836 -1.1509  0.4455
12666TIP3   OH259412   3.501   0.369   6.328  0.0601  0.5124 -0.0638
12666TIP3    H159413   3.435   0.371   6.260 -0.5771  1.9604  0.5615
12666TIP3    H259414   3.517   0.275   6.344 -1.3277  0.1528 -0.6959
12667TIP3   OH259415   5.228   1.000   5.727  0.0450  0.2178 -0.2821
12667TIP3    H159416   5.288   0.926   5.727 -0.0776  0.1013  1.0017
12667TIP3    H259417   5.142   0.961   5.709  0.4006  0.4881 -3.0287
12668TIP3   OH259418   4.918   0.386  15.508  0.0401 -0.1366 -0.1371
12668TIP3    H159419   4.958   0.300  15.502  0.0652 -0.2073  0.8677
12668TIP3    H259420   4.988   0.444  15.538  0.0817  0.2849 -1.0193
12669TIP3   OH259421   5.963   5.415   5.009  0.1124 -0.4646 -0.4737
12669TIP3    H159422   5.924   5.492   5.051  0.4084  0.0018 -1.0447
12669TIP3    H259423   5.887   5.364   4.979 -0.0862 -0.1129 -0.5887
12670TIP3   OH259424   0.368   5.050   4.355 -0.2664 -0.1048  0.0357
12670TIP3    H159425   0.335   5.140   4.358 -0.0245 -0.0040 -0.2560
12670TIP3    H259426   0.289   4.996   4.348 -0.4154  0.0798  0.3092
12671TIP3   OH259427   1.297   5.213   6.160  0.3079 -0.2108 -0.1856
12671TIP3    H159428   1.386   5.236   6.133  0.2996  1.3412  0.9537
12671TIP3    H259429   1.309   5.143   6.224  0.6683 -0.4398 -0.5022
12672TIP3   OH259430   0.763   0.521   4.121 -0.1900 -0.2956 -0.1825
12672TIP3    H159431   0.676   0.537   4.156 -0.2736  1.9852 -1.2246
12672TIP3    H259432   0.814   0.598   4.145  1.8887 -1.9803  1.2266
12673TIP3   OH259433   2.853   4.155   2.003  0.2179 -0.4871 -0.0257
12673TIP3    H159434   2.799   4.234   1.989 -3.8188 -2.9393  0.0609
12673TIP3    H259435   2.892   4.168   2.089 -3.3305  0.0542  1.6964
12674TIP3   OH259436   0.733   1.940   4.575 -0.3302  0.3286 -0.0535
12674TIP3    H159437   0.703   1.856   4.611  3.0626 -0.2704  1.8140
12674TIP3    H259438   0.718   2.003   4.645 -3.2668  1.5423 -1.6028
12675TIP3   OH259439   1.644   5.565   4.410 -0.0790  0.7289  0.5553
12675TIP3    H159440   1.725   5.558   4.461 -1.2380 -0.0300  2.3672
12675TIP3    H259441   1.653   5.496   4.343 -0.3610 -1.2695  2.4698
12676TIP3   OH259442   6.695   6.379  16.178 -0.3177 -0.3863 -0.4182
12676TIP3    H159443   6.634   6.324  16.129 -1.6148  0.9460 -0.3887
12676TIP3    H259444   6.693   6.343  16.267 -1.6890  0.0768 -0.2303
12677TIP3   OH259445   4.889   3.989   0.425 -0.3904  1.1828  0.3344
12677TIP3    H159446   4.871   3.962   0.335 -2.4003  0.4776  0.8997
12677TIP3    H259447   4.968   3.940   0.449 -1.1598 -0.4690 -0.3002
12678TIP3   OH259448   2.584   5.736  16.230  0.3870 -0.1850 -0.0027
12678TIP3    H159449   2.587   5.642  16.217  2.6903 -0.4499  1.7249
12678TIP3    H259450   2.531   5.748  16.309  1.4166 -0.2426  0.7317
12679TIP3   OH259451   1.212   5.488  14.883 -0.1963 -0.1596  0.2662
12679TIP3    H159452   1.268   5.547  14.933 -0.5330 -0.9657  1.6496
12679TIP3    H259453   1.162   5.440  14.949  0.0159 -1.9433 -0.7861
12680TIP3   OH259454   4.956   0.489  15.799 -0.2532  0.1725  0.2454
12680TIP3    H159455   5.003   0.417  15.841  0.2999 -0.3375 -1.1862
12680TIP3    H259456   4.933   0.548  15.871  1.2313 -0.3322  1.1760
12681TIP3   OH259457   6.206   0.003  16.330  0.2982  0.1069  0.4533
12681TIP3    H159458   6.142   0.072  16.345 -0.3937 -0.6548  1.1180
12681TIP3    H259459   6.206  -0.010  16.235 -0.3321  0.2989  0.4275
12682TIP3   OH259460   4.694   0.762  13.583  0.6410  0.6449 -0.1150
12682TIP3    H159461   4.712   0.839  13.637 -0.8510  1.0800 -0.1941
12682TIP3    H259462   4.600   0.766  13.565  0.9338  0.0752 -2.0711
12683TIP3   OH259463   5.983   4.766  14.493 -0.2366  0.0473  0.4618
12683TIP3    H159464   6.052   4.715  14.535 -0.9460 -0.4669  1.0082
12683TIP3    H259465   6.015   4.780  14.404  0.5655 -0.1922  0.7011
12684TIP3   OH259466   2.597   2.478  15.204  0.5085 -0.3505 -0.1096
12684TIP3    H159467   2.690   2.500  15.203  0.0538  1.9991 -2.3362
12684TIP3    H259468   2.570   2.491  15.295  2.1551 -0.0575  0.3596
12685TIP3   OH259469   2.558   4.547  16.889  0.5080 -0.5564 -0.4406
12685TIP3    H159470   2.552   4.453  16.875  1.5676 -0.6266 -0.4951
12685TIP3    H259471   2.636   4.574  16.840  1.9991 -0.1481  1.9974
12686TIP3   OH259472   1.179   5.547   3.754 -0.4791 -0.4621 -0.0554
12686TIP3    H159473   1.216   5.494   3.825  2.3422 -0.0451 -1.0885
12686TIP3    H259474   1.140   5.623   3.798 -0.0157 -0.8789  1.1179
12687TIP3   OH259475   5.694   2.494   0.264  0.3751 -0.1550 -0.5107
12687TIP3    H159476   5.730   2.409   0.288 -1.1463 -1.0549 -1.2535
12687TIP3    H259477   5.724   2.554   0.333  1.4226 -1.2916  0.0450
12688TIP3   OH259478   1.611   0.735  14.832 -0.5584 -0.1335  0.1119
12688TIP3    H159479   1.546   0.664  14.828 -0.3225 -0.4048  0.8962
12688TIP3    H259480   1.689   0.698  14.789 -0.0500 -0.7985  1.5287
12689TIP3   OH259481   3.009   0.675  15.649 -0.0842 -0.0691 -0.1909
12689TIP3    H159482   3.092   0.629  15.634  1.1948  1.7885  0.7615
12689TIP3    H259483   2.979   0.700  15.561  0.7321 -0.1766 -0.5077
12690TIP3   OH259484   3.026   6.148  16.536 -0.4184 -0.4160 -0.2095
12690TIP3    H159485   3.000   6.239  16.550 -0.9560 -0.6373  0.3058
12690TIP3    H259486   2.944   6.101  16.522 -0.2731 -1.0374  0.8836
12691TIP3   OH259487   1.853   2.437   2.937 -0.8346  0.0241  0.3660
12691TIP3    H159488   1.781   2.500   2.943 -0.6352  0.6232 -2.3931
12691TIP3    H259489   1.816   2.364   2.887  0.4435  0.3935 -1.2101
12692TIP3   OH259490   0.891   5.809   1.767  0.1816 -0.4501 -0.0650
12692TIP3    H159491   0.902   5.733   1.824  1.2402 -1.3112 -1.3460
12692TIP3    H259492   0.797   5.812   1.748  0.0847 -1.2312  0.2683
12693TIP3   OH259493   2.626   4.218  17.031  1.2034  0.6668  0.4072
12693TIP3    H159494   2.567   4.236  16.958 -0.8829  0.4185  1.9413
12693TIP3    H259495   2.671   4.137  17.006 -1.2283 -0.7628  0.3482
12694TIP3   OH259496   3.315   4.341  16.827 -0.4845 -0.0875  0.4526
12694TIP3    H159497   3.330   4.318  16.919 -1.1752 -0.7420  0.4129
12694TIP3    H259498   3.378   4.411  16.809 -0.0090 -0.2876  1.2841
12695TIP3   OH259499   1.104   4.848  16.390  0.6667  0.2148  0.1706
12695TIP3    H159500   1.030   4.904  16.412 -0.2653 -0.7990 -0.2681
12695TIP3    H259501   1.073   4.759  16.407  1.8575 -0.2199  0.1656
12696TIP3   OH259502   0.151   0.666  15.988 -0.4027 -0.2014 -0.1357
12696TIP3    H159503   0.173   0.759  15.987 -0.9071 -0.0550 -2.2682
12696TIP3    H259504   0.228   0.624  16.027 -0.1306  1.0807  0.7564
12697TIP3   OH259505   4.558   0.793   2.022 -0.1529  0.1806 -0.0946
12697TIP3    H159506   4.480   0.835   2.057 -1.1566  0.7631 -2.7855
12697TIP3    H259507   4.614   0.865   1.995 -0.5619 -0.1559 -1.9714
12698TIP3   OH259508   5.584   4.422   2.392 -0.3597  0.0596 -0.2360
12698TIP3    H159509   5.579   4.458   2.480 -2.3466  0.5879 -0.4935
12698TIP3    H259510   5.644   4.348   2.398 -1.5406 -0.8117  1.9081
12699TIP3   OH259511   0.384   3.626   3.287 -0.7394 -0.2065 -0.1706
12699TIP3    H159512   0.314   3.672   3.241 -1.1341 -0.5186  0.1138
12699TIP3    H259513   0.414   3.559   3.225 -2.1645 -1.5043  0.4820
12700TIP3   OH259514   6.367   3.704   4.254  0.2074 -0.2637 -0.2598
12700TIP3    H159515   6.411   3.638   4.201 -0.2944 -1.0650  0.3190
12700TIP3    H259516   6.329   3.656   4.328 -2.3303  0.2728 -1.1253
12701TIP3   OH259517   5.406   3.339   5.127 -0.1565 -0.1559  0.2963
12701TIP3    H159518   5.443   3.338   5.039  0.0322  0.9528  0.3473
12701TIP3    H259519   5.322   3.384   5.117 -0.1491 -0.0557  0.6769
12702TIP3   OH259520   3.351   1.683  15.404 -0.0567  0.0248 -0.0191
12702TIP3    H159521   3.353   1.596  15.365 -1.1962 -0.3807  0.7890
12702TIP3    H259522   3.407   1.736  15.347 -1.4062 -0.6073 -2.0390
12703TIP3   OH259523   2.542   1.091   1.867 -0.0662 -0.6521  0.3484
12703TIP3    H159524   2.616   1.053   1.915 -0.6291  1.9769  3.6634
12703TIP3    H259525   2.566   1.183   1.855 -0.7390 -0.8097 -3.1175
12704TIP3   OH259526   1.723   1.289  16.687 -0.2116  0.4754  0.4421
12704TIP3    H159527   1.740   1.256  16.775 -1.6239 -0.5245  0.3747
12704TIP3    H259528   1.635   1.326  16.692  0.1976  1.5893 -0.2474
12705TIP3   OH259529   1.315   5.964  12.928  0.2309  0.3577  0.3173
12705TIP3    H159530   1.265   6.010  12.996  1.7044  1.7923  0.4758
12705TIP3    H259531   1.257   5.964  12.852  0.4734  3.3436  0.0255
12706TIP3   OH259532   3.131   4.876  16.762  0.9190  0.2431 -0.3884
12706TIP3    H159533   3.099   4.940  16.826  0.7376  0.1299 -0.3665
12706TIP3    H259534   3.079   4.798  16.778  0.6046  0.3371 -0.9317
12707TIP3   OH259535   6.391   3.578   3.540  0.0712 -0.7164 -0.0032
12707TIP3    H159536   6.388   3.667   3.573  0.2634 -0.9817  0.7517
12707TIP3    H259537   6.459   3.535   3.592  2.1475 -0.5074 -2.3906
12708TIP3   OH259538   2.501   0.656   5.549  0.2322  0.2034  0.6224
12708TIP3    H159539   2.555   0.592   5.501  0.4309  0.7744  0.0803
12708TIP3    H259540   2.426   0.605   5.580  0.6716 -0.4226  0.6860
12709TIP3   OH259541   1.282   5.360  14.662  0.1728 -0.0080  0.3464
12709TIP3    H159542   1.278   5.411  14.743 -0.3385 -0.0415  0.3500
12709TIP3    H259543   1.221   5.404  14.603  1.1878  0.5171 -0.3238
12710TIP3   OH259544   4.355   3.672   0.472 -0.3020  0.1946  0.1857
12710TIP3    H159545   4.429   3.704   0.421 -0.2758 -0.3578 -0.1314
12710TIP3    H259546   4.379   3.582   0.497 -1.5094 -0.5801 -1.2687
12711TIP3   OH259547   0.388   6.262   5.373  0.0578  0.4147  0.0036
12711TIP3    H159548   0.439   6.341   5.355 -1.1397  1.1060 -0.5281
12711TIP3    H259549   0.297   6.292   5.368 -0.5010 -1.3498 -2.1459
12712TIP3   OH259550   0.570   6.150  11.101  0.2793  0.2999  0.3065
12712TIP3    H159551   0.569   6.109  11.014 -1.3829  0.0042  0.4391
12712TIP3    H259552   0.490   6.203  11.104  0.9073  1.2494  1.2358
12713TIP3   OH259553   4.214   5.130   0.934 -0.8439  0.0230 -0.0978
12713TIP3    H159554   4.236   5.050   0.886 -1.1544  0.2836 -0.6907
12713TIP3    H259555   4.124   5.118   0.961 -1.2741  0.6331 -1.1808
12714TIP3   OH259556   4.525   2.642  15.791  0.1962 -0.3827 -0.2646
12714TIP3    H159557   4.581   2.717  15.770  1.3132 -0.5910  1.7395
12714TIP3    H259558   4.575   2.566  15.760  0.6737 -0.5155  0.8091
12715TIP3   OH259559   1.146   4.080   0.676 -0.6324  0.1832 -0.5031
12715TIP3    H159560   1.060   4.037   0.674 -1.1890  1.1144 -4.2716
12715TIP3    H259561   1.171   4.079   0.769 -4.3264 -0.8118  0.6721
12716TIP3   OH259562   0.716   0.287  13.747  0.1518  0.9725  0.7332
12716TIP3    H159563   0.762   0.211  13.714  0.9707  1.2688  1.1685
12716TIP3    H259564   0.738   0.357  13.686 -0.6359  0.8636  0.3064
12717TIP3   OH259565   5.627   1.687  15.345  0.2196  0.3829  0.2808
12717TIP3    H159566   5.626   1.592  15.349 -0.5417  0.3241 -1.0308
12717TIP3    H259567   5.707   1.709  15.298  1.3151  0.5024  2.0735
12718TIP3   OH259568   5.802   3.406   2.654  0.6406 -0.1257  0.1647
12718TIP3    H159569   5.755   3.327   2.627  1.5302 -0.2471 -1.1351
12718TIP3    H259570   5.768   3.475   2.598  1.1940  0.0206  0.0057
12719TIP3   OH259571   6.298   0.600   3.466  0.1795  0.1019  0.1598
12719TIP3    H159572   6.308   0.522   3.520 -1.0850  1.6128  2.7725
12719TIP3    H259573   6.256   0.569   3.386 -0.7148 -1.8262  1.3070
12720TIP3   OH259574   1.436   0.189  14.108 -0.2709 -0.0724 -0.1535
12720TIP3    H159575   1.410   0.103  14.078  0.9415 -0.6669  0.4221
12720TIP3    H259576   1.393   0.199  14.194  0.6534 -0.6728  0.3876
12721TIP3   OH259577   4.689   4.845  12.519 -0.8155 -0.1430  0.3644
12721TIP3    H159578   4.673   4.779  12.452  0.0999 -1.1948  1.1514
12721TIP3    H259579   4.708   4.925  12.470 -3.1293 -0.0970 -0.6043
12722TIP3   OH259580   6.365   4.678  14.595  0.6619  0.5359 -0.3617
12722TIP3    H159581   6.456   4.654  14.583  0.7331  0.2310  0.7076
12722TIP3    H259582   6.337   4.629  14.673  0.0599  1.8720  0.2964
12723TIP3   OH259583   5.123   5.062  10.760 -0.0638 -0.1203  0.4301
12723TIP3    H159584   5.215   5.088  10.756  0.2351 -1.1958  0.0377
12723TIP3    H259585   5.076   5.133  10.717  0.5868  0.3941  0.5511
12724TIP3   OH259586   2.324   4.635  15.513  0.0451 -0.4034  0.6027
12724TIP3    H159587   2.267   4.558  15.510  0.6022 -0.7835 -1.2974
12724TIP3    H259588   2.405   4.606  15.470  0.6106  0.9692  0.7149
12725TIP3   OH259589   6.389   6.186   4.315 -0.1658  0.0972 -0.4924
12725TIP3    H159590   6.340   6.123   4.368  0.1899 -0.4806 -0.8348
12725TIP3    H259591   6.477   6.148   4.307 -0.5335 -0.4647 -2.4998
12726TIP3   OH259592   0.963   0.941  12.189  0.4239 -0.3498 -0.6014
12726TIP3    H159593   1.026   0.984  12.248  0.6551 -0.3456 -0.8498
12726TIP3    H259594   0.984   0.977  12.103  0.5829 -0.9220 -0.8041
12727TIP3   OH259595   0.409   1.889  16.207  0.5804 -0.2234 -0.4020
12727TIP3    H159596   0.394   1.883  16.302  1.5337 -1.0231 -0.2943
12727TIP3    H259597   0.367   1.811  16.171 -0.7195  0.6155 -0.7864
12728TIP3   OH259598   1.721   4.132   6.264  0.0381  0.6167 -0.4874
12728TIP3    H159599   1.767   4.178   6.333  0.5483  0.9617 -1.0437
12728TIP3    H259600   1.629   4.131   6.292  0.0696  1.7178 -0.3300
12729TIP3   OH259601   4.029   0.686   3.906  0.9709  0.1713  0.0835
12729TIP3    H159602   4.071   0.684   3.820 -0.2413  1.2966 -0.5749
12729TIP3    H259603   4.019   0.594   3.930 -0.8753 -0.2870 -2.1218
12730TIP3   OH259604   0.056   0.687  14.158  0.1422  0.3569  0.3275
12730TIP3    H159605   0.070   0.652  14.070 -0.5689 -1.2776  0.8252
12730TIP3    H259606   0.137   0.667  14.205 -0.2204 -0.5846  0.5790
12731TIP3   OH259607   3.793   1.243   5.756  0.2079 -0.4195  0.1512
12731TIP3    H159608   3.819   1.155   5.730 -2.0555 -1.3901  0.9958
12731TIP3    H259609   3.793   1.242   5.851  0.1621  0.5224  0.1781
12732TIP3   OH259610   5.303   0.070  16.740  0.5664  0.3324  0.1862
12732TIP3    H159611   5.379   0.019  16.711  0.7476  0.4995  0.3628
12732TIP3    H259612   5.292   0.045  16.832  0.6275  0.5737  0.2590
12733TIP3   OH259613   1.214   2.195  12.582 -0.0900  0.2820  0.2790
12733TIP3    H159614   1.123   2.224  12.588 -0.2871  0.2285 -1.7896
12733TIP3    H259615   1.208   2.104  12.552  0.6367 -0.4174  2.0932
12734TIP3   OH259616   0.887   4.800   2.325 -0.2810 -0.2463  0.2498
12734TIP3    H159617   0.799   4.767   2.305  0.3681 -2.1580  0.3579
12734TIP3    H259618   0.937   4.783   2.245  0.2808 -0.2938  0.6060
12735TIP3   OH259619   1.311   2.247  11.740 -0.4040  0.2074 -0.1638
12735TIP3    H159620   1.405   2.236  11.725 -0.3006  1.5808 -0.5858
12735TIP3    H259621   1.302   2.248  11.835  0.1802  1.3637 -0.1116
12736TIP3   OH259622   4.035   6.715  15.139  0.1330 -0.2451 -0.5473
12736TIP3    H159623   3.999   6.797  15.171 -2.3964 -1.3517 -0.3456
12736TIP3    H259624   4.130   6.729  15.139 -0.1139  2.0110  1.2415
12737TIP3   OH259625   6.621   3.337   3.107 -0.3585 -0.2509  0.3596
12737TIP3    H159626   6.707   3.377   3.118 -1.2985  1.9574  0.1832
12737TIP3    H259627   6.568   3.372   3.179 -1.2354 -1.2446  0.2356
12738TIP3   OH259628   3.229   4.865  14.121 -0.0782  0.0584 -0.4560
12738TIP3    H159629   3.319   4.897  14.113 -0.0731 -0.0061 -0.6552
12738TIP3    H259630   3.220   4.844  14.214  0.6288 -1.4376 -0.6880
12739TIP3   OH259631   5.317   4.816  14.261  0.4399 -0.3621 -0.2683
12739TIP3    H159632   5.222   4.814  14.246  0.4957 -0.4306 -0.6185
12739TIP3    H259633   5.351   4.875  14.193  0.6843 -0.5916 -0.3486
12740TIP3   OH259634   3.110   0.272  16.510  0.0224 -0.3272  0.6511
12740TIP3    H159635   3.191   0.270  16.459 -0.4530 -3.1505 -0.1451
12740TIP3    H259636   3.053   0.331  16.463  0.6143 -0.6229 -0.4635
12741TIP3   OH259637   5.449   1.056   1.764 -0.4012 -0.2251 -0.7494
12741TIP3    H159638   5.385   1.035   1.832 -0.7428  1.0899 -0.6275
12741TIP3    H259639   5.442   0.984   1.701  0.0296 -1.5389  0.6646
12742TIP3   OH259640   1.661   0.789   1.810 -0.1977  0.0569  0.3955
12742TIP3    H159641   1.702   0.736   1.741  0.7336 -2.2172  2.5566
12742TIP3    H259642   1.733   0.816   1.866 -1.1368  0.1887  1.5669
12743TIP3   OH259643   2.557   2.628   1.953 -0.3186  0.4149  0.3699
12743TIP3    H159644   2.602   2.557   2.000  0.2835  1.5679  1.5879
12743TIP3    H259645   2.469   2.630   1.989 -0.4021  0.1665  0.1847
12744TIP3   OH259646   5.913   0.203  11.806  0.2747  0.2272  0.0798
12744TIP3    H159647   5.820   0.202  11.828  0.0602 -1.6409 -0.6614
12744TIP3    H259648   5.952   0.141  11.868  0.8283  0.2111 -0.2805
12745TIP3   OH259649   6.643   0.477   3.293  0.4455 -0.0772 -0.3290
12745TIP3    H159650   6.732   0.460   3.326  0.7266 -1.6300 -1.7220
12745TIP3    H259651   6.586   0.445   3.363  0.8882  2.3019  1.2467
12746TIP3   OH259652   2.807   4.963  14.201  0.2673 -0.5790 -0.3813
12746TIP3    H159653   2.772   4.894  14.145  0.8549 -0.8965 -0.3640
12746TIP3    H259654   2.829   4.919  14.283 -0.5806 -0.1188  0.1175
12747TIP3   OH259655   6.089   6.436   0.592  0.0304 -0.2843  0.6657
12747TIP3    H159656   6.158   6.444   0.658  0.9543  1.5235 -0.4489
12747TIP3    H259657   6.103   6.510   0.533 -0.7627 -1.8013 -1.5619
12748TIP3   OH259658   0.502   3.831  16.178  0.2851  0.1088 -0.3608
12748TIP3    H159659   0.524   3.924  16.170 -1.4451  0.5237 -0.6751
12748TIP3    H259660   0.508   3.814  16.272  1.6292  0.2538 -0.4032
12749TIP3   OH259661   5.138   0.319   3.931  0.0392  0.7888  0.2774
12749TIP3    H159662   5.134   0.409   3.962  0.0496  0.5833  0.8897
12749TIP3    H259663   5.083   0.270   3.992 -2.3624  0.8157 -1.6703
12750TIP3   OH259664   0.564   5.993   6.626  0.0581 -0.6044  0.3029
12750TIP3    H159665   0.601   5.922   6.678  0.7090 -2.1157 -2.0488
12750TIP3    H259666   0.636   6.056   6.617 -0.0913 -0.2878  1.2686
12751TIP3   OH259667   2.373   2.274   6.522  0.2595 -0.0970  0.5067
12751TIP3    H159668   2.347   2.205   6.582 -0.1639 -1.2471 -0.9293
12751TIP3    H259669   2.303   2.276   6.456  0.5765  1.2883  0.1732
12752TIP3   OH259670   2.513   3.206  13.427 -0.7119 -0.3761 -0.1143
12752TIP3    H159671   2.430   3.251  13.445 -1.2527 -1.2240 -0.4685
12752TIP3    H259672   2.528   3.220  13.334 -0.8289 -0.8430 -0.2029
12753TIP3   OH259673   2.596   1.154  12.952  0.6397 -0.4126 -0.2936
12753TIP3    H159674   2.641   1.208  12.887  0.2223  1.1330  0.6515
12753TIP3    H259675   2.667   1.119  13.006  0.8515  0.5121  0.0559
12754TIP3   OH259676   2.488   4.757  16.042 -0.4797  0.1833 -0.4177
12754TIP3    H159677   2.449   4.844  16.048 -0.4792  0.1693 -0.1890
12754TIP3    H259678   2.440   4.714  15.971  1.1017  1.1676 -2.1548
12755TIP3   OH259679   2.035   3.550   4.006  0.2834  0.4414 -0.5097
12755TIP3    H159680   2.026   3.525   4.097  1.7483  0.5755 -0.3034
12755TIP3    H259681   2.062   3.470   3.961  0.4356  0.5775 -0.6635
12756TIP3   OH259682   2.252   5.077  11.573 -0.2497 -0.3452  0.0353
12756TIP3    H159683   2.234   5.112  11.485 -1.2070  2.8646  1.3477
12756TIP3    H259684   2.347   5.064  11.575 -0.0247  0.8853 -1.0625
12757TIP3   OH259685   1.120   0.290  12.331 -0.4494  0.5899 -0.6132
12757TIP3    H159686   1.184   0.220  12.328 -0.5093  0.5081 -0.0425
12757TIP3    H259687   1.056   0.262  12.396 -0.5365  1.1222 -0.4623
12758TIP3   OH259688   6.490   0.154   4.438 -0.1756  0.2092 -0.5142
12758TIP3    H159689   6.561   0.094   4.414  0.8775  1.5318 -0.8233
12758TIP3    H259690   6.511   0.236   4.392 -2.6465  0.2491 -1.7578
12759TIP3   OH259691   0.976   2.646  13.960  0.9039  0.6366 -0.0498
12759TIP3    H159692   1.032   2.570  13.977  2.0012  1.2044 -0.9963
12759TIP3    H259693   1.031   2.706  13.910  0.2897  2.3727  1.2673
12760TIP3   OH259694   3.358   5.484  16.024 -0.3268 -0.1563 -0.6079
12760TIP3    H159695   3.431   5.427  16.049 -1.1588 -0.4747  1.2744
12760TIP3    H259696   3.289   5.464  16.087 -1.0687  2.1119 -0.6086
12761TIP3   OH259697   4.158   5.409   3.025 -0.1248 -0.1191 -0.3378
12761TIP3    H159698   4.212   5.377   3.097 -1.4325  1.4254  1.4063
12761TIP3    H259699   4.103   5.334   3.001  1.2341 -1.0462 -0.6971
12762TIP3   OH259700   0.500   5.973   5.598  0.2232  0.2829 -0.1020
12762TIP3    H159701   0.556   5.921   5.655 -0.3720 -0.1620  0.0931
12762TIP3    H259702   0.475   6.049   5.651 -0.7994 -0.4200  0.4592
12763TIP3   OH259703   5.875   3.504   4.015 -0.0696  0.2138 -0.4985
12763TIP3    H159704   5.815   3.575   4.038 -0.4984  0.1635 -1.3998
12763TIP3    H259705   5.939   3.503   4.085 -0.4649  1.0350 -0.1096
12764TIP3   OH259706   1.464   4.739  15.751 -0.4640  0.2048 -0.1881
12764TIP3    H159707   1.524   4.725  15.677  0.1529  1.1932  0.1079
12764TIP3    H259708   1.485   4.827  15.783 -0.1656 -0.5138  1.6873
12765TIP3   OH259709   0.804   5.087   0.290 -0.2737 -0.2804  0.1631
12765TIP3    H159710   0.893   5.119   0.275  0.5487 -3.0145 -1.5179
12765TIP3    H259711   0.772   5.138   0.364  2.7475  0.6502  0.9538
12766TIP3   OH259712   2.585   4.440  13.702  0.0194 -1.0913  0.0794
12766TIP3    H159713   2.542   4.386  13.768  0.8996 -0.5620  1.1217
12766TIP3    H259714   2.678   4.424  13.715  0.2875  0.4464  0.2277
12767TIP3   OH259715   5.793   4.750  14.216  0.1349 -0.5624 -0.0226
12767TIP3    H159716   5.839   4.666  14.217 -1.6319 -1.6054 -1.0577
12767TIP3    H259717   5.710   4.733  14.261 -0.0077  0.8060  0.2876
12768TIP3   OH259718   6.355   0.881   2.639 -0.1459 -0.5899  0.7026
12768TIP3    H159719   6.322   0.793   2.659 -0.4569 -1.1031 -1.6738
12768TIP3    H259720   6.442   0.865   2.601 -0.1950  0.1272  0.2745
12769TIP3   OH259721   1.158   1.564  15.361  0.3759 -0.0483 -0.1246
12769TIP3    H159722   1.064   1.582  15.370  0.3706 -0.5142  0.9234
12769TIP3    H259723   1.200   1.636  15.408  0.6195  0.9253 -1.7622
12770TIP3   OH259724   3.603   3.612   6.762 -0.4483  0.3270 -0.0540
12770TIP3    H159725   3.596   3.568   6.678  2.2038 -0.7127  0.1698
12770TIP3    H259726   3.532   3.575   6.815 -0.1763 -1.4154 -0.8533
12771TIP3   OH259727   5.420   4.216  11.104  0.1454  0.2951  0.2837
12771TIP3    H159728   5.399   4.308  11.092  0.0541  0.4673  1.6017
12771TIP3    H259729   5.404   4.176  11.019  0.5791  1.5628 -0.4235
12772TIP3   OH259730   2.497   0.396  16.201  0.5862 -0.7186  0.2107
12772TIP3    H159731   2.475   0.341  16.276  1.8398  0.9616  1.9179
12772TIP3    H259732   2.479   0.486  16.231 -1.9128 -0.1188 -2.6264
12773TIP3   OH259733   1.081   5.057   6.047 -0.1196  0.0021  0.1926
12773TIP3    H159734   1.117   5.130   6.097 -1.4994 -0.1921  1.5563
12773TIP3    H259735   0.996   5.088   6.016 -0.5362 -0.8757  0.4139
12774TIP3   OH259736   1.222   2.593  14.335 -0.0444  0.0694  0.2869
12774TIP3    H159737   1.181   2.511  14.309 -0.6999  0.1317  1.1107
12774TIP3    H259738   1.300   2.567  14.383 -0.6375 -0.0907  1.1812
12775TIP3   OH259739   6.746   3.730  15.123  0.2230 -0.0082  0.5476
12775TIP3    H159740   6.778   3.802  15.068 -1.0272 -0.7532 -1.2438
12775TIP3    H259741   6.823   3.674  15.136  0.4802  0.0287 -0.7315
12776TIP3   OH259742   3.311   2.672  13.662 -0.1812  0.0605 -0.1056
12776TIP3    H159743   3.299   2.759  13.623 -0.2690 -0.2227 -0.7093
12776TIP3    H259744   3.230   2.657  13.711 -1.2502 -0.7120 -2.0067
12777TIP3   OH259745   1.357   4.893   1.520  0.3430  0.6642  0.3649
12777TIP3    H159746   1.334   4.825   1.584 -1.3282  0.2977 -0.5934
12777TIP3    H259747   1.286   4.957   1.526 -0.1395  0.3454 -1.4880
12778TIP3   OH259748   3.225   3.467   6.094 -0.0782 -0.0128 -0.1595
12778TIP3    H159749   3.222   3.473   6.190  0.8017 -0.3954 -0.0936
12778TIP3    H259750   3.216   3.557   6.064  2.1710  0.4643  0.3918
12779TIP3   OH259751   1.550   1.899   1.762  0.0583 -0.1160  0.2435
12779TIP3    H159752   1.558   1.959   1.688  0.4497  0.2480  0.5758
12779TIP3    H259753   1.586   1.947   1.836  1.9147 -1.3320  0.2037
12780TIP3   OH259754   4.387   5.668   3.058 -0.2479  0.2254  0.0168
12780TIP3    H159755   4.328   5.593   3.051  0.4499 -0.2201 -1.5554
12780TIP3    H259756   4.455   5.641   3.119  0.1911 -0.5608 -0.8130
12781TIP3   OH259757   5.579   2.409  12.147 -0.3895  0.3795  0.3541
12781TIP3    H159758   5.664   2.432  12.184  0.2771 -0.5238 -0.5549
12781TIP3    H259759   5.551   2.488  12.101  0.4042  0.3845 -0.1344
12782TIP3   OH259760   4.972   5.006  14.442  0.1350  0.5962  0.2899
12782TIP3    H159761   5.015   5.008  14.356  1.1199  0.0905  0.7581
12782TIP3    H259762   5.044   4.991  14.504 -0.3610  2.3125  1.3400
12783TIP3   OH259763   0.530   6.647  13.348 -0.0270 -0.4110 -0.3417
12783TIP3    H159764   0.574   6.613  13.426  1.5310  0.5523 -0.7465
12783TIP3    H259765   0.451   6.689  13.381  0.2148 -0.7025  0.6362
12784TIP3   OH259766   1.500   3.418   0.694  0.4708 -0.0281  0.0230
12784TIP3    H159767   1.577   3.379   0.653  1.0172 -1.2688  2.0571
12784TIP3    H259768   1.534   3.457   0.775 -0.8257  0.6857  0.2480
12785TIP3   OH259769   3.561   1.734  14.078  0.4686 -0.2903 -0.7070
12785TIP3    H159770   3.645   1.745  14.033  0.3264  0.3101 -0.8411
12785TIP3    H259771   3.533   1.646  14.054  0.4706 -0.0349 -1.6868
12786TIP3   OH259772   0.436   1.307   0.270  0.2482 -0.4291 -0.2635
12786TIP3    H159773   0.509   1.246   0.282  1.0756  0.3626 -1.1349
12786TIP3    H259774   0.468   1.370   0.206 -0.3331  1.3091  1.0801
12787TIP3   OH259775   2.451   1.494   2.541 -0.5559 -0.4826 -0.0009
12787TIP3    H159776   2.426   1.522   2.453  1.8413  0.5280 -0.4370
12787TIP3    H259777   2.409   1.409   2.551 -2.1738  0.0768 -1.4866
12788TIP3   OH259778   5.423   6.566   0.166  0.0056 -0.1199 -0.6033
12788TIP3    H159779   5.360   6.637   0.156  1.1034  1.3296  1.7055
12788TIP3    H259780   5.506   6.603   0.134  0.7914  0.0840  1.4865
12789TIP3   OH259781   4.059   0.853   0.815 -0.2645 -0.1547 -0.2674
12789TIP3    H159782   4.067   0.933   0.866  1.7254 -1.0953  1.0064
12789TIP3    H259783   3.984   0.807   0.855  1.7192 -1.2572  2.5611
12790TIP3   OH259784   0.445   3.847  11.929  0.3105  0.0233  1.0972
12790TIP3    H159785   0.433   3.811  12.017  1.5430 -1.3266  0.7570
12790TIP3    H259786   0.438   3.942  11.941 -1.1210 -0.1910  2.3585
12791TIP3   OH259787   6.062   5.632   4.470  0.3747 -0.0804  0.1489
12791TIP3    H159788   6.025   5.719   4.486  0.5823  0.0860 -0.2752
12791TIP3    H259789   6.126   5.620   4.540 -0.6515 -0.4778  1.0491
12792TIP3   OH259790   4.367   3.009  14.311  0.3852 -0.0633  0.3734
12792TIP3    H159791   4.300   3.028  14.377  2.3299  2.7339  1.7226
12792TIP3    H259792   4.394   3.095  14.279  1.8677 -1.2072 -1.6762
12793TIP3   OH259793   5.749   3.495  12.792 -0.0088 -0.4240 -0.0570
12793TIP3    H159794   5.718   3.441  12.864 -1.6356 -0.6825 -0.8971
12793TIP3    H259795   5.842   3.509  12.810 -0.4376 -0.1870  2.2447
12794TIP3   OH259796   2.899   2.934  13.052  0.0682  0.3549  0.1791
12794TIP3    H159797   2.959   2.922  13.125 -0.8070  1.8979  1.2250
12794TIP3    H259798   2.882   3.029  13.051 -1.2896  0.1302 -0.9054
12795TIP3   OH259799   5.348   3.535   4.137 -0.2286 -0.0967 -0.8078
12795TIP3    H159800   5.311   3.543   4.049 -1.7258 -0.0493 -0.1992
12795TIP3    H259801   5.392   3.619   4.152 -0.2860  0.0342 -1.3570
12796TIP3   OH259802   0.114   2.756  14.542  0.2834 -0.6943  0.3528
12796TIP3    H159803   0.098   2.809  14.620  1.0886  0.0959  0.0013
12796TIP3    H259804   0.084   2.669  14.566 -0.8925 -0.1406  1.0167
12797TIP3   OH259805   2.918   6.012   2.907  0.1384 -0.2941  0.1300
12797TIP3    H159806   2.907   5.961   2.827  1.5972 -0.6028  0.1000
12797TIP3    H259807   2.997   5.977   2.947 -0.9898 -0.7012  2.1582
12798TIP3   OH259808   3.370   3.558  13.556 -0.0410  0.2104 -0.3328
12798TIP3    H159809   3.432   3.506  13.607 -0.2143  0.3029 -0.0202
12798TIP3    H259810   3.310   3.594  13.622 -1.0532 -0.7111 -0.7229
12799TIP3   OH259811   5.867   4.778  15.398 -0.0248  0.1000 -0.2598
12799TIP3    H159812   5.913   4.834  15.336  1.0197 -1.7035 -1.1931
12799TIP3    H259813   5.840   4.703  15.346 -0.5685 -0.6965  1.1400
12800TIP3   OH259814   6.405   6.462  14.102  0.8175  0.2240 -0.0412
12800TIP3    H159815   6.455   6.381  14.094  0.0298 -0.2755  0.0329
12800TIP3    H259816   6.381   6.485  14.012 -0.6600 -0.7228  0.0732
12801TIP3   OH259817   2.882   0.975   1.391  0.0312 -0.0070 -0.4827
12801TIP3    H159818   2.827   0.927   1.329 -0.7074 -1.4108  1.1719
12801TIP3    H259819   2.879   1.065   1.360 -2.6427 -0.1413 -0.9012
12802TIP3   OH259820   3.649   0.080  16.973 -0.5012  0.3052  0.4062
12802TIP3    H159821   3.559   0.047  16.968 -1.2474  2.2176  0.5067
12802TIP3    H259822   3.641   0.174  16.960  1.3574  0.7101  1.8138
12803TIP3   OH259823   5.619   0.667  16.622  0.1074  0.0085 -0.2358
12803TIP3    H159824   5.573   0.748  16.647 -1.6703 -0.7878 -0.7898
12803TIP3    H259825   5.645   0.682  16.532 -1.5826 -0.5705 -0.8597
12804TIP3   OH259826   5.154   5.623  12.603 -0.4179  0.2360  0.1659
12804TIP3    H159827   5.170   5.616  12.697  1.9267 -2.2155 -0.2950
12804TIP3    H259828   5.216   5.690  12.573  2.2931 -2.1851 -0.1445
12805TIP3   OH259829   0.172   4.651   3.970 -0.3879 -0.0320 -0.3152
12805TIP3    H159830   0.152   4.558   3.974 -0.4200  0.0034  0.4352
12805TIP3    H259831   0.163   4.673   3.877  1.2742 -1.1326 -0.7894
12806TIP3   OH259832   6.730   4.259  17.229 -0.1991  0.3405  0.0217
12806TIP3    H159833   6.664   4.196  17.201  0.9379 -1.7740  1.7966
12806TIP3    H259834   6.705   4.282  17.318  0.3325  1.1310 -0.0252
12807TIP3   OH259835   1.837   0.151   3.814 -0.0875 -0.9850  0.0854
12807TIP3    H159836   1.749   0.126   3.787 -1.1135  2.3427 -0.0164
12807TIP3    H259837   1.833   0.154   3.910  0.0647 -1.2913  0.1022
12808TIP3   OH259838   4.416   5.087   4.201  0.0106  0.4870  0.1998
12808TIP3    H159839   4.449   5.072   4.289  0.5361 -0.9492 -0.2137
12808TIP3    H259840   4.343   5.026   4.192  3.1485 -3.4093 -2.0616
12809TIP3   OH259841   4.359   5.448  11.233 -0.7426  0.2487 -0.1160
12809TIP3    H159842   4.361   5.396  11.314  1.5677  0.3985 -0.0111
12809TIP3    H259843   4.430   5.412  11.180  0.3789  2.7106 -0.4175
12810TIP3   OH259844   0.683   2.509  17.195 -0.0275  0.0839  0.0372
12810TIP3    H159845   0.722   2.441  17.249  0.9822  1.6090  1.3438
12810TIP3    H259846   0.756   2.545  17.145 -0.4355  0.5271 -0.2555
12811TIP3   OH259847   0.850   4.478  12.967 -0.3571 -0.0958 -0.2384
12811TIP3    H159848   0.789   4.405  12.960 -1.3969  0.4232  2.2597
12811TIP3    H259849   0.876   4.497  12.877 -2.1546 -1.7802 -1.1749
12812TIP3   OH259850   5.848   6.355   0.654 -0.3652 -0.2136  0.0919
12812TIP3    H159851   5.926   6.364   0.599 -1.3424 -2.4315 -1.8728
12812TIP3    H259852   5.824   6.262   0.645 -1.2288 -0.4457  3.5064
12813TIP3   OH259853   3.942   6.143  10.731 -0.0053  0.2890 -0.1674
12813TIP3    H159854   3.976   6.186  10.653 -1.2363  0.5887 -0.5582
12813TIP3    H259855   3.884   6.208  10.770 -0.1604 -0.2190  0.4627
12814TIP3   OH259856   2.580   5.109  17.032 -0.0904 -0.2620  0.2604
12814TIP3    H159857   2.537   5.191  17.008  0.9101  0.5554  1.1214
12814TIP3    H259858   2.533   5.042  16.984 -0.3379  0.9110 -1.2286
12815TIP3   OH259859   0.889   2.849  14.471 -0.0894 -0.1584  0.1813
12815TIP3    H159860   0.925   2.823  14.556 -0.2227 -0.0718  0.2658
12815TIP3    H259861   0.848   2.934  14.488  2.2849  1.2536 -0.5657
12816TIP3   OH259862   1.334   0.625   2.698 -0.1167  0.1441  0.1509
12816TIP3    H159863   1.410   0.566   2.698 -0.4115 -0.2357  0.4062
12816TIP3    H259864   1.349   0.682   2.773 -1.4902 -1.7675  1.9766
12817TIP3   OH259865   1.099   1.878  13.124  0.4630 -0.3876  0.1435
12817TIP3    H159866   1.031   1.858  13.188  2.3680 -1.2266  2.0359
12817TIP3    H259867   1.116   1.971  13.136 -0.1175 -0.2365 -0.1428
12818TIP3   OH259868   5.006   0.306  11.009  0.0412  0.3128  0.1898
12818TIP3    H159869   4.923   0.268  11.040 -0.2854 -0.3157 -1.3769
12818TIP3    H259870   4.992   0.400  11.014 -0.5059  0.2153  0.6092
12819TIP3   OH259871   4.864   2.648   6.329  0.4840  0.1115 -0.2586
12819TIP3    H159872   4.816   2.731   6.323  1.1950  0.4674 -1.7327
12819TIP3    H259873   4.893   2.644   6.420 -2.2440 -0.1193  0.6972
12820TIP3   OH259874   4.240   5.892   2.190 -0.2557  0.2825  0.1864
12820TIP3    H159875   4.322   5.933   2.218  0.3717  0.8262 -2.2325
12820TIP3    H259876   4.180   5.909   2.262  1.4108  0.9155  1.5097
12821TIP3   OH259877   0.667   4.074  17.119  0.5273 -0.5598 -0.6211
12821TIP3    H159878   0.617   4.144  17.161 -0.9424 -0.5862 -2.1957
12821TIP3    H259879   0.627   3.994  17.151  1.8459 -0.7127  0.7458
12822TIP3   OH259880   2.564   1.548  13.768  0.6192  0.1265  0.6546
12822TIP3    H159881   2.616   1.601  13.708  2.3505 -0.9323  1.1281
12822TIP3    H259882   2.498   1.506  13.712  1.2035  0.3643 -0.2426
12823TIP3   OH259883   6.592   1.002  16.888 -0.2848  0.6853  0.3299
12823TIP3    H159884   6.616   1.094  16.895  0.2282  0.5650  0.1470
12823TIP3    H259885   6.624   0.974  16.803 -1.1362  0.5370  0.0427
12824TIP3   OH259886   4.064   6.308   3.750  0.3661  0.4234 -0.3461
12824TIP3    H159887   4.092   6.241   3.811  2.1163  0.7758 -0.7113
12824TIP3    H259888   4.045   6.261   3.669 -2.9806 -0.1887  0.6560
12825TIP3   OH259889   3.270   1.848   0.842 -0.1928  0.2734 -0.0796
12825TIP3    H159890   3.269   1.770   0.785 -0.3590 -0.5019  0.9468
12825TIP3    H259891   3.264   1.922   0.782 -0.9542 -0.5364 -1.0446
12826TIP3   OH259892   3.889   5.780   1.040  0.0814 -0.1899  0.1814
12826TIP3    H159893   3.980   5.810   1.043  0.5182 -1.3179 -0.7858
12826TIP3    H259894   3.875   5.753   0.949 -1.7076  1.3337 -0.0580
12827TIP3   OH259895   3.797   0.794   2.993  0.0228 -0.2620  0.3424
12827TIP3    H159896   3.763   0.883   2.983 -0.4772 -0.4434  0.3717
12827TIP3    H259897   3.718   0.740   3.005  0.2331 -0.8553 -0.7682
12828TIP3   OH259898   3.792   3.883   4.730 -0.4598 -0.0489 -0.3092
12828TIP3    H159899   3.801   3.922   4.643  0.3618 -0.1779 -0.2830
12828TIP3    H259900   3.872   3.832   4.742 -0.7904 -0.4281  0.3257
12829TIP3   OH259901   4.329   3.217   2.816 -0.0824 -0.3423 -0.6344
12829TIP3    H159902   4.312   3.198   2.908 -0.2946 -0.3016 -0.6641
12829TIP3    H259903   4.263   3.166   2.768  0.1502 -0.5155 -0.7736
12830TIP3   OH259904   2.161   3.867  13.872 -0.2458  0.4257 -0.0200
12830TIP3    H159905   2.201   3.846  13.787  2.9482 -0.1520  1.4549
12830TIP3    H259906   2.144   3.961  13.869  1.3677  0.7269 -0.7731
12831TIP3   OH259907   1.848   2.654   1.040  0.5564  0.6561 -0.0557
12831TIP3    H159908   1.811   2.588   0.981  1.8924  1.1165 -1.4894
12831TIP3    H259909   1.871   2.605   1.119  0.1157 -0.2892 -0.5000
12832TIP3   OH259910   3.266   3.530  16.778 -0.1935  0.2124  0.5664
12832TIP3    H159911   3.318   3.468  16.727 -3.4388 -0.4733 -2.2472
12832TIP3    H259912   3.211   3.475  16.833 -0.0281  0.8055  1.3357
12833TIP3   OH259913   1.879   6.632   5.589 -0.2747 -0.4031 -0.5792
12833TIP3    H159914   1.933   6.553   5.582  0.5373  0.0837  0.0798
12833TIP3    H259915   1.809   6.618   5.525  0.5857 -1.0808 -1.4045
12834TIP3   OH259916   0.623   1.403  16.450 -0.0475 -0.3022  0.5374
12834TIP3    H159917   0.624   1.308  16.437 -0.7574 -0.1047 -1.1654
12834TIP3    H259918   0.642   1.440  16.364 -1.7455  1.0969  0.6978
12835TIP3   OH259919   0.430   4.433   0.148 -0.4131 -0.7261 -0.2359
12835TIP3    H159920   0.517   4.474   0.149 -0.7817  0.1122 -1.0015
12835TIP3    H259921   0.419   4.397   0.237 -0.6305  2.0787  0.9776
12836TIP3   OH259922   3.493   5.738  16.020 -0.1238  0.1845 -0.1270
12836TIP3    H159923   3.446   5.760  15.940  0.6396 -0.2121 -0.6978
12836TIP3    H259924   3.462   5.650  16.042 -0.1785  0.2095 -0.1052
12837TIP3   OH259925   1.436   2.398   2.455  0.1321 -0.0091  0.6407
12837TIP3    H159926   1.433   2.374   2.548  0.2821  1.4858  1.0461
12837TIP3    H259927   1.408   2.489   2.452  2.5103  0.7720 -0.4921
12838TIP3   OH259928   6.023   3.839   4.521 -0.3489  0.0983  0.0216
12838TIP3    H159929   6.092   3.870   4.462 -1.2616 -0.3146 -1.3153
12838TIP3    H259930   5.982   3.767   4.473 -0.1731 -1.2474  1.8047
12839TIP3   OH259931   0.822   4.360  11.962 -0.0487  0.3009  0.1567
12839TIP3    H159932   0.746   4.396  11.915 -1.7628 -1.1900  1.6114
12839TIP3    H259933   0.858   4.294  11.903 -2.7754 -2.2628  1.0999
12840TIP3   OH259934   0.885   2.332   5.681  0.3316 -0.2719 -0.2069
12840TIP3    H159935   0.943   2.257   5.671 -0.8061 -1.0135 -1.6762
12840TIP3    H259936   0.846   2.344   5.594 -1.0201  0.7603  0.4988
12841TIP3   OH259937   2.176   5.318  17.067 -0.6296  0.2195 -0.0333
12841TIP3    H159938   2.162   5.231  17.030 -0.7275  1.0772 -2.1564
12841TIP3    H259939   2.091   5.343  17.104 -0.6692 -0.4557  0.3490
12842TIP3   OH259940   0.833   4.419  16.514 -0.3878 -0.2669 -0.5718
12842TIP3    H159941   0.845   4.333  16.554 -2.6861 -0.2748  0.2565
12842TIP3    H259942   0.807   4.476  16.586 -2.0337  0.3459 -1.5894
12843TIP3   OH259943   1.411   2.615   3.368 -0.1612  0.6540 -0.2713
12843TIP3    H159944   1.397   2.625   3.462 -0.1683 -1.4484 -0.0018
12843TIP3    H259945   1.401   2.703   3.333 -2.0612  1.2076  1.4460
12844TIP3   OH259946   5.014   3.464  11.512 -0.2225  0.0494 -0.0291
12844TIP3    H159947   4.997   3.485  11.420 -0.1121 -0.0434 -0.0701
12844TIP3    H259948   5.038   3.547  11.551  0.6959 -0.0840 -0.2998
12845TIP3   OH259949   5.133   1.362   4.319  0.2226 -0.4024 -0.2463
12845TIP3    H159950   5.163   1.452   4.302 -0.0168 -0.0006  1.2728
12845TIP3    H259951   5.042   1.362   4.291 -0.6945  0.7594  2.4563
12846TIP3   OH259952   1.776   2.260   1.375 -0.3900  0.0934 -0.1716
12846TIP3    H159953   1.731   2.342   1.397 -0.6781 -0.1207  0.0378
12846TIP3    H259954   1.720   2.191   1.411  0.9316 -0.1311  1.5622
12847TIP3   OH259955   0.962   4.985   4.124  0.0164  0.6547  0.1053
12847TIP3    H159956   1.035   4.938   4.165 -0.2457  1.7198  1.9008
12847TIP3    H259957   1.001   5.063   4.086  0.0576  0.3699 -0.4362
12848TIP3   OH259958   6.445   2.568   6.615 -0.0544  0.0884 -0.0047
12848TIP3    H159959   6.406   2.527   6.538 -0.4468  0.4532 -0.0059
12848TIP3    H259960   6.488   2.496   6.662  1.2281  0.0434 -1.1718
12849TIP3   OH259961   5.143   6.103  11.979  0.3312  0.1369  0.0176
12849TIP3    H159962   5.171   6.049  12.052  0.3162  0.3461  0.1783
12849TIP3    H259963   5.202   6.179  11.981 -0.0643  0.4466  0.1926
12850TIP3   OH259964   5.774   5.742  17.147  0.6337  0.3988 -0.1985
12850TIP3    H159965   5.806   5.769  17.061  1.3665  1.5481  0.4058
12850TIP3    H259966   5.687   5.783  17.154  1.5211  2.3065  0.4967
12851TIP3   OH259967   2.686   0.034   2.343  0.5436 -0.0122 -0.2065
12851TIP3    H159968   2.773   0.027   2.383 -0.0697 -1.5114  0.9728
12851TIP3    H259969   2.647   0.112   2.384 -0.2156 -1.7119  2.6363
12852TIP3   OH259970   4.916   5.656   1.407  0.1442 -0.1796  0.6275
12852TIP3    H159971   5.003   5.696   1.406 -0.1161  0.3878  0.0680
12852TIP3    H259972   4.914   5.605   1.488 -0.4255  2.9314  2.7328
12853TIP3   OH259973   5.037   0.407  16.937  0.1972 -0.0356 -0.1962
12853TIP3    H159974   5.088   0.385  16.859  1.0408  0.2084  0.2727
12853TIP3    H259975   5.045   0.330  16.993 -0.2671 -0.1430 -0.2708
12854TIP3   OH259976   2.914   0.468  11.303 -0.1259  0.3810 -0.1477
12854TIP3    H159977   2.915   0.561  11.324  0.6377 -0.0847  2.1719
12854TIP3    H259978   2.986   0.456  11.242  1.5122  0.9415  1.5881
12855TIP3   OH259979   6.092   5.691  16.849 -0.5969  0.2164  0.5420
12855TIP3    H159980   6.116   5.766  16.902  1.1360 -0.3602  0.6393
12855TIP3    H259981   6.125   5.712  16.761  2.6008 -1.5416  1.1564
12856TIP3   OH259982   4.555   1.460   1.513  0.2783 -0.1585 -0.3860
12856TIP3    H159983   4.621   1.524   1.539 -0.8807  1.3127 -0.9095
12856TIP3    H259984   4.544   1.474   1.419  0.4456 -1.5888 -0.6476
12857TIP3   OH259985   3.673   0.212   4.949  0.6134 -0.0793  0.4563
12857TIP3    H159986   3.742   0.149   4.927  0.5435 -0.0855  0.2497
12857TIP3    H259987   3.602   0.191   4.888  1.0476  0.9933 -0.4368
12858TIP3   OH259988   1.361   4.402   1.809  0.2230  0.6981  0.9533
12858TIP3    H159989   1.285   4.357   1.844 -0.0695 -1.0136 -1.6293
12858TIP3    H259990   1.436   4.361   1.853 -0.1958 -0.3562  0.7176
12859TIP3   OH259991   5.009   0.261   2.721  0.1648  0.1171  0.2987
12859TIP3    H159992   5.043   0.304   2.799  0.7149 -1.2416  0.8384
12859TIP3    H259993   5.066   0.186   2.708 -1.0601 -0.7495 -0.3178
12860TIP3   OH259994   0.047   1.274   1.323  0.4187 -0.2875 -0.2696
12860TIP3    H159995   0.109   1.202   1.331  1.1893  0.5056  1.4952
12860TIP3    H259996   0.086   1.345   1.374 -0.8501  1.0136 -1.0291
12861TIP3   OH259997   3.725   0.009  12.189  0.3151  0.0912  0.2175
12861TIP3    H159998   3.634   0.034  12.201  0.7667  1.8358  0.1779
12861TIP3    H259999   3.722  -0.057  12.119 -0.9584 -0.3090  0.6290
12862TIP3   OH260000   6.047   6.627   4.597  0.1877  0.1963  0.0466
12862TIP3    H160001   5.973   6.678   4.563 -0.4522 -0.1649  0.8791
12862TIP3    H260002   6.121   6.655   4.543 -0.2771  1.5299  0.0495
12863TIP3   OH260003   1.466   6.583   2.209 -0.1108  0.8133  0.0331
12863TIP3    H160004   1.541   6.584   2.149  0.0140  0.5315  0.1826
12863TIP3    H260005   1.475   6.501   2.257  0.2934  1.4518  1.0798
12864TIP3   OH260006   5.558   0.333   3.435  0.6817  0.0950  0.2023
12864TIP3    H160007   5.620   0.400   3.464 -0.0966  0.9437 -0.0280
12864TIP3    H260008   5.504   0.378   3.370  2.3292 -1.6778 -2.6041
12865TIP3   OH260009   5.057   0.076   3.118  0.4701 -0.4646  0.0426
12865TIP3    H160010   5.110   0.002   3.088  2.2281  0.9066 -0.3387
12865TIP3    H260011   5.120   0.142   3.145 -1.0232 -0.3454  3.7386
12866TIP3   OH260012   1.757   4.474  12.618 -0.3138  0.6489  0.3601
12866TIP3    H160013   1.805   4.437  12.692  0.2279  1.8940  0.6533
12866TIP3    H260014   1.716   4.399  12.576 -1.3111 -0.0137  2.3933
12867TIP3   OH260015   5.428   2.546   1.255  0.5361  0.1758  0.2257
12867TIP3    H160016   5.395   2.502   1.333 -0.2486 -0.8165 -0.6330
12867TIP3    H260017   5.349   2.576   1.209  1.0168  1.4445  0.2009
12868TIP3   OH260018   3.893   0.739  11.807 -0.0150 -0.0223  0.0387
12868TIP3    H160019   3.976   0.737  11.760  0.4178 -0.9700  0.8022
12868TIP3    H260020   3.832   0.784  11.748  0.9740  0.4748 -0.6231
12869TIP3   OH260021   4.519   6.132   5.048  0.5731  0.6021  0.3536
12869TIP3    H160022   4.596   6.125   4.992  0.2791 -3.8439  0.1173
12869TIP3    H260023   4.549   6.102   5.134 -0.5222  0.4660  0.7014
12870TIP3   OH260024   4.212   4.186  13.939 -0.4793 -0.4874  0.3116
12870TIP3    H160025   4.191   4.166  14.030 -0.1484 -1.4754  0.1911
12870TIP3    H260026   4.141   4.146  13.889 -1.1260  0.8004  0.1621
12871TIP3   OH260027   6.701   5.960   1.111  0.1502  0.1591 -0.1412
12871TIP3    H160028   6.643   5.884   1.100  0.4202 -0.1986  0.8363
12871TIP3    H260029   6.687   5.988   1.202  0.9362  0.5494 -0.1322
12872TIP3   OH260030   0.317   4.057   6.215  0.3463  0.3181  0.4389
12872TIP3    H160031   0.313   4.151   6.197 -0.5477 -0.0088 -1.2898
12872TIP3    H260032   0.262   4.045   6.292  1.8079  1.3974  1.7304
12873TIP3   OH260033   2.011   6.207  13.119  0.7301  0.4983  0.3677
12873TIP3    H160034   2.101   6.238  13.111  0.9362 -0.1276  0.1712
12873TIP3    H260035   1.963   6.281  13.157  1.5396  0.4775  1.4816
12874TIP3   OH260036   4.459   1.678   0.419 -0.0898  0.5764  0.1883
12874TIP3    H160037   4.413   1.725   0.490 -1.7875 -1.9507  0.8944
12874TIP3    H260038   4.532   1.636   0.463 -1.1032 -0.9344  0.5000
12875TIP3   OH260039   2.763   6.115   2.035  0.2321 -0.8005 -0.1668
12875TIP3    H160040   2.728   6.029   2.060 -0.1278 -0.5534  0.2105
12875TIP3    H260041   2.856   6.099   2.017 -0.2310 -1.6255 -1.9829
12876TIP3   OH260042   1.055   5.150   2.221  0.1922 -0.0155  0.3150
12876TIP3    H160043   1.045   5.226   2.278 -0.1016 -0.7041  1.1961
12876TIP3    H260044   1.015   5.177   2.138  1.5494  1.3682  0.0585
12877TIP3   OH260045   4.343   2.674   2.683 -0.3176  0.1302 -0.5111
12877TIP3    H160046   4.337   2.714   2.770  0.2496 -0.1751 -0.3263
12877TIP3    H260047   4.252   2.653   2.660 -0.3833 -0.7106  0.4473
12878TIP3   OH260048   3.924   5.377  15.593 -0.1542 -0.3049  0.9916
12878TIP3    H160049   3.956   5.442  15.656 -1.3474  0.0880  1.2231
12878TIP3    H260050   3.870   5.318  15.646  0.8458 -1.4640  0.7674
12879TIP3   OH260051   4.647   6.368   3.009  0.0955 -1.0217  0.1197
12879TIP3    H160052   4.585   6.399   3.076 -0.0984 -1.2928  0.0658
12879TIP3    H260053   4.731   6.365   3.055 -0.1343 -1.7572  0.5239
12880TIP3   OH260054   3.719   4.458  12.596 -0.4460 -0.0523  0.3769
12880TIP3    H160055   3.745   4.368  12.616  0.1845  0.1765  0.5936
12880TIP3    H260056   3.795   4.496  12.553 -1.3064 -0.1294 -1.3037
12881TIP3   OH260057   4.937   0.724   1.308 -0.5357 -0.0795  0.2466
12881TIP3    H160058   4.891   0.739   1.226  2.9437  0.7006 -1.7547
12881TIP3    H260059   5.024   0.760   1.294  1.0451 -2.1782  3.4097
12882TIP3   OH260060   5.717   4.823  15.066  0.5103  0.4879  0.4854
12882TIP3    H160061   5.726   4.914  15.036  0.4125 -0.0560 -1.3368
12882TIP3    H260062   5.770   4.818  15.145  0.8621  2.0196  0.3735
12883TIP3   OH260063   0.927   3.823  12.011  0.0725  0.0513 -0.5354
12883TIP3    H160064   0.914   3.896  11.950  2.8540  1.1756  0.0590
12883TIP3    H260065   0.874   3.846  12.088  0.1417  0.9745 -0.7517
12884TIP3   OH260066   5.183   1.887   4.998 -0.1880  0.1875  0.2666
12884TIP3    H160067   5.199   1.875   5.091 -3.0580  0.5836  0.9181
12884TIP3    H260068   5.130   1.811   4.972 -1.6493  1.3660 -0.3578
12885TIP3   OH260069   0.285   4.324  11.717 -0.2535  0.1958  0.0775
12885TIP3    H160070   0.342   4.298  11.645  0.7513  0.9175  0.5804
12885TIP3    H260071   0.217   4.256  11.720  1.2921 -1.4198  0.2622
12886TIP3   OH260072   2.524   2.117   2.296 -0.1031  0.4099  0.3510
12886TIP3    H160073   2.435   2.100   2.328  0.0530 -1.4357 -0.0995
12886TIP3    H260074   2.575   2.042   2.326  1.0124  0.7662 -0.5677
12887TIP3   OH260075   3.525   1.956  16.279  0.0463  0.1014  0.4937
12887TIP3    H160076   3.531   1.919  16.191  0.4778 -1.8073  1.2855
12887TIP3    H260077   3.606   2.006  16.290  0.4509 -0.4753  0.1669
12888TIP3   OH260078   2.137   6.769   4.042 -0.3093  0.1334 -0.4113
12888TIP3    H160079   2.043   6.772   4.021 -0.0110  0.0498 -1.8833
12888TIP3    H260080   2.168   6.857   4.023  0.0279 -0.0184 -0.5703
12889TIP3   OH260081   1.164   3.683  14.870 -0.0792  0.5277 -0.3236
12889TIP3    H160082   1.179   3.608  14.927  1.2046  1.8682  1.2332
12889TIP3    H260083   1.101   3.653  14.806 -0.0754 -1.6730  0.6240
12890TIP3   OH260084   5.981   2.067  13.253  0.4490  0.7829 -0.2869
12890TIP3    H160085   5.954   2.050  13.343  0.6449  1.7032 -0.0381
12890TIP3    H260086   5.995   1.981  13.215 -0.9895  0.3299  0.1378
12891TIP3   OH260087   3.400   2.380  14.192 -0.0695  0.1518  0.8066
12891TIP3    H160088   3.422   2.467  14.227  1.1186  0.0929  0.2427
12891TIP3    H260089   3.482   2.331  14.195 -0.6213 -0.8111  0.6656
12892TIP3   OH260090   5.894   2.282  13.936  0.2487  0.4039  0.1357
12892TIP3    H160091   5.972   2.324  13.974  1.3379 -1.5167  0.1942
12892TIP3    H260092   5.852   2.239  14.011  1.3132 -1.7568 -0.4173
12893TIP3   OH260093   2.629   4.908   3.331 -0.0178  0.2883  0.3396
12893TIP3    H160094   2.639   4.985   3.275 -0.8534 -0.9403 -1.6131
12893TIP3    H260095   2.546   4.922   3.376 -1.3685 -0.4459 -1.7797
12894TIP3   OH260096   1.171   6.633  14.176 -0.0436  0.4924  0.1242
12894TIP3    H160097   1.238   6.631  14.244  1.8588 -0.8310 -1.6846
12894TIP3    H260098   1.149   6.541  14.161  0.4309  0.6625 -1.8127
12895TIP3   OH260099   5.702   4.258  12.934 -0.1517 -0.2026  0.4239
12895TIP3    H160100   5.616   4.217  12.927  1.1883 -3.3767  0.8367
12895TIP3    H260101   5.761   4.186  12.958  2.6532  1.7987  0.0059
12896TIP3   OH260102   1.864   3.124  14.231 -0.7850 -0.1634  0.3867
12896TIP3    H160103   1.933   3.098  14.293 -1.3969 -1.4983  0.5328
12896TIP3    H260104   1.880   3.070  14.154 -1.4449 -0.1992  0.2745
12897TIP3   OH260105   4.029   1.180   5.332 -0.0302 -0.1239 -0.6945
12897TIP3    H160106   3.999   1.265   5.363  2.0478 -0.0901  1.4969
12897TIP3    H260107   4.038   1.191   5.238 -2.1144  1.2878 -0.7976
12898TIP3   OH260108   5.949   4.739  13.016 -0.5433  1.3890  0.1683
12898TIP3    H160109   5.940   4.777  12.929  1.0853  1.3277 -0.0506
12898TIP3    H260110   5.859   4.718  13.042 -1.1137  1.9703 -1.2297
12899TIP3   OH260111   6.254   0.102  13.444  0.1977  0.4627  0.2571
12899TIP3    H160112   6.340   0.093  13.402 -0.1589  2.1192 -0.8829
12899TIP3    H260113   6.271   0.157  13.521 -0.0354  1.8732 -0.6787
12900TIP3   OH260114   1.094   0.842   2.442  0.0184 -0.4171 -0.2519
12900TIP3    H160115   1.114   0.922   2.394  1.1058 -0.5145  0.0258
12900TIP3    H260116   1.017   0.806   2.397 -2.3069  2.2067  1.2824
12901TIP3   OH260117   0.725   3.894   1.022 -0.5532  0.1128 -0.3951
12901TIP3    H160118   0.801   3.907   1.079 -0.1081 -0.1229 -0.9199
12901TIP3    H260119   0.652   3.881   1.082 -0.0477 -0.3924  0.1293
12902TIP3   OH260120   0.588   2.679  16.939 -0.0101 -0.0725  0.1893
12902TIP3    H160121   0.640   2.685  17.019 -1.4405  0.3568  1.1307
12902TIP3    H260122   0.644   2.717  16.871  1.2252 -0.4346  0.9705
12903TIP3   OH260123   6.140   4.695  15.205  0.5994  0.1181 -0.2206
12903TIP3    H160124   6.216   4.637  15.216  0.9378  0.3127 -1.3827
12903TIP3    H260125   6.065   4.638  15.220  0.9195 -0.7167 -1.5424
12904TIP3   OH260126   2.460   3.895   3.716 -0.0275 -0.1153  0.0121
12904TIP3    H160127   2.469   3.823   3.778 -0.3052  0.0164  0.2095
12904TIP3    H260128   2.478   3.974   3.767  2.1509 -0.1391 -0.6190
12905TIP3   OH260129   4.110   6.257  11.530  0.4202  0.3279 -0.0102
12905TIP3    H160130   4.081   6.179  11.577  4.1271 -1.1358  0.1524
12905TIP3    H260131   4.181   6.226  11.473 -0.2776  3.0227 -2.6081
12906TIP3   OH260132   0.270   6.518  13.049 -0.5162  0.7470  0.1728
12906TIP3    H160133   0.195   6.499  13.106 -0.3765 -0.3752 -0.0023
12906TIP3    H260134   0.293   6.609  13.069 -0.8003  0.5407  1.5246
12907TIP3   OH260135   3.631   5.893  16.217 -0.2449  0.5421 -0.2430
12907TIP3    H160136   3.635   5.827  16.286  1.9408 -0.6069 -1.3676
12907TIP3    H260137   3.599   5.846  16.140 -1.9500  1.6434 -0.2722
12908TIP3   OH260138   6.660   1.196  16.030 -0.1683  0.2496  0.2524
12908TIP3    H160139   6.586   1.154  15.986  0.7668 -0.5955 -0.5545
12908TIP3    H260140   6.676   1.276  15.980  1.0899 -0.8624 -1.1980
12909TIP3   OH260141   4.590   4.591  15.380 -0.3451 -0.3016  0.2558
12909TIP3    H160142   4.668   4.536  15.372  0.2992  0.2649  2.0145
12909TIP3    H260143   4.546   4.584  15.296  1.4063 -0.9441 -0.6508
12910TIP3   OH260144   0.925   4.914   4.450  0.1938 -0.1224 -0.3145
12910TIP3    H160145   0.989   4.882   4.386 -0.0530  0.8473 -1.0821
12910TIP3    H260146   0.849   4.857   4.438  0.5353 -0.6281 -0.1205
12911TIP3   OH260147   3.498   0.987   3.602 -0.3717 -0.2068 -0.0356
12911TIP3    H160148   3.421   0.961   3.652 -1.0061  0.5129 -0.6265
12911TIP3    H260149   3.531   1.065   3.647 -0.4373 -0.0681 -0.2258
12912TIP3   OH260150   4.525   5.564   4.016 -0.1654  0.1433  0.8433
12912TIP3    H160151   4.514   5.526   3.929 -0.4852  0.9661  0.5199
12912TIP3    H260152   4.512   5.490   4.076  1.2232 -0.6819  0.1718
12913TIP3   OH260153   1.452   4.967  16.838  0.3112  1.0491 -0.0993
12913TIP3    H160154   1.427   4.969  16.930  0.9059 -0.8440  0.1468
12913TIP3    H260155   1.439   5.057  16.808 -0.3158  1.6108  1.7017
12914TIP3   OH260156   5.581   1.039  16.387 -0.1474  0.8481  0.4521
12914TIP3    H160157   5.669   1.043  16.425  0.2810 -3.2258  0.3682
12914TIP3    H260158   5.523   1.028  16.463 -0.5189  2.4613  0.4323
12915TIP3   OH260159   5.572   5.971   4.359  0.2556 -0.3733  0.3344
12915TIP3    H160160   5.578   5.890   4.308 -0.4279  0.1900 -0.6852
12915TIP3    H260161   5.631   6.032   4.314 -2.5522  1.0810 -1.7289
12916TIP3   OH260162   6.311   0.113   2.448  0.5474 -0.2073  0.1981
12916TIP3    H160163   6.367   0.176   2.404 -0.7707  0.5286 -0.4800
12916TIP3    H260164   6.370   0.065   2.507  1.2452  3.2715  2.6078
12917TIP3   OH260165   6.536   5.360   0.115  0.3112  0.2822 -0.1704
12917TIP3    H160166   6.579   5.375   0.031  0.5650  1.1861  0.1142
12917TIP3    H260167   6.597   5.304   0.163  0.7843  0.8483 -0.0959
12918TIP3   OH260168   1.454   2.609   2.257  0.4075 -0.9470 -0.1535
12918TIP3    H160169   1.449   2.552   2.181  1.5429 -1.6719  0.2944
12918TIP3    H260170   1.461   2.697   2.221  2.0136 -1.3602 -0.9122
12919TIP3   OH260171   1.956   5.681   3.000  0.0715 -0.5723  0.3537
12919TIP3    H160172   1.915   5.597   2.983 -0.8170  0.0442 -0.6384
12919TIP3    H260173   1.932   5.736   2.926  2.7905 -0.1916 -0.3813
12920TIP3   OH260174   3.572   4.437   4.531 -0.2921  0.1653 -0.0054
12920TIP3    H160175   3.651   4.426   4.478  0.7322  2.1304  0.9765
12920TIP3    H260176   3.508   4.475   4.470 -0.0715 -0.2538 -0.5061
12921TIP3   OH260177   6.353   2.422   2.068 -0.5272 -0.5783  0.1895
12921TIP3    H160178   6.424   2.360   2.087  0.6397  0.4454 -0.5952
12921TIP3    H260179   6.384   2.469   1.990 -1.5562  0.6928  0.5228
12922TIP3   OH260180   5.100   2.202   0.859 -0.6295 -0.0809  0.0226
12922TIP3    H160181   5.146   2.150   0.793  0.2662 -0.1421  0.6775
12922TIP3    H260182   5.024   2.148   0.883  0.0887 -0.9369  0.4292
12923TIP3   OH260183   3.410   2.052   3.605 -0.5637 -0.4212 -0.1805
12923TIP3    H160184   3.402   2.111   3.530  1.1074 -0.5753 -0.5172
12923TIP3    H260185   3.486   2.084   3.653 -1.5485 -0.3805  1.4394
12924TIP3   OH260186   3.365   1.745  11.589 -0.1519 -0.4204 -0.4622
12924TIP3    H160187   3.301   1.788  11.645  0.1592  0.4310 -0.7467
12924TIP3    H260188   3.388   1.811  11.523  0.7998 -0.8048 -0.5360
12925TIP3   OH260189   4.223   6.266  16.318 -0.1761 -0.6757 -0.6784
12925TIP3    H160190   4.209   6.360  16.325  1.8989 -0.3680 -0.0644
12925TIP3    H260191   4.170   6.239  16.243 -1.9178  0.7019 -0.0072
12926TIP3   OH260192   2.124   2.536  12.485  0.2259  0.4539 -0.2369
12926TIP3    H160193   2.175   2.500  12.412  1.1075  0.3128  0.4266
12926TIP3    H260194   2.088   2.618  12.450  1.9378  1.2013 -0.3841
12927TIP3   OH260195   2.933   0.471  13.615  0.4859 -0.4571 -0.2633
12927TIP3    H160196   2.982   0.540  13.571 -0.3574  0.6467  0.4480
12927TIP3    H260197   2.978   0.459  13.699  0.0791 -0.0840  0.0123
12928TIP3   OH260198   0.391   2.691   0.614  0.3112 -0.3711 -0.3250
12928TIP3    H160199   0.480   2.681   0.649  1.1703  1.9883 -1.6220
12928TIP3    H260200   0.347   2.750   0.677  0.7647  1.0921 -1.3161
12929TIP3   OH260201   5.071   4.230   3.558 -0.2073 -0.0717 -0.1953
12929TIP3    H160202   5.085   4.324   3.547  1.2994 -0.2430  0.0280
12929TIP3    H260203   4.977   4.218   3.545 -0.4916  1.5181  0.1760
12930TIP3   OH260204   5.335   4.546   5.426  0.1014 -0.0479  0.2878
12930TIP3    H160205   5.332   4.626   5.375  0.4327 -0.6546 -0.7011
12930TIP3    H260206   5.349   4.476   5.362  3.0896 -0.6104  1.3692
12931TIP3   OH260207   3.893   4.644  12.123  0.4968 -0.0581  0.2852
12931TIP3    H160208   3.808   4.665  12.161 -0.5896 -0.5788 -1.7233
12931TIP3    H260209   3.941   4.601  12.193 -1.3266 -0.8088  1.1257
12932TIP3   OH260210   1.610   3.557   5.302 -0.4936  0.1368  0.2703
12932TIP3    H160211   1.597   3.592   5.213  0.5342 -3.2657 -1.4000
12932TIP3    H260212   1.574   3.469   5.298  0.2948 -0.3953  3.0688
12933TIP3   OH260213   1.223   6.352  14.194  0.2432  0.0103 -0.3592
12933TIP3    H160214   1.220   6.266  14.234 -0.4504 -0.8238 -2.0969
12933TIP3    H260215   1.268   6.339  14.111  1.9253  1.7337  0.1870
12934TIP3   OH260216   1.027   6.148  14.116 -0.1036  0.5799 -0.4168
12934TIP3    H160217   0.990   6.138  14.203 -0.1141 -0.7887 -0.5504
12934TIP3    H260218   1.009   6.064  14.073  1.0306  0.7720 -1.3003
12935TIP3   OH260219   3.593   4.891  16.524 -0.1430 -0.3058  0.5930
12935TIP3    H160220   3.517   4.935  16.487 -0.3148  0.9847  2.3075
12935TIP3    H260221   3.641   4.961  16.568  1.1688 -1.3754  0.9188
12936TIP3   OH260222   4.390   4.565  14.256 -0.0614  0.1144 -0.3113
12936TIP3    H160223   4.325   4.539  14.321  0.2565 -0.5743 -0.2545
12936TIP3    H260224   4.352   4.640  14.212 -0.6015  0.1310  0.1757
12937TIP3   OH260225   4.459   3.664  15.922  0.2658  0.0267 -0.1175
12937TIP3    H160226   4.478   3.711  16.003  0.3444  0.3446 -0.3190
12937TIP3    H260227   4.519   3.702  15.858 -1.0174  1.0413 -0.7662
12938TIP3   OH260228   0.329   1.721   3.193  0.1116  0.2844 -0.3412
12938TIP3    H160229   0.405   1.742   3.247  0.5347 -0.5363 -0.6069
12938TIP3    H260230   0.299   1.636   3.225  1.1097 -0.8152 -2.1627
12939TIP3   OH260231   3.130   1.047   0.952 -0.2446  0.0408 -0.0880
12939TIP3    H160232   3.074   1.120   0.925 -1.7148 -0.4023  1.5276
12939TIP3    H260233   3.075   0.969   0.936  0.8761 -0.6398 -0.7507
12940TIP3   OH260234   2.363   5.537  16.343  0.7718 -0.3395 -0.0893
12940TIP3    H160235   2.398   5.529  16.432 -0.6002  1.2552  0.6710
12940TIP3    H260236   2.423   5.487  16.288  3.7552  1.5513  1.2149
12941TIP3   OH260237   0.179   3.376   2.546 -0.3241 -0.0965 -0.4450
12941TIP3    H160238   0.148   3.308   2.487  0.4375 -0.4531 -0.4471
12941TIP3    H260239   0.190   3.332   2.630 -2.5930  0.6829  0.3155
12942TIP3   OH260240   6.635   0.427   0.011  0.0610  0.2357  0.0719
12942TIP3    H160241   6.707   0.488  -0.009  0.9495 -0.2461  1.6641
12942TIP3    H260242   6.557   0.471  -0.023  1.2064  0.0964 -3.1176
12943TIP3   OH260243   0.347   2.194  16.410 -0.1080 -0.2886  0.2149
12943TIP3    H160244   0.428   2.245  16.417  1.1152 -1.9020 -1.2095
12943TIP3    H260245   0.290   2.248  16.355  1.2927 -0.5104 -1.5580
12944TIP3   OH260246   5.294   0.773  10.512  0.4289 -0.1980 -0.3853
12944TIP3    H160247   5.369   0.762  10.569  0.8196 -0.2091 -0.8955
12944TIP3    H260248   5.219   0.746  10.566  0.7787 -0.1441  0.1374
12945TIP3   OH260249   4.668   6.587  13.064  0.3282  0.2393  0.2763
12945TIP3    H160250   4.707   6.503  13.040 -1.4246  0.0313 -2.2143
12945TIP3    H260251   4.741   6.649  13.063  1.7154 -1.2274  2.5466
12946TIP3   OH260252   3.372   1.643  13.852 -0.1333 -0.3094 -0.0516
12946TIP3    H160253   3.285   1.616  13.824  0.7876 -0.5261 -3.1004
12946TIP3    H260254   3.372   1.738  13.839 -0.0678 -0.2489  0.3944
12947TIP3   OH260255   3.121   3.921   5.749  0.1970 -0.4074 -0.3569
12947TIP3    H160256   3.205   3.960   5.771 -0.4255  0.8016 -0.0556
12947TIP3    H260257   3.116   3.841   5.801  0.0012  0.9051  1.7236
12948TIP3   OH260258   4.086   3.593  13.933  0.0067 -0.1592 -0.3810
12948TIP3    H160259   4.078   3.550  13.848 -0.2910  0.2590 -0.5700
12948TIP3    H260260   4.025   3.666  13.928 -0.3544 -0.4010  0.3662
12949TIP3   OH260261   0.873   2.308  13.373 -0.1728  0.3027  0.2525
12949TIP3    H160262   0.821   2.292  13.452  1.4305 -2.2129  0.8693
12949TIP3    H260263   0.867   2.227  13.324  1.6605  0.6327 -0.5584
12950TIP3   OH260264   4.357   5.073   0.429  0.5868 -0.8888 -0.5948
12950TIP3    H160265   4.450   5.054   0.421  0.7737 -0.7586  1.0959
12950TIP3    H260266   4.351   5.169   0.430  0.4352 -0.8964 -0.6697
12951TIP3   OH260267   4.447   0.830  13.777  0.1260 -0.4118 -0.1519
12951TIP3    H160268   4.438   0.919  13.810  0.2535  0.3177 -2.0150
12951TIP3    H260269   4.497   0.785  13.845  0.4093  1.0263  0.6347
12952TIP3   OH260270   5.262   6.343  11.957 -0.4520  0.4995  0.1411
12952TIP3    H160271   5.281   6.364  11.865 -0.1103 -0.2871  0.0245
12952TIP3    H260272   5.208   6.416  11.987 -2.0095 -0.0689 -1.1797
12953TIP3   OH260273   0.743   5.118   4.245 -0.1141 -0.4707 -0.3071
12953TIP3    H160274   0.821   5.087   4.200 -0.4850 -1.1578 -0.4858
12953TIP3    H260275   0.684   5.043   4.245  0.8641 -1.5163  3.7321
12954TIP3   OH260276   0.783   3.649   6.198 -0.2053  0.1453  0.7804
12954TIP3    H160277   0.768   3.726   6.254  1.0776  0.8394  0.2083
12954TIP3    H260278   0.856   3.603   6.240 -0.0480  0.0039  0.3557
12955TIP3   OH260279   1.336   5.989   1.325 -0.2339  0.1566 -0.3515
12955TIP3    H160280   1.243   5.977   1.305 -0.2776  0.7358 -0.5244
12955TIP3    H260281   1.369   6.043   1.253  0.7143 -1.6835 -1.3863
12956TIP3   OH260282   0.072   3.932   4.603 -0.0694  0.3766  0.2229
12956TIP3    H160283   0.067   3.872   4.678  0.2082  0.4024  0.2662
12956TIP3    H260284   0.061   3.875   4.526 -0.2500  0.3344  0.2803
12957TIP3   OH260285   2.303   2.416   1.301 -0.2105  0.3455 -0.1581
12957TIP3    H160286   2.300   2.325   1.328 -1.2448  0.9774  2.1114
12957TIP3    H260287   2.362   2.458   1.364  1.0491  1.0962 -1.7737
12958TIP3   OH260288   0.106   3.694   3.181 -0.2124 -0.5841 -0.0521
12958TIP3    H160289   0.099   3.647   3.264 -0.3167  2.1903  1.6501
12958TIP3    H260290   0.083   3.785   3.203  0.8754  0.4940 -2.8934
12959TIP3   OH260291   3.133   1.214   5.146 -0.5700  0.7682 -0.3651
12959TIP3    H160292   3.224   1.210   5.115  0.2275 -0.3891  1.8744
12959TIP3    H260293   3.093   1.135   5.111  0.4010 -0.6811  1.5912
12960TIP3   OH260294   1.986   4.910   1.749  0.1688  0.1980 -0.7499
12960TIP3    H160295   2.032   4.898   1.665  2.2030 -0.9972  0.4418
12960TIP3    H260296   2.008   4.832   1.799 -0.3022  1.2625  1.2070
12961TIP3   OH260297   6.640   4.296  16.809 -0.0076  0.2570 -0.3310
12961TIP3    H160298   6.584   4.221  16.791  0.7924 -0.0533 -1.6009
12961TIP3    H260299   6.729   4.261  16.809  0.3855  1.2006 -1.0436
12962TIP3   OH260300   1.589   0.101   2.698 -0.2056  0.8401  0.0044
12962TIP3    H160301   1.654   0.113   2.767  1.6874 -0.1824 -1.5036
12962TIP3    H260302   1.522   0.045   2.737  0.2219  1.2287  1.3403
12963TIP3   OH260303   0.267   6.561  10.444  0.2421  0.0786  0.5547
12963TIP3    H160304   0.268   6.474  10.405  2.6220  0.4699 -0.4099
12963TIP3    H260305   0.223   6.616  10.380  0.1850 -0.1191  0.4236
12964TIP3   OH260306   5.273   0.598  14.371 -0.1498 -0.2306  0.3806
12964TIP3    H160307   5.244   0.683  14.338  0.4122 -0.0866  0.2557
12964TIP3    H260308   5.311   0.618  14.457 -0.0142 -0.3594  0.3499
12965TIP3   OH260309   5.500   3.666  15.004 -0.3146  0.9568  0.1909
12965TIP3    H160310   5.432   3.712  15.052 -0.1588  0.4351  0.9450
12965TIP3    H260311   5.569   3.651  15.069 -0.7213 -1.0887  0.2375
12966TIP3   OH260312   2.947   3.445   5.888  0.5295 -0.0877  0.5182
12966TIP3    H160313   3.034   3.452   5.848  1.0787 -2.4696  1.1611
12966TIP3    H260314   2.957   3.485   5.974  0.7675  0.2836  0.3229
12967TIP3   OH260315   0.862   6.632  15.854  0.4939  0.0832  0.2183
12967TIP3    H160316   0.909   6.599  15.777  2.7090  0.6826  1.2375
12967TIP3    H260317   0.771   6.638  15.825  0.9195 -1.5892 -1.7122
12968TIP3   OH260318   5.957   5.151   0.994  0.5334  0.7750 -0.4992
12968TIP3    H160319   5.880   5.160   0.937  1.0309 -0.4696 -1.4071
12968TIP3    H260320   6.032   5.166   0.936  1.0169  1.2100  0.2137
12969TIP3   OH260321   5.454   3.046   4.090  0.1099 -0.6314  0.4627
12969TIP3    H160322   5.376   3.057   4.144  0.5393  0.5824  0.8772
12969TIP3    H260323   5.431   2.975   4.029 -1.3621 -0.2124  0.4789
12970TIP3   OH260324   6.113   3.610  16.458 -0.4443 -0.2646  1.0059
12970TIP3    H160325   6.040   3.641  16.512 -0.5854  0.4178  0.4397
12970TIP3    H260326   6.174   3.571  16.521  0.7972  3.0755  2.1199
12971TIP3   OH260327   5.570   4.878   5.010  0.1030  0.1926 -0.2517
12971TIP3    H160328   5.479   4.871   4.982  0.5995 -0.0375 -1.8911
12971TIP3    H260329   5.566   4.928   5.092 -1.4573  0.4804 -0.4714
12972TIP3   OH260330   5.117   4.779  13.747  0.1719  0.1184 -0.6948
12972TIP3    H160331   5.101   4.747  13.659 -0.1393  0.2994 -0.7040
12972TIP3    H260332   5.140   4.871  13.736  2.1442 -0.3335 -0.7763
12973TIP3   OH260333   4.078   3.262   6.209  0.4558 -0.0587 -1.2150
12973TIP3    H160334   4.167   3.272   6.175  0.9061  1.6440  0.3675
12973TIP3    H260335   4.087   3.268   6.304 -1.3344 -0.0373 -1.0131
12974TIP3   OH260336   4.007   5.718  13.899  0.2158 -0.2833  0.2669
12974TIP3    H160337   3.998   5.727  13.804 -0.1333 -0.3080  0.2943
12974TIP3    H260338   3.937   5.773  13.935 -0.0432 -0.7533  0.4934
12975TIP3   OH260339   1.497   6.258  16.461 -0.9452  0.0010  0.5581
12975TIP3    H160340   1.420   6.313  16.446 -1.0559 -0.1036  0.7497
12975TIP3    H260341   1.491   6.232  16.553 -0.3817  0.4567  0.7260
12976TIP3   OH260342   2.707   5.418  15.873  0.0527 -0.2867 -0.1336
12976TIP3    H160343   2.799   5.446  15.876 -0.1278  0.5472 -1.4372
12976TIP3    H260344   2.712   5.322  15.874  0.8704 -0.2486  0.9255
12977TIP3   OH260345   4.892   1.347  15.972  0.1622  0.0314 -0.4563
12977TIP3    H160346   4.959   1.395  15.922  1.4231  0.1456  1.2505
12977TIP3    H260347   4.941   1.306  16.043 -1.4370 -0.8988  0.1375
12978TIP3   OH260348   4.116   5.717  16.706 -0.1420 -0.2871  0.6635
12978TIP3    H160349   4.128   5.797  16.758 -0.0172 -0.1684  0.4540
12978TIP3    H260350   4.044   5.671  16.749  0.8776 -0.8825  1.7923
12979TIP3   OH260351   2.453   5.310  14.266 -0.4626 -0.6202  0.1737
12979TIP3    H160352   2.544   5.338  14.267 -0.1573 -1.5897  1.3769
12979TIP3    H260353   2.457   5.215  14.270 -1.5307 -0.6737  0.2469
12980TIP3   OH260354   3.220   4.381  13.674  0.0408  0.3493 -0.5851
12980TIP3    H160355   3.279   4.429  13.616 -0.6488  3.4393  1.0704
12980TIP3    H260356   3.136   4.424  13.664 -0.8288 -1.0179  0.4665
12981TIP3   OH260357   6.580   1.346   3.773 -0.7045  0.0543  0.5234
12981TIP3    H160358   6.656   1.395   3.805 -1.8936  1.8318  0.7377
12981TIP3    H260359   6.546   1.302   3.851  1.0720 -2.2312  0.1187
12982TIP3   OH260360   5.302   2.206   6.697 -0.0690 -0.6012  0.9273
12982TIP3    H160361   5.210   2.182   6.707 -0.5724  0.4691 -0.6529
12982TIP3    H260362   5.343   2.180   6.779 -1.6832 -1.5342  1.4835
12983TIP3   OH260363   3.114   3.048  11.581 -0.4246  0.1610 -0.6043
12983TIP3    H160364   3.103   3.110  11.652 -0.6945  0.0781 -0.5713
12983TIP3    H260365   3.076   3.092  11.505 -0.4664  0.1044 -0.6165
12984TIP3   OH260366   3.190   0.690   6.488 -0.0393 -0.7313 -0.2316
12984TIP3    H160367   3.177   0.780   6.518  2.8084 -0.6818  1.1372
12984TIP3    H260368   3.101   0.653   6.486 -1.2507  1.9614 -0.4986
12985TIP3   OH260369   5.470   1.683   4.555 -0.1853  0.5686  0.0414
12985TIP3    H160370   5.519   1.757   4.518  0.7540 -0.0441  0.0262
12985TIP3    H260371   5.538   1.620   4.581 -0.9118  0.1967  1.1130
12986TIP3   OH260372   0.558   2.694  16.291 -0.2999  0.6032 -0.0361
12986TIP3    H160373   0.497   2.674  16.220  1.8977 -0.3846 -1.7619
12986TIP3    H260374   0.578   2.787  16.281  0.1647  0.4206 -0.8915
12987TIP3   OH260375   5.497   2.200  11.973 -0.4731  0.6666  0.0069
12987TIP3    H160376   5.401   2.199  11.972 -0.5990  2.0591 -2.9917
12987TIP3    H260377   5.520   2.263  12.041 -1.5050 -1.2286  2.2627
12988TIP3   OH260378   4.326   6.298   3.380 -0.2245  0.1206  0.2736
12988TIP3    H160379   4.416   6.285   3.348 -1.0306 -0.0330 -2.1438
12988TIP3    H260380   4.327   6.262   3.468  1.9538 -0.3502  0.1293
12989TIP3   OH260381   3.239   5.877  11.393 -0.1053  0.1172 -0.4797
12989TIP3    H160382   3.176   5.894  11.323  1.0839  1.5007 -1.2532
12989TIP3    H260383   3.186   5.874  11.473 -1.0710  2.3341 -0.9741
12990TIP3   OH260384   2.812   3.368   2.596  0.6168 -0.0601  0.3571
12990TIP3    H160385   2.769   3.288   2.565  0.0032  0.1552  0.6330
12990TIP3    H260386   2.781   3.379   2.686  1.1969  0.1427  0.5350
12991TIP3   OH260387   3.003   0.984   5.048 -0.7536  0.1068  0.2725
12991TIP3    H160388   2.929   0.973   5.109 -0.8034  0.6764  0.3175
12991TIP3    H260389   3.074   0.935   5.089 -0.3463  1.6772  1.5626
12992TIP3   OH260390   6.039   2.200   0.235  0.2298 -0.2774 -0.7056
12992TIP3    H160391   6.033   2.201   0.331  0.6119 -1.9817 -0.6365
12992TIP3    H260392   6.104   2.267   0.215  1.2614 -0.9248  0.3445
12993TIP3   OH260393   1.666   1.454  11.756  0.6867  0.3146 -0.5532
12993TIP3    H160394   1.668   1.396  11.679 -1.8248 -0.8718  0.1625
12993TIP3    H260395   1.647   1.540  11.720  2.4115  0.3735 -1.4547
12994TIP3   OH260396   4.127   0.550  15.369 -0.1622  0.1086 -0.5658
12994TIP3    H160397   4.096   0.637  15.395 -0.2650 -0.0417 -0.1751
12994TIP3    H260398   4.179   0.521  15.443  1.5670  0.6685 -1.5010
12995TIP3   OH260399   1.020   4.724   6.500  0.3836 -0.8620 -0.4445
12995TIP3    H160400   1.094   4.783   6.483 -0.2642  0.2072  0.3873
12995TIP3    H260401   0.982   4.755   6.582 -1.0033 -1.3873 -0.8579
12996TIP3   OH260402   1.255   4.997  16.008 -0.5295  0.1729 -0.1102
12996TIP3    H160403   1.261   4.919  16.064 -0.9019  1.1641  1.3849
12996TIP3    H260404   1.309   4.977  15.932 -1.1038 -1.7796 -0.0610
12997TIP3   OH260405   6.521   0.840   6.352 -0.6280  0.1064 -0.2441
12997TIP3    H160406   6.601   0.812   6.396 -0.3114 -0.1965 -0.9981
12997TIP3    H260407   6.515   0.934   6.370  0.5829  0.4019 -1.2107
12998TIP3   OH260408   2.775   2.972   1.329  0.1052  0.2059  0.4219
12998TIP3    H160409   2.748   3.063   1.339  1.1991  0.6305 -0.2229
12998TIP3    H260410   2.870   2.977   1.313 -0.0401 -0.9340 -1.0423
12999TIP3   OH260411   3.270   3.597   3.752 -0.0929  0.8802  0.1463
12999TIP3    H160412   3.258   3.688   3.728  3.3811  1.4765  0.1738
12999TIP3    H260413   3.314   3.557   3.676 -0.8998 -0.6006  0.4138
13000TIP3   OH260414   0.302   5.829  16.711  0.0665  0.3917 -0.3970
13000TIP3    H160415   0.323   5.738  16.694  1.3184  0.4601  0.5703
13000TIP3    H260416   0.212   5.828  16.743  0.1808 -0.5432 -0.0867
13001TIP3   OH260417   0.140   3.461  15.052  0.4142 -0.5111  0.3147
13001TIP3    H160418   0.090   3.379  15.053 -1.1794  0.3820 -1.1333
13001TIP3    H260419   0.128   3.495  14.964  1.1413  1.2399  0.8614
13002TIP3   OH260420   3.857   3.719  13.933  0.2112  0.1642 -0.3598
13002TIP3    H160421   3.818   3.784  13.991  0.2095  1.2529 -1.5272
13002TIP3    H260422   3.782   3.685  13.883  0.3919  0.3338 -0.7541
13003TIP3   OH260423   5.003   2.816  11.412  0.7321  0.5376  0.0795
13003TIP3    H160424   5.056   2.750  11.368 -0.1790 -0.2140  0.0899
13003TIP3    H260425   4.984   2.881  11.344  1.0816  0.4585 -0.0950
13004TIP3   OH260426   5.805   4.804   4.529 -0.1617 -0.0686 -0.2735
13004TIP3    H160427   5.761   4.803   4.613  0.1144 -1.6361 -0.1229
13004TIP3    H260428   5.801   4.895   4.501  0.9571  0.7569  2.0533
13005TIP3   OH260429   3.865   6.346   0.252  0.0855  0.2543  0.5444
13005TIP3    H160430   3.908   6.430   0.266 -0.2513  0.5073  0.0859
13005TIP3    H260431   3.815   6.357   0.171 -1.9089  0.4287  1.7146
13006TIP3   OH260432   2.743   1.203   2.186 -0.4101  0.7554  0.1706
13006TIP3    H160433   2.751   1.217   2.092 -1.1005  2.1950  0.2903
13006TIP3    H260434   2.831   1.178   2.214 -0.8179 -2.7580 -1.2473
13007TIP3   OH260435   6.652   5.751   3.226 -0.2546 -0.3094 -0.0993
13007TIP3    H160436   6.572   5.803   3.214 -0.9503 -1.5047 -0.8067
13007TIP3    H260437   6.671   5.759   3.320 -1.5952 -0.5480  0.2208
13008TIP3   OH260438   0.518   3.102   0.843 -0.4236  0.7286 -0.0081
13008TIP3    H160439   0.451   3.035   0.829 -0.8423  0.6134  2.2500
13008TIP3    H260440   0.496   3.170   0.779 -2.8332  0.7748  0.7532
13009TIP3   OH260441   0.599   4.803  16.696  0.0514 -0.0728 -0.3233
13009TIP3    H160442   0.573   4.728  16.750  0.6908  1.4380  2.2628
13009TIP3    H260443   0.615   4.873  16.759 -0.3011  2.2077 -2.6152
13010TIP3   OH260444   2.046   5.236   6.118 -0.1661  0.1661 -0.0362
13010TIP3    H160445   1.957   5.251   6.150 -0.4534 -0.5750 -0.4731
13010TIP3    H260446   2.096   5.208   6.195 -0.4560 -0.0073  0.0882
13011TIP3   OH260447   6.481   2.214  17.230 -0.6609  0.3064  0.7304
13011TIP3    H160448   6.452   2.154  17.299 -0.0195  1.3603  1.9768
13011TIP3    H260449   6.471   2.301  17.269  0.1929  0.9039 -0.3370
13012TIP3   OH260450   6.142   3.423  14.772  0.5475  0.1675  0.2877
13012TIP3    H160451   6.126   3.331  14.755 -0.6259  0.6249 -1.3274
13012TIP3    H260452   6.093   3.442  14.852  0.8715 -0.6055  0.6832
13013TIP3   OH260453   3.997   4.077   2.967 -0.1153  0.0407  0.2615
13013TIP3    H160454   3.928   4.123   3.016  1.1266  1.7567  0.5045
13013TIP3    H260455   3.950   4.019   2.907 -1.7025 -1.1355  2.5133
13014TIP3   OH260456   1.265   4.042  12.485  0.0110 -0.3282  0.3204
13014TIP3    H160457   1.242   3.958  12.526 -2.3312  0.3581  0.5529
13014TIP3    H260458   1.227   4.036  12.397 -2.5837  1.3924  1.1948
13015TIP3   OH260459   4.827   6.577  15.756  0.2689  0.2421  0.1930
13015TIP3    H160460   4.755   6.521  15.785 -0.7426  0.4856 -1.6490
13015TIP3    H260461   4.794   6.666  15.770 -0.3207  0.3653 -1.7128
13016TIP3   OH260462   1.402   5.265  12.194  0.3666 -0.4147  0.1054
13016TIP3    H160463   1.478   5.324  12.198 -0.1409  0.2110  0.8317
13016TIP3    H260464   1.415   5.205  12.267 -0.2184  0.1743  0.6985
13017TIP3   OH260465   1.355   4.473   1.134  0.1395  0.6150  0.1431
13017TIP3    H160466   1.446   4.458   1.109  1.1328  3.9064  1.2223
13017TIP3    H260467   1.360   4.524   1.214 -2.7483 -0.5396  1.2072
13018TIP3   OH260468   0.132   3.768  10.891  0.3294 -0.6769 -0.0993
13018TIP3    H160469   0.111   3.778  10.798  2.9296 -0.2554 -0.7117
13018TIP3    H260470   0.221   3.734  10.892  0.5994 -0.0732  2.2469
13019TIP3   OH260471   2.183   2.103  11.570 -0.4233  0.3902 -0.2166
13019TIP3    H160472   2.204   2.030  11.628 -0.6885 -0.1504 -0.7862
13019TIP3    H260473   2.204   2.181  11.621 -1.4938 -0.0465  0.9291
13020TIP3   OH260474   0.746   5.680   5.998 -0.3712  0.3259  0.0922
13020TIP3    H160475   0.785   5.595   6.016  0.5508  0.3556 -1.5936
13020TIP3    H260476   0.768   5.733   6.074 -1.2410 -0.9924  1.3253
13021TIP3   OH260477   6.256   2.945   2.584  0.1441  0.0230 -0.4951
13021TIP3    H160478   6.189   2.955   2.653  1.5558  0.9453  0.8176
13021TIP3    H260479   6.251   3.026   2.534  1.6272  1.0785  0.9341
13022TIP3   OH260480   1.362   2.922  13.917 -0.0338  0.0539  0.7942
13022TIP3    H160481   1.443   2.972  13.918 -1.3701  2.3828 -0.0054
13022TIP3    H260482   1.313   2.954  13.993 -0.0683 -1.6275  1.5185
13023TIP3   OH260483   6.130   3.162  15.019 -0.4438  0.1911 -0.1994
13023TIP3    H160484   6.175   3.107  15.083 -2.3168 -0.9315  0.2282
13023TIP3    H260485   6.179   3.149  14.938  0.7954  0.0985  0.5366
13024TIP3   OH260486   4.556   1.103  10.718 -0.1533 -0.3297 -0.3579
13024TIP3    H160487   4.471   1.094  10.760 -0.5109  1.1395 -0.7155
13024TIP3    H260488   4.609   1.033  10.755 -0.1595  1.3747  3.2207
13025TIP3   OH260489   2.468   5.718  16.895 -0.5093 -0.4167 -0.1902
13025TIP3    H160490   2.413   5.652  16.937 -0.8053 -0.5606 -0.8007
13025TIP3    H260491   2.432   5.728  16.807  2.3476 -3.0130 -1.9179
13026TIP3   OH260492   2.664   4.403  17.248 -0.2582 -0.0385  0.0730
13026TIP3    H160493   2.594   4.468  17.239  1.0063  1.2869 -0.5753
13026TIP3    H260494   2.634   4.328  17.196 -1.2880  0.4102  0.0019
13027TIP3   OH260495   5.378   5.327  17.058 -0.5297  0.1706  0.6519
13027TIP3    H160496   5.445   5.393  17.039 -0.1026 -0.6091 -0.6588
13027TIP3    H260497   5.393   5.258  16.993 -1.0536 -1.1640  1.9012
13028TIP3   OH260498   3.151   4.324   1.497 -0.2594  0.4265  0.0825
13028TIP3    H160499   3.074   4.268   1.499  0.8329 -1.1236  1.0365
13028TIP3    H260500   3.195   4.302   1.414  1.0706 -1.5015  1.2214
13029TIP3   OH260501   4.621   6.553   2.809  1.3077 -0.3505  0.2704
13029TIP3    H160502   4.594   6.506   2.730  0.7223  1.8375 -0.9204
13029TIP3    H260503   4.620   6.486   2.878  0.5787 -2.0657 -1.3086
13030TIP3   OH260504   5.101   6.410  14.005 -0.0267  0.7699  0.1384
13030TIP3    H160505   5.163   6.363  13.949 -0.4680 -0.6326  0.7931
13030TIP3    H260506   5.064   6.478  13.949  0.0698 -0.1448 -1.0590
13031TIP3   OH260507   0.676   0.724   2.890 -0.3289  0.7216 -0.3941
13031TIP3    H160508   0.589   0.760   2.907  0.6976  2.4458  1.6525
13031TIP3    H260509   0.700   0.759   2.804 -0.9755  1.6531 -0.2120
13032TIP3   OH260510   1.950   6.290   0.763 -0.3329 -0.1096  0.1893
13032TIP3    H160511   1.917   6.371   0.724  2.3993  0.3691 -1.4121
13032TIP3    H260512   1.914   6.221   0.707 -0.8096  0.1735  0.1379
13033TIP3   OH260513   3.637   2.108   4.127  0.8495 -0.4747  0.0104
13033TIP3    H160514   3.696   2.051   4.078 -0.8594 -0.0581 -2.7940
13033TIP3    H260515   3.550   2.092   4.088 -0.0474  2.4056  0.5794
13034TIP3   OH260516   6.249   1.842  15.725  0.1175 -0.1717  0.1904
13034TIP3    H160517   6.188   1.867  15.795  0.4611  0.7133  0.1863
13034TIP3    H260518   6.212   1.761  15.689 -2.3082  1.4305 -1.2601
13035TIP3   OH260519   6.540   5.307   2.296  0.0743 -0.0824  0.8711
13035TIP3    H160520   6.527   5.222   2.253 -1.6739 -0.5945  2.2676
13035TIP3    H260521   6.578   5.285   2.381  1.5043  0.7299  0.4592
13036TIP3   OH260522   3.369   5.896  15.164  0.1497 -0.3009  0.4659
13036TIP3    H160523   3.436   5.827  15.172  0.3175  0.0241  2.6970
13036TIP3    H260524   3.294   5.860  15.211 -1.0863 -0.3983 -1.4802
13037TIP3   OH260525   5.259   4.301  13.583 -0.0774 -0.7723  0.1136
13037TIP3    H160526   5.279   4.208  13.569 -2.0881 -1.2125 -0.1875
13037TIP3    H260527   5.164   4.303  13.597  0.0362  1.1626  0.9142
13038TIP3   OH260528   2.172   6.770  14.940 -0.6898 -0.2396  0.1339
13038TIP3    H160529   2.252   6.811  14.973  0.6637 -1.1769 -1.7518
13038TIP3    H260530   2.140   6.831  14.873 -0.6036 -0.6271 -0.2676
13039TIP3   OH260531   0.800   4.791  16.205 -0.4123  0.1715 -0.0241
13039TIP3    H160532   0.886   4.825  16.178 -0.9610 -0.3271 -2.6846
13039TIP3    H260533   0.820   4.728  16.274  1.5955 -1.1202 -1.6350
13040TIP3   OH260534   4.164   2.928   1.037  0.1408 -0.1100 -0.3053
13040TIP3    H160535   4.115   2.993   0.986 -0.9022 -1.0794 -0.5797
13040TIP3    H260536   4.252   2.931   1.000 -0.1618  0.4021 -1.0304
13041TIP3   OH260537   5.419   3.660  13.928 -0.2003 -0.3093 -0.0463
13041TIP3    H160538   5.467   3.618  13.857 -0.9479 -2.7704  0.8067
13041TIP3    H260539   5.366   3.727  13.885  1.7187  0.4331 -1.3614
13042TIP3   OH260540   0.110   0.072   0.257  0.8412 -0.4797 -0.2596
13042TIP3    H160541   0.089  -0.018   0.232  2.5702 -0.8443 -0.5130
13042TIP3    H260542   0.126   0.117   0.173  2.2908 -0.5569 -0.0354
13043TIP3   OH260543   3.027   5.584   6.740  0.0398  0.3669 -0.0689
13043TIP3    H160544   2.991   5.639   6.670  0.6485  0.1384 -0.5673
13043TIP3    H260545   3.022   5.495   6.706  1.0618  0.3258 -0.1495
13044TIP3   OH260546   3.930   1.549   0.294 -0.0527 -0.1422 -0.0645
13044TIP3    H160547   3.938   1.475   0.355 -0.9365 -0.8847 -0.8028
13044TIP3    H260548   3.972   1.622   0.338  1.3662 -1.2297  0.4511
13045TIP3   OH260549   1.474   6.463   1.219 -0.2679 -0.3170 -0.2175
13045TIP3    H160550   1.477   6.553   1.188  1.9951 -0.9005 -1.9899
13045TIP3    H260551   1.485   6.410   1.140 -0.1358 -2.1124  0.9458
13046TIP3   OH260552   6.395   2.155  11.190 -0.1839  0.1233 -0.3651
13046TIP3    H160553   6.407   2.231  11.133  0.8543  1.6867  1.7690
13046TIP3    H260554   6.484   2.122  11.205 -0.5890 -1.2767 -0.9073
13047TIP3   OH260555   3.291   4.072   1.799 -0.0673 -0.1946  0.5628
13047TIP3    H160556   3.331   4.101   1.880  0.2636 -0.9222  0.6637
13047TIP3    H260557   3.339   4.119   1.730 -1.1208  1.3403  0.8070
13048TIP3   OH260558   4.745   2.392  16.651 -0.1893  0.7814  0.0691
13048TIP3    H160559   4.710   2.480  16.636  1.5021  1.8612  1.9538
13048TIP3    H260560   4.765   2.360  16.563 -3.2715  1.1251 -0.8856
13049TIP3   OH260561   1.593   2.290  15.748 -0.4274  0.0175  0.1673
13049TIP3    H160562   1.631   2.290  15.836 -0.5857  1.3332  0.2596
13049TIP3    H260563   1.548   2.374  15.742  1.6798  1.1178 -2.0321
13050TIP3   OH260564   5.255   2.757   2.839  0.0004  0.1403  0.1647
13050TIP3    H160565   5.271   2.850   2.828 -0.2112  0.4524  2.0590
13050TIP3    H260566   5.337   2.715   2.813  0.5939  0.9722  0.6612
13051TIP3   OH260567   0.816   6.617   0.014  0.1435  0.0649 -0.0009
13051TIP3    H160568   0.725   6.590  -0.002  0.3655 -0.9619  0.4012
13051TIP3    H260569   0.860   6.606  -0.070  0.5416 -2.1800  0.4338
13052TIP3   OH260570   6.385   3.001  11.236 -0.2190 -0.2713  0.1343
13052TIP3    H160571   6.310   3.011  11.294 -0.2339 -0.6455  0.1816
13052TIP3    H260572   6.461   3.002  11.294 -0.0531  1.7336 -0.0373
13053TIP3   OH260573   3.435   0.860   4.234 -0.0287 -0.0324 -0.3291
13053TIP3    H160574   3.378   0.904   4.296 -0.4885 -0.6478 -0.3071
13053TIP3    H260575   3.400   0.883   4.148 -0.1263 -0.1575 -0.3238
13054TIP3   OH260576   3.240   5.867   3.740  0.2396 -0.1248  0.2193
13054TIP3    H160577   3.199   5.950   3.763  1.5504  0.7539 -0.4514
13054TIP3    H260578   3.208   5.848   3.651 -0.6238 -0.7336  0.6463
13055TIP3   OH260579   0.001   1.184   2.982 -0.0679  0.2102 -1.0367
13055TIP3    H160580   0.060   1.235   3.037 -1.4294 -1.3600  2.1691
13055TIP3    H260581   0.058   1.139   2.920  1.5827  1.8915 -0.8445
13056TIP3   OH260582   5.892   4.285   3.061 -0.3385 -0.1000  0.1193
13056TIP3    H160583   5.977   4.323   3.081  0.5859  0.1050 -3.5178
13056TIP3    H260584   5.898   4.194   3.092  0.9206  0.1177  0.5448
13057TIP3   OH260585   4.448   1.288   4.815  0.1032 -0.0299 -0.1094
13057TIP3    H160586   4.420   1.277   4.724 -2.1157  0.1219  0.4980
13057TIP3    H260587   4.434   1.381   4.834 -0.8620 -0.3449  0.7975
13058TIP3   OH260588   6.661   5.100   1.712  0.5914  0.7993  0.2519
13058TIP3    H160589   6.589   5.143   1.758 -1.6294 -0.5264 -1.7609
13058TIP3    H260590   6.706   5.049   1.779 -1.4806  0.2132  1.2665
13059TIP3   OH260591   1.278   3.979  11.725 -0.5478 -0.1199 -0.2427
13059TIP3    H160592   1.270   3.922  11.649 -2.5720 -0.5529  0.2444
13059TIP3    H260593   1.202   4.038  11.720 -1.8933 -1.4304  2.4001
13060TIP3   OH260594   5.072   0.780   5.514  0.3529 -0.4679  0.2928
13060TIP3    H160595   5.064   0.750   5.605  1.7939 -0.1048  0.5617
13060TIP3    H260596   5.002   0.734   5.468 -0.0528 -1.0896  1.4796
13061TIP3   OH260597   5.484   3.858  14.261 -0.4093 -0.2628 -0.4045
13061TIP3    H160598   5.472   3.765  14.275 -1.3769 -0.1852 -0.5890
13061TIP3    H260599   5.517   3.892  14.344 -0.2933 -0.7293 -0.2617
13062TIP3   OH260600   5.157   0.188   5.985  0.1966  0.2694  0.4616
13062TIP3    H160601   5.168   0.097   6.011 -0.5117  0.1323  0.2899
13062TIP3    H260602   5.165   0.238   6.066  0.3153  0.0371  0.5931
13063TIP3   OH260603   3.285   0.423   2.321  0.0338  0.3126 -0.2399
13063TIP3    H160604   3.316   0.489   2.384  1.5383  0.1788 -0.7936
13063TIP3    H260605   3.211   0.382   2.364  0.5240  0.7789  1.1062
13064TIP3   OH260606   4.923   2.929   2.760  0.4894 -0.9355 -0.5540
13064TIP3    H160607   5.001   2.900   2.711  0.9454  0.0750 -0.4520
13064TIP3    H260608   4.889   3.002   2.709  1.1049  0.2920  0.7321
13065TIP3   OH260609   0.045   3.791  13.547 -0.0575  0.0581 -0.6542
13065TIP3    H160610   0.030   3.843  13.469  1.0977  1.3905 -0.0381
13065TIP3    H260611  -0.042   3.763  13.575 -0.6088  0.8154 -1.5730
13066TIP3   OH260612   2.828   0.317  15.582  0.4461  0.2528 -0.0746
13066TIP3    H160613   2.784   0.383  15.636  2.3657  1.1059  0.5282
13066TIP3    H260614   2.899   0.284  15.637  0.9473 -0.6394 -1.2184
13067TIP3   OH260615   3.191   1.763  11.907 -0.7786  0.0066 -0.0556
13067TIP3    H160616   3.191   1.828  11.836 -0.0224  1.0063  0.8250
13067TIP3    H260617   3.265   1.789  11.962  1.5714 -3.3872 -1.2648
13068TIP3   OH260618   1.166   6.123   0.295  0.0723  0.0908 -0.5408
13068TIP3    H160619   1.241   6.105   0.352 -0.7597  0.0791  0.5786
13068TIP3    H260620   1.206   6.151   0.212  1.3144 -0.2259 -0.0834
13069TIP3   OH260621   2.189   4.906   2.441 -0.6590 -0.2297  0.3684
13069TIP3    H160622   2.258   4.861   2.490 -0.0647  0.7572  0.4732
13069TIP3    H260623   2.143   4.837   2.394  0.5252 -0.8973  0.1501
13070TIP3   OH260624   1.790   0.715   0.081  0.1780 -0.0629 -0.2033
13070TIP3    H160625   1.857   0.752   0.023  1.9291  0.0763  1.7607
13070TIP3    H260626   1.809   0.622   0.083 -0.7667 -0.2817 -0.9069
13071TIP3   OH260627   5.528   6.272  11.605 -0.3987  0.2187 -0.5722
13071TIP3    H160628   5.473   6.263  11.528 -1.6641  1.1333  0.1958
13071TIP3    H260629   5.568   6.185  11.616 -0.3230  0.0328 -2.1308
13072TIP3   OH260630   4.811   6.557  10.715 -0.0780 -0.0004  0.1713
13072TIP3    H160631   4.766   6.641  10.714  0.0947  0.1266  1.3407
13072TIP3    H260632   4.898   6.577  10.749 -0.2910 -0.7475  1.2036
13073TIP3   OH260633   6.610   1.095  16.617 -0.1300 -0.4437 -0.3710
13073TIP3    H160634   6.554   1.166  16.648 -0.1486 -0.8768  0.5894
13073TIP3    H260635   6.564   1.059  16.541 -0.2391  0.4003 -0.7208
13074TIP3   OH260636   6.164   1.541   3.647 -0.1236 -0.6000  0.8107
13074TIP3    H160637   6.200   1.542   3.558 -0.1149 -1.8279  0.7821
13074TIP3    H260638   6.109   1.619   3.651  0.1289 -0.3514 -0.1701
13075TIP3   OH260639   5.004   5.427   1.246  0.0648  0.0591  0.1109
13075TIP3    H160640   4.937   5.365   1.276 -1.3659  1.5884  0.1562
13075TIP3    H260641   4.986   5.507   1.295  2.3159  0.3545  0.5620
13076TIP3   OH260642   0.578   4.109   6.639  0.4239 -0.6696 -0.1930
13076TIP3    H160643   0.628   4.028   6.643  1.5053  0.0305  1.3814
13076TIP3    H260644   0.598   4.146   6.553  2.2288 -0.6764  0.1970
13077TIP3   OH260645   2.284   0.632  16.565 -0.3680  0.4509  0.0816
13077TIP3    H160646   2.289   0.721  16.529  0.5947  0.6701  0.7151
13077TIP3    H260647   2.372   0.615  16.599 -1.1567  0.1489  2.0982
13078TIP3   OH260648   2.621   1.422  15.175 -0.1118  0.1831 -0.1070
13078TIP3    H160649   2.632   1.439  15.269 -1.2324 -0.7403  0.2124
13078TIP3    H260650   2.689   1.475  15.133  1.6238 -0.7696  1.3383
13079TIP3   OH260651   4.031   3.906   5.030 -0.0316 -0.0250 -0.1821
13079TIP3    H160652   4.010   3.818   4.999  0.8342 -0.3721  0.1936
13079TIP3    H260653   3.946   3.951   5.034 -0.8784 -1.6568  2.1857
13080TIP3   OH260654   4.076   2.661  13.209 -0.3920  0.3182 -0.4775
13080TIP3    H160655   4.111   2.693  13.292  0.9315 -1.7570 -0.1671
13080TIP3    H260656   4.133   2.699  13.142 -0.5899  0.8671 -0.3356
13081TIP3   OH260657   0.851   0.093   0.108  0.2654 -0.2634  0.1470
13081TIP3    H160658   0.933   0.113   0.063 -0.5235 -2.3416 -2.4595
13081TIP3    H260659   0.845  -0.002   0.106 -2.2007 -0.1721  0.2585
13082TIP3   OH260660   2.942   5.636   2.461 -0.2618 -0.5245 -0.8029
13082TIP3    H160661   2.889   5.576   2.513  0.5522 -0.7332 -0.2048
13082TIP3    H260662   3.023   5.648   2.511 -0.1124  0.5054 -1.2625
13083TIP3   OH260663   0.448   2.753   4.855 -0.1443  0.0977 -0.0687
13083TIP3    H160664   0.513   2.810   4.813  1.2372 -0.4337  1.2534
13083TIP3    H260665   0.405   2.810   4.919  0.5534 -0.0609  0.5626
13084TIP3   OH260666   4.850   5.792  14.475 -0.3709  0.2840  0.4006
13084TIP3    H160667   4.911   5.725  14.444 -1.1013 -0.2915  0.1675
13084TIP3    H260668   4.880   5.873  14.434 -0.6567 -0.2621 -0.9282
13085TIP3   OH260669   0.966   2.256  12.642  0.3411  0.6585 -0.0342
13085TIP3    H160670   0.946   2.348  12.657  1.3748  1.3268 -2.3586
13085TIP3    H260671   0.893   2.224  12.588  0.0184  0.0896  0.7082
13086TIP3   OH260672   1.879   3.857  16.381  0.2114  0.3078 -0.1965
13086TIP3    H160673   1.822   3.866  16.458 -0.3233 -1.1070 -0.3903
13086TIP3    H260674   1.821   3.872  16.306 -0.0106 -1.3024 -0.3998
13087TIP3   OH260675   1.899   4.492   5.063 -0.0175  0.1292 -0.7408
13087TIP3    H160676   1.849   4.414   5.039  0.1458 -0.5909  1.0748
13087TIP3    H260677   1.869   4.559   5.003 -1.8214 -0.7606 -0.8984
13088TIP3   OH260678   3.309   2.479   4.356 -0.0284  0.3218  0.4409
13088TIP3    H160679   3.286   2.420   4.427 -0.6424  1.0938  0.9001
13088TIP3    H260680   3.328   2.421   4.282  0.2995 -0.4749  1.1334
13089TIP3   OH260681   0.454   2.175   4.201 -0.0212 -0.0003  0.0841
13089TIP3    H160682   0.531   2.167   4.145  0.1101  1.4188  0.0410
13089TIP3    H260683   0.401   2.243   4.161 -0.5644  0.1196  0.9595
13090TIP3   OH260684   3.777   2.093   2.461  0.3727 -0.5622  0.2970
13090TIP3    H160685   3.776   2.039   2.382  1.5506  1.9111 -1.5476
13090TIP3    H260686   3.786   2.030   2.533 -1.9052 -2.9963 -1.3571
13091TIP3   OH260687   6.722   3.125   4.894  0.5015 -0.0695 -0.0910
13091TIP3    H160688   6.667   3.046   4.897 -0.8739  0.8598  1.8481
13091TIP3    H260689   6.700   3.172   4.975  1.9647  1.8527 -0.7334
13092TIP3   OH260690   4.362   0.314  12.401  0.2485  0.2146 -0.0497
13092TIP3    H160691   4.420   0.291  12.473  1.1729  0.0736 -0.8281
13092TIP3    H260692   4.417   0.311  12.323 -1.0094 -0.9006 -0.9504
13093TIP3   OH260693   5.665   0.273   0.559 -0.5682  0.1462  0.2933
13093TIP3    H160694   5.592   0.284   0.499 -1.2402 -1.1549  0.8270
13093TIP3    H260695   5.740   0.251   0.503 -0.3234  2.3700 -0.3374
13094TIP3   OH260696   0.422   3.111  11.001 -0.2087  0.4010 -0.0105
13094TIP3    H160697   0.380   3.179  11.053  1.3984  1.6313 -0.2476
13094TIP3    H260698   0.509   3.146  10.981  0.1543 -1.1324 -1.3376
13095TIP3   OH260699   4.755   1.808   3.760 -0.6588  0.1632 -0.1071
13095TIP3    H160700   4.823   1.875   3.760  0.1382 -0.5783  1.5651
13095TIP3    H260701   4.799   1.728   3.790 -1.5876 -1.1320 -1.9868
13096TIP3   OH260702   5.442   1.873  16.904 -0.2899 -0.2523 -0.1255
13096TIP3    H160703   5.388   1.942  16.942 -2.2843 -1.5172 -0.5487
13096TIP3    H260704   5.472   1.821  16.979 -0.0501  0.1638  0.0704
13097TIP3   OH260705   3.300   5.740  13.314 -0.6007 -0.2652  0.0629
13097TIP3    H160706   3.392   5.720  13.328 -0.8515 -1.3974  0.1457
13097TIP3    H260707   3.281   5.706  13.227 -1.2042 -1.0037  0.4756
13098TIP3   OH260708   2.202   0.633  10.983 -0.6085  0.1955  0.2695
13098TIP3    H160709   2.121   0.618  10.934 -0.9748 -2.7400  1.5379
13098TIP3    H260710   2.246   0.704  10.937 -2.1627 -0.6017 -2.6838
13099TIP3   OH260711   5.903   4.425  13.966 -0.0114  0.0564 -0.5593
13099TIP3    H160712   5.831   4.369  13.939 -0.2453 -0.4755  1.0729
13099TIP3    H260713   5.865   4.513  13.970 -1.0628 -0.4309  1.8159
13100TIP3   OH260714   5.826   2.574  13.200 -0.2435 -0.5267  0.3088
13100TIP3    H160715   5.741   2.536  13.223 -0.0811 -0.9090  0.2878
13100TIP3    H260716   5.810   2.623  13.120 -0.3129 -1.1183 -0.0455
13101TIP3   OH260717   5.847   1.247   2.311 -0.0974  0.3741 -0.1305
13101TIP3    H160718   5.867   1.258   2.404  0.2117  0.2351 -0.1764
13101TIP3    H260719   5.931   1.223   2.272 -0.1222  0.9309 -0.5300
13102TIP3   OH260720   5.727   3.316   2.985 -0.3734 -0.0306  0.0634
13102TIP3    H160721   5.683   3.335   3.068 -0.0607 -1.7914  0.6902
13102TIP3    H260722   5.661   3.270   2.933 -0.6184  1.2041 -0.7712
13103TIP3   OH260723   0.771   4.878   5.507  0.3476 -0.1683 -0.9631
13103TIP3    H160724   0.773   4.969   5.478 -1.6926  0.1707 -0.1620
13103TIP3    H260725   0.845   4.870   5.567 -0.5034  1.4966  0.3982
13104TIP3   OH260726   3.295   5.038  15.876 -0.0888 -0.0636 -0.3205
13104TIP3    H160727   3.212   4.994  15.896  0.0647  0.7013  2.4413
13104TIP3    H260728   3.356   4.966  15.860 -0.1226 -0.9974  2.9148
13105TIP3   OH260729   0.291   2.329  16.140  0.1602  0.0970  0.5603
13105TIP3    H160730   0.264   2.239  16.156 -0.4583  0.6766  3.3714
13105TIP3    H260731   0.385   2.322  16.121  0.1219 -1.1354  0.7097
13106TIP3   OH260732   4.266   0.715  16.085  0.4236  0.2613  0.3366
13106TIP3    H160733   4.256   0.624  16.056 -0.6528 -0.9590  3.9825
13106TIP3    H260734   4.327   0.753  16.022  0.6351 -2.8337 -1.5815
13107TIP3   OH260735   5.190   5.066   2.786  0.5736 -0.6294 -0.8209
13107TIP3    H160736   5.150   5.149   2.762 -0.8426 -0.9717  0.1762
13107TIP3    H260737   5.265   5.089   2.839 -0.2835  0.0370  0.1439
13108TIP3   OH260738   0.077   3.118  13.723  0.2172  0.5001 -0.0719
13108TIP3    H160739   0.166   3.085  13.730  0.3906  0.9631 -0.0298
13108TIP3    H260740   0.056   3.149  13.811  0.3434  1.1948 -0.2745
13109TIP3   OH260741   6.096   1.687   2.562 -0.3723 -0.5353 -0.1186
13109TIP3    H160742   6.152   1.744   2.615 -0.3758 -0.5445 -0.1053
13109TIP3    H260743   6.047   1.635   2.626 -1.5415  0.5665 -0.0995
13110TIP3   OH260744   1.033   6.194   4.692 -0.0184 -0.1960  0.5650
13110TIP3    H160745   1.030   6.099   4.701  1.8725 -0.4018 -0.3732
13110TIP3    H260746   0.960   6.216   4.634 -0.4936 -1.0519  0.8259
13111TIP3   OH260747   4.045   2.926   2.518 -0.2530  0.4826  0.1856
13111TIP3    H160748   3.974   2.916   2.582 -1.3976 -1.8381 -1.2994
13111TIP3    H260749   4.089   3.007   2.544 -2.0220  0.8170  2.5368
13112TIP3   OH260750   2.095   3.290  16.788 -0.1781 -0.5522  0.0472
13112TIP3    H160751   2.164   3.323  16.730 -0.1440 -1.2256 -0.3098
13112TIP3    H260752   2.127   3.204  16.817  0.1341  0.0863  1.6667
13113TIP3   OH260753   1.366   6.010  16.403  0.3631 -0.1134 -0.1100
13113TIP3    H160754   1.282   6.044  16.375  0.2235 -0.0727  0.3431
13113TIP3    H260755   1.425   6.086  16.400  0.1875  0.0430  0.3564
13114TIP3   OH260756   2.876   3.672   5.152  0.0601 -0.5143 -0.2469
13114TIP3    H160757   2.860   3.676   5.246  2.7658  2.1048  0.2727
13114TIP3    H260758   2.823   3.743   5.115  0.7939  0.0266 -0.2966
13115TIP3   OH260759   6.688   0.791   2.828  0.8627  0.2995 -0.3703
13115TIP3    H160760   6.666   0.834   2.910 -0.3702  0.9151 -0.9985
13115TIP3    H260761   6.764   0.737   2.849  0.9292  0.8921  1.0241
13116TIP3   OH260762   5.177   2.932   6.538  0.2276  0.3530 -0.1998
13116TIP3    H160763   5.148   2.843   6.560  1.5111  0.1771  0.8880
13116TIP3    H260764   5.144   2.946   6.449 -0.2367 -1.0942 -0.2931
13117TIP3   OH260765   0.426   5.678   1.684  0.4653 -0.2370  0.1466
13117TIP3    H160766   0.355   5.672   1.620 -1.2690 -4.0939  2.1318
13117TIP3    H260767   0.387   5.723   1.759  0.4940 -1.1571  0.7299
13118TIP3   OH260768   5.218   1.942  15.268  0.1993  0.3934 -0.6076
13118TIP3    H160769   5.306   1.935  15.232  1.1458 -1.2156  1.8281
13118TIP3    H260770   5.220   2.021  15.322  0.4840 -0.2031  0.2657
13119TIP3   OH260771   4.879   3.413  15.376 -0.1184  0.1617  0.4278
13119TIP3    H160772   4.958   3.394  15.426  0.3485  2.4930  0.7173
13119TIP3    H260773   4.894   3.372  15.291  0.9351 -0.3256  0.8376
13120TIP3   OH260774   2.078   6.601  15.745  0.0352 -0.3339  0.1600
13120TIP3    H160775   2.001   6.657  15.753  0.6301  0.6021 -0.4729
13120TIP3    H260776   2.054   6.537  15.678  0.2543  0.7626 -1.0017
13121TIP3   OH260777   1.286   3.620  12.964 -0.6883 -0.0096 -0.0695
13121TIP3    H160778   1.374   3.618  12.928  1.3433  2.7455  3.9207
13121TIP3    H260779   1.285   3.550  13.030 -1.5987 -0.2061 -0.2791
13122TIP3   OH260780   0.139   4.836   4.954  0.5127 -0.0589  0.7256
13122TIP3    H160781   0.145   4.850   4.859 -1.2530 -0.7888  0.4737
13122TIP3    H260782   0.056   4.878   4.979  0.1285 -1.3123  1.6436
13123TIP3   OH260783   6.701   5.979   0.802 -0.7336  0.2669 -0.4210
13123TIP3    H160784   6.726   6.000   0.892 -0.5013  0.2029 -0.4695
13123TIP3    H260785   6.784   5.957   0.759 -1.0467 -1.4841 -0.1822
13124TIP3   OH260786   3.191   5.978   1.625  0.3152  0.4471 -0.5309
13124TIP3    H160787   3.126   5.913   1.652 -0.2172  1.5371  0.9234
13124TIP3    H260788   3.171   5.995   1.533 -0.7784 -0.0221 -0.3964
13125TIP3   OH260789   1.869   2.519   2.641 -0.6969 -0.2638 -0.3075
13125TIP3    H160790   1.870   2.501   2.546 -1.3950  0.8361 -0.5425
13125TIP3    H260791   1.961   2.530   2.664 -0.6068  1.0567 -1.1998
13126TIP3   OH260792   6.030   0.408  12.798 -0.0183 -0.6001 -0.5407
13126TIP3    H160793   5.941   0.378  12.815 -0.3541  0.0797 -1.0485
13126TIP3    H260794   6.041   0.483  12.855 -0.5113  0.5769 -1.9376
13127TIP3   OH260795   5.795   4.384  12.717  0.0059 -0.2540  0.1011
13127TIP3    H160796   5.780   4.372  12.811 -0.8539  1.4597  0.2299
13127TIP3    H260797   5.744   4.314  12.676 -0.4426 -0.4088  0.8807
13128TIP3   OH260798   0.411   6.340  14.898  0.6617 -0.1560 -0.3803
13128TIP3    H160799   0.385   6.261  14.852 -1.3237  0.8579 -1.1352
13128TIP3    H260800   0.382   6.326  14.988  2.6182 -1.2641  0.1341
13129TIP3   OH260801   4.203   2.813  13.023 -0.2180  0.6105 -0.0755
13129TIP3    H160802   4.209   2.879  12.954  1.4423  0.8168  0.2112
13129TIP3    H260803   4.279   2.831  13.079 -1.3183  0.2133  1.6013
13130TIP3   OH260804   3.114   0.079  10.112  0.1045  0.4172  0.2614
13130TIP3    H160805   3.019   0.072  10.119  0.2056 -1.0228  0.4959
13130TIP3    H260806   3.136   0.161  10.157 -0.9484  0.3069  0.9986
13131TIP3   OH260807   5.866   2.768  14.492  0.4224 -0.8587 -0.5678
13131TIP3    H160808   5.798   2.705  14.470  0.2825 -0.8638 -0.1254
13131TIP3    H260809   5.864   2.832  14.421 -0.5306 -0.4662 -0.1995
13132TIP3   OH260810   0.170   6.657   1.367  0.1276  0.0130 -0.1304
13132TIP3    H160811   0.144   6.738   1.411 -0.6942 -0.6646  0.6541
13132TIP3    H260812   0.175   6.681   1.274  2.3256  1.5802  0.3099
13133TIP3   OH260813   5.772   1.280  16.348  0.2301 -0.0174 -0.0712
13133TIP3    H160814   5.867   1.279  16.364  0.2606 -0.7055 -0.2456
13133TIP3    H260815   5.765   1.267  16.253 -0.0460 -0.4329  0.0065
13134TIP3   OH260816   6.545   1.286   1.292  0.2028  0.5461 -0.4886
13134TIP3    H160817   6.530   1.222   1.222  3.0615  0.0409 -0.7879
13134TIP3    H260818   6.633   1.265   1.324  0.7267  3.5219  0.3098
13135TIP3   OH260819   2.362   2.651  14.665  0.1286 -0.0199  0.0936
13135TIP3    H160820   2.320   2.712  14.725  0.1799 -0.4246  0.5487
13135TIP3    H260821   2.437   2.617  14.714 -0.5577 -1.3111  0.2967
13136TIP3   OH260822   1.606   3.399  15.549 -0.1815 -0.0136 -0.2904
13136TIP3    H160823   1.644   3.336  15.487 -0.2031  0.8693 -1.2275
13136TIP3    H260824   1.639   3.484  15.519 -2.0177  0.6672 -0.4532
13137TIP3   OH260825   1.151   2.245   1.524 -0.2694 -0.2874  0.4053
13137TIP3    H160826   1.150   2.290   1.440 -1.9874  0.5477  0.8371
13137TIP3    H260827   1.226   2.187   1.518  0.3391  0.5849 -1.2589
13138TIP3   OH260828   4.238   4.136   0.755  0.1382  0.0514 -0.5197
13138TIP3    H160829   4.195   4.124   0.840 -0.5961 -0.3587 -0.9488
13138TIP3    H260830   4.301   4.064   0.750 -0.3019 -0.3309 -0.6191
13139TIP3   OH260831   6.164   3.534  13.594  0.2116  0.2136  0.7250
13139TIP3    H160832   6.176   3.624  13.624  0.8296  0.6516 -0.7891
13139TIP3    H260833   6.106   3.495  13.660 -0.2109  1.7561  1.3113
13140TIP3   OH260834   5.608   2.187  10.857 -0.3749 -0.2403 -0.0576
13140TIP3    H160835   5.612   2.107  10.910 -1.4137 -0.7475 -0.7093
13140TIP3    H260836   5.515   2.207  10.850 -0.0864  1.5090  0.7543
13141TIP3   OH260837   4.183   0.902   4.242 -0.1046  0.1581 -0.0894
13141TIP3    H160838   4.240   0.979   4.250  0.3934 -0.2098 -0.0742
13141TIP3    H260839   4.126   0.907   4.319  0.1643  0.3170  0.1022
13142TIP3   OH260840   4.589   2.697  10.844  0.4404 -0.2781  0.0665
13142TIP3    H160841   4.505   2.669  10.807  0.9218 -2.2128  0.3436
13142TIP3    H260842   4.629   2.616  10.877  3.1622  0.3088 -1.5491
13143TIP3   OH260843   5.070   4.516   5.261  0.7927 -0.4456  0.2346
13143TIP3    H160844   5.101   4.604   5.283 -1.3554  0.3710  0.2493
13143TIP3    H260845   5.074   4.468   5.344 -1.6623  0.8528  1.2249
13144TIP3   OH260846   2.434   4.466  12.502 -0.4364 -0.2321  0.1614
13144TIP3    H160847   2.461   4.416  12.425 -1.8668  1.8432 -1.8265
13144TIP3    H260848   2.339   4.471  12.496 -0.4474  1.5615  0.9607
13145TIP3   OH260849   0.609   3.516   0.533 -0.4619  0.2651 -0.5382
13145TIP3    H160850   0.567   3.433   0.509 -1.0833  0.0441  1.1556
13145TIP3    H260851   0.536   3.578   0.540 -0.0810  0.7828 -1.0615
13146TIP3   OH260852   6.664   1.885  13.866 -0.5420 -0.1299  0.2093
13146TIP3    H160853   6.578   1.877  13.825 -1.4507 -1.0383  2.1216
13146TIP3    H260854   6.665   1.973  13.903 -0.2508  0.2243 -0.6369
13147TIP3   OH260855   0.536   1.939   2.134  0.1923  0.3560 -0.7359
13147TIP3    H160856   0.627   1.969   2.132  0.2196  0.6233  1.4513
13147TIP3    H260857   0.484   2.018   2.120  0.2838  0.3878 -0.8999
13148TIP3   OH260858   0.087   1.168  16.547 -0.0623  0.4779  0.2656
13148TIP3    H160859   0.110   1.176  16.455  0.7391 -1.2685  0.2808
13148TIP3    H260860  -0.007   1.146  16.546 -0.0309  0.3575 -0.1338
13149TIP3   OH260861   4.178   5.675   6.273 -0.2813  0.4311 -0.2449
13149TIP3    H160862   4.227   5.594   6.256  0.6328  1.0572 -0.6482
13149TIP3    H260863   4.190   5.690   6.367 -1.7474 -0.7156  0.1537
13150TIP3   OH260864   0.813   3.798  10.695 -0.2071  0.5384  0.0837
13150TIP3    H160865   0.839   3.855  10.622 -0.8654 -1.1954 -1.5958
13150TIP3    H260866   0.735   3.840  10.731 -0.6772  0.7396 -1.1142
13151TIP3   OH260867   1.661   4.533  15.944  0.0065  0.0708  0.1204
13151TIP3    H160868   1.646   4.623  15.972  0.6124  0.6917 -1.4819
13151TIP3    H260869   1.631   4.480  16.018 -1.0000  1.5469  0.8145
13152TIP3   OH260870   0.657   5.291   1.389 -0.1893 -0.1903 -0.1030
13152TIP3    H160871   0.589   5.353   1.362 -0.7384  0.1023  1.7685
13152TIP3    H260872   0.680   5.244   1.309 -0.1794  1.9934 -1.4565
13153TIP3   OH260873   4.022   5.083  16.005  0.0838 -0.0806 -0.0576
13153TIP3    H160874   3.929   5.063  16.010  0.6446 -2.7582  1.7664
13153TIP3    H260875   4.053   5.035  15.928  0.2066 -0.3675  0.1711
13154TIP3   OH260876   5.830   1.824  16.098 -0.8384  0.7744 -0.0227
13154TIP3    H160877   5.839   1.753  16.163 -1.8308  0.2444 -0.4337
13154TIP3    H260878   5.789   1.895  16.147 -0.8281  0.6725  0.1388
13155TIP3   OH260879   3.862   1.500  14.102  0.2428 -0.2028 -0.4221
13155TIP3    H160880   3.955   1.513  14.124  0.3283 -0.4508 -0.6387
13155TIP3    H260881   3.845   1.564  14.033  0.8006 -1.5296 -1.8574
13156TIP3   OH260882   0.513   2.407   1.248 -0.8024  0.6863  0.0549
13156TIP3    H160883   0.560   2.453   1.318 -0.4337  1.0815 -0.4382
13156TIP3    H260884   0.537   2.315   1.259  0.1960  0.8878 -0.2459
13157TIP3   OH260885   1.839   3.408  13.062  0.6047 -0.0826 -0.4809
13157TIP3    H160886   1.777   3.384  12.992 -0.5542  0.8049  0.2009
13157TIP3    H260887   1.828   3.503  13.072  2.0763  0.0887 -0.3082
13158TIP3   OH260888   1.440   4.124   4.913  0.5474  0.1376 -0.0117
13158TIP3    H160889   1.525   4.105   4.954  0.9510 -0.2514 -1.0138
13158TIP3    H260890   1.416   4.043   4.868 -0.4047  0.2208  0.3324
13159TIP3   OH260891   5.633   5.700   1.990 -0.1000  0.8196 -0.4778
13159TIP3    H160892   5.601   5.771   2.045 -0.0184  0.7629 -0.3586
13159TIP3    H260893   5.599   5.721   1.903 -0.9103  0.4755 -0.2525
13160TIP3   OH260894   2.820   1.931  14.446 -0.5407 -0.6273 -0.1523
13160TIP3    H160895   2.772   1.958  14.524  0.9531 -2.3168  1.4457
13160TIP3    H260896   2.886   1.998  14.433 -0.9431 -0.2195 -0.1198
13161TIP3   OH260897   1.962   6.700  13.626  0.5038  0.3634 -0.1065
13161TIP3    H160898   1.948   6.794  13.613  0.3343  0.4258  0.5017
13161TIP3    H260899   1.880   6.660  13.599  0.0782  0.5095  0.9217
13162TIP3   OH260900   4.457   3.214   1.220  0.0268 -0.1196 -0.1972
13162TIP3    H160901   4.508   3.171   1.151  0.5116  1.7067 -1.0508
13162TIP3    H260902   4.482   3.306   1.214  0.0899  0.1212  2.4563
13163TIP3   OH260903   6.171   5.920  12.800  0.0710 -0.5115 -0.4399
13163TIP3    H160904   6.212   5.985  12.743  0.8594 -1.0780 -0.5250
13163TIP3    H260905   6.153   5.967  12.881 -0.2416  0.0599 -0.8279
13164TIP3   OH260906   5.003   6.327   4.846 -0.9661  0.4499 -0.4258
13164TIP3    H160907   4.971   6.371   4.925 -1.4807 -1.0011  0.2171
13164TIP3    H260908   4.926   6.322   4.789 -1.0190  0.0407 -0.3231
13165TIP3   OH260909   6.036   5.928   0.314  0.1416 -0.3517 -0.6147
13165TIP3    H160910   6.035   5.938   0.409  1.0664 -1.6240 -0.4401
13165TIP3    H260911   6.085   6.004   0.282 -2.8258  1.8044 -0.3928
13166TIP3   OH260912   2.289   6.379   2.131 -0.2389 -0.1660 -0.2405
13166TIP3    H160913   2.333   6.456   2.095 -1.7898  0.6576 -0.4585
13166TIP3    H260914   2.353   6.340   2.191  0.9970  0.6049 -1.0286
13167TIP3   OH260915   0.010   4.966   1.350  0.5226  0.3323  0.1474
13167TIP3    H160916   0.015   5.060   1.332  0.2337  0.4525  0.6807
13167TIP3    H260917  -0.024   4.928   1.268  0.6801  0.6845 -0.0841
13168TIP3   OH260918   3.696   1.105  10.818  0.3320  0.3783 -0.1645
13168TIP3    H160919   3.772   1.114  10.762  0.7148  0.1699  0.3123
13168TIP3    H260920   3.650   1.189  10.811  0.1226  0.1862 -1.1444
13169TIP3   OH260921   4.670   3.739   3.982  0.1510 -0.0214  0.7988
13169TIP3    H160922   4.690   3.678   4.052 -0.7595  1.0615  2.0430
13169TIP3    H260923   4.701   3.696   3.902  1.1287 -1.3052  1.8473
13170TIP3   OH260924   4.035   4.785  12.728 -0.2377  0.3935  0.2427
13170TIP3    H160925   3.945   4.797  12.758  0.0670  0.2846  1.2378
13170TIP3    H260926   4.076   4.871  12.738 -0.2744  0.4819 -0.3590
13171TIP3   OH260927   6.502   2.583   2.277  0.1327 -0.2407  0.4785
13171TIP3    H160928   6.470   2.661   2.322  0.7602  1.5331 -1.9363
13171TIP3    H260929   6.424   2.545   2.237 -0.0981 -0.5449  1.2134
13172TIP3   OH260930   5.055   6.721  12.708  0.2986 -0.1539  0.1349
13172TIP3    H160931   5.014   6.644  12.669 -1.4108 -0.4976  2.4277
13172TIP3    H260932   5.149   6.703  12.702 -0.0445 -2.8287  1.2529
13173TIP3   OH260933   3.081   2.085   2.471  0.7845 -0.3169  0.4909
13173TIP3    H160934   2.997   2.047   2.448  0.9519 -0.4920  0.1556
13173TIP3    H260935   3.142   2.011   2.472  1.1829 -0.0207 -0.5122
13174TIP3   OH260936   6.413   6.336   1.993 -0.1879  0.6420  0.0401
13174TIP3    H160937   6.432   6.389   2.070 -0.6323 -1.0315  1.3554
13174TIP3    H260938   6.499   6.304   1.965 -0.1394  0.3115  0.5531
13175TIP3   OH260939   0.861   6.008  14.314 -0.3549  0.1072  0.6440
13175TIP3    H160940   0.861   5.934  14.375 -1.2048  0.9094  1.6481
13175TIP3    H260941   0.835   5.969  14.230  0.6859 -0.9784  0.8027
13176TIP3   OH260942   0.427   4.860   2.331  0.4306 -0.3940  0.6405
13176TIP3    H160943   0.498   4.852   2.266 -0.0733 -0.7790  0.1294
13176TIP3    H260944   0.438   4.784   2.388  2.1315  0.9962  2.3066
13177TIP3   OH260945   2.723   5.832  12.443  0.0847 -0.0911 -0.2255
13177TIP3    H160946   2.661   5.872  12.382 -2.4622 -2.2735  0.7642
13177TIP3    H260947   2.728   5.894  12.516 -1.0316  0.0843 -0.2797
13178TIP3   OH260948   4.207   0.902   1.202  0.7899  0.2693  0.3980
13178TIP3    H160949   4.202   0.998   1.205  3.3197  0.5345 -0.9305
13178TIP3    H260950   4.244   0.882   1.116  4.2223 -1.5508  2.0645
13179TIP3   OH260951   1.339   6.747   2.404  0.2131  0.0727  0.5159
13179TIP3    H160952   1.387   6.830   2.408  0.7946 -0.3033  2.0101
13179TIP3    H260953   1.391   6.693   2.344  0.9534  0.1196  1.0939
13180TIP3   OH260954   1.090   0.024   1.835  0.5075  0.3015 -0.2459
13180TIP3    H160955   1.172   0.072   1.840  1.5885 -1.4877  0.2707
13180TIP3    H260956   1.067   0.005   1.926  0.3330 -0.4974 -0.4486
13181TIP3   OH260957   1.122   4.734   3.946 -0.4978 -0.1755  0.2326
13181TIP3    H160958   1.199   4.691   3.909 -0.2547  0.9326 -0.6245
13181TIP3    H260959   1.107   4.809   3.889 -1.8034  0.0252  0.8016
13182TIP3   OH260960   5.100   0.246  11.593 -0.1701 -0.2527 -0.3162
13182TIP3    H160961   5.046   0.320  11.623 -0.1126 -0.0061 -0.8258
13182TIP3    H260962   5.161   0.231  11.665  1.2720  1.6052 -1.0685
13183TIP3   OH260963   0.211   1.446  15.369  0.5129 -0.2660 -0.0231
13183TIP3    H160964   0.222   1.512  15.300  0.7071 -0.4285 -0.1483
13183TIP3    H260965   0.239   1.490  15.449  2.0576 -0.6534 -0.3220
13184TIP3   OH260966   1.705   3.742  11.380 -0.1111  0.2408  0.4666
13184TIP3    H160967   1.766   3.812  11.357  0.8504 -0.0347  2.0635
13184TIP3    H260968   1.692   3.694  11.298  0.9818  0.9484 -0.1408
13185TIP3   OH260969   6.610   5.084  13.700  0.3719 -0.3272 -0.1488
13185TIP3    H160970   6.613   5.030  13.779 -1.3862 -1.4395 -0.7792
13185TIP3    H260971   6.525   5.063  13.660 -0.4487  2.9811 -0.4083
13186TIP3   OH260972   2.547   0.442  12.784 -0.2924 -0.0820  0.2163
13186TIP3    H160973   2.560   0.419  12.692 -2.0854 -0.1018 -0.0649
13186TIP3    H260974   2.556   0.360  12.831 -0.6287 -0.2995 -0.0945
13187TIP3   OH260975   4.779   5.771   5.152  0.6442  0.0509  0.8411
13187TIP3    H160976   4.832   5.697   5.121  0.4413  0.5341 -0.7664
13187TIP3    H260977   4.787   5.768   5.247  1.1226 -1.6801  0.7823
13188TIP3   OH260978   5.736   3.411  14.427  0.2655 -0.1274 -0.1082
13188TIP3    H160979   5.796   3.364  14.486  2.2663  0.8693 -1.2348
13188TIP3    H260980   5.652   3.367  14.438  1.4859 -2.4368  0.6231
13189TIP3   OH260981   3.147   3.090   2.678 -0.1847 -0.1335  0.0546
13189TIP3    H160982   3.104   3.012   2.713 -0.7573  0.3363  0.4350
13189TIP3    H260983   3.118   3.094   2.587 -1.1630  0.2969  0.3639
13190TIP3   OH260984   2.344   5.751   3.807 -0.3411  0.4876  0.2314
13190TIP3    H160985   2.325   5.657   3.814 -0.7763  0.6262  1.0797
13190TIP3    H260986   2.421   5.764   3.862 -0.5840  0.7128  0.5179
13191TIP3   OH260987   2.141   3.366  15.910 -0.3024  1.0549  0.1734
13191TIP3    H160988   2.206   3.408  15.853 -1.3716  1.3843 -0.8564
13191TIP3    H260989   2.188   3.346  15.990  0.6816  2.7344  0.0623
13192TIP3   OH260990   6.368   5.630  15.953  0.1231  0.4555 -0.4530
13192TIP3    H160991   6.358   5.722  15.930 -0.5049  0.4093 -0.3896
13192TIP3    H260992   6.358   5.628  16.048  3.0457  0.6909 -0.0724
13193TIP3   OH260993   2.593   0.193   0.370 -0.3177 -0.0802  0.5715
13193TIP3    H160994   2.545   0.243   0.436  0.0885 -2.0600  2.4853
13193TIP3    H260995   2.647   0.131   0.420 -0.1101 -1.8238 -1.6024
13194TIP3   OH260996   2.611   5.086   5.431 -0.3455 -0.3043  0.1364
13194TIP3    H160997   2.589   5.085   5.338  3.1701  0.6791 -0.8877
13194TIP3    H260998   2.585   5.173   5.461  1.4820  0.6962 -0.9301
13195TIP3   OH260999   3.034   6.105   0.989 -0.3941 -0.1130  0.6596
13195TIP3    H161000   3.017   6.034   0.927 -0.4945 -0.6586  1.3013
13195TIP3    H261001   3.105   6.156   0.950  0.9236 -1.6065  1.0287
13196TIP3   OH261002   4.851   1.925   4.457 -0.3931  0.0295 -0.1551
13196TIP3    H161003   4.839   1.909   4.363  0.7092  1.4376 -0.5780
13196TIP3    H261004   4.768   1.964   4.485 -0.5594  0.0597 -0.6678
13197TIP3   OH261005   1.715   5.820  16.540  0.0344  0.3188  0.2914
13197TIP3    H161006   1.637   5.803  16.593 -1.3320  0.4557 -1.6146
13197TIP3    H261007   1.751   5.901  16.577  0.1736 -0.5282  2.1364
13198TIP3   OH261008   3.979   0.891  12.234 -0.4168 -0.0162  0.5747
13198TIP3    H161009   3.952   0.840  12.157 -1.0552  0.3199  0.5663
13198TIP3    H261010   4.074   0.899  12.225 -0.5537  0.6081 -0.5620
13199TIP3   OH261011   6.760   3.594   0.950 -0.2586 -0.1470  0.7532
13199TIP3    H161012   6.760   3.511   0.999 -0.2945 -0.5653  0.0526
13199TIP3    H261013   6.852   3.608   0.927 -0.1492  0.3805  1.4822
13200TIP3   OH261014   0.141   1.369   0.275  0.2137  0.3898  0.3959
13200TIP3    H161015   0.126   1.346   0.366 -1.3471  0.3813  0.1717
13200TIP3    H261016   0.235   1.360   0.263  0.2239 -1.5581  1.4803
13201TIP3   OH261017   0.314   5.402  10.836 -0.0771 -0.1177 -0.0011
13201TIP3    H161018   0.248   5.461  10.873 -1.3845 -1.0739 -0.7376
13201TIP3    H261019   0.316   5.328  10.896  0.5632  0.0265  0.1691
13202TIP3   OH261020   1.094   1.844   4.849  0.2805 -0.0125  0.3547
13202TIP3    H161021   1.004   1.864   4.876  0.0762  1.0783 -0.9714
13202TIP3    H261022   1.139   1.928   4.855  0.9459 -0.3447  0.0666
13203TIP3   OH261023   3.844   2.741   4.556 -1.2369  0.3342 -0.6450
13203TIP3    H161024   3.904   2.721   4.628 -0.3966  1.4988 -0.9893
13203TIP3    H261025   3.762   2.698   4.580 -0.0246 -2.1179 -0.6182
13204TIP3   OH261026   4.900   1.638  16.105 -0.2689  0.1286 -0.1897
13204TIP3    H161027   4.949   1.691  16.043  0.0474 -0.1811 -0.2067
13204TIP3    H261028   4.864   1.565  16.053 -0.6988  0.3201 -0.1660
13205TIP3   OH261029   5.833   5.006   5.651 -0.6989 -0.3085  0.0362
13205TIP3    H161030   5.836   4.974   5.560 -1.2127  0.6511 -0.3368
13205TIP3    H261031   5.741   4.993   5.677 -0.8076  0.4278  0.0336
13206TIP3   OH261032   4.713   6.006  14.623 -0.2408 -0.4140  0.1808
13206TIP3    H161033   4.777   5.935  14.628  0.7692  0.3905 -0.9349
13206TIP3    H261034   4.659   5.995  14.701 -1.5277 -3.7415 -1.0059
13207TIP3   OH261035   6.281   5.293   0.421 -0.6200 -0.3118 -0.1593
13207TIP3    H161036   6.340   5.348   0.370 -0.1217 -0.3875  0.3261
13207TIP3    H261037   6.238   5.237   0.356 -0.0596 -0.3453 -0.5089
13208TIP3   OH261038   4.141   5.165   5.376  0.2362  0.2066 -0.3942
13208TIP3    H161039   4.070   5.199   5.431  1.1301 -0.7457  1.4111
13208TIP3    H261040   4.218   5.216   5.402  0.7477 -0.5113 -0.4631
13209TIP3   OH261041   2.327   1.460  15.231 -0.0232  0.4514  0.1334
13209TIP3    H161042   2.412   1.461  15.188  0.1320 -0.6597  0.3724
13209TIP3    H261043   2.266   1.428  15.165 -0.1361  0.6096  0.1603
13210TIP3   OH261044   0.221   4.800   1.423  0.1082 -0.4394  0.4384
13210TIP3    H161045   0.168   4.877   1.441  2.8395  1.9034 -0.6688
13210TIP3    H261046   0.282   4.795   1.498  0.7623 -0.7283 -0.0996
13211TIP3   OH261047   0.741   3.558  12.622  0.2630  0.7844  0.1472
13211TIP3    H161048   0.655   3.595  12.641 -1.7025 -2.1844 -2.0170
13211TIP3    H261049   0.750   3.486  12.684  0.4819  0.1931 -0.5506
13212TIP3   OH261050   1.077   0.227  14.113  0.4136 -0.1321 -0.6115
13212TIP3    H161051   0.991   0.236  14.072  1.3126 -2.3407 -3.3035
13212TIP3    H261052   1.072   0.145  14.162  0.6174  0.4219  0.3635
13213TIP3   OH261053   4.384   1.374   1.017  0.6237 -0.0376 -0.6649
13213TIP3    H161054   4.444   1.309   0.981 -0.7667 -2.3846  0.9272
13213TIP3    H261055   4.299   1.351   0.979 -0.0652  0.2329  0.6497
13214TIP3   OH261056   6.195   5.239  12.889 -0.5019  0.1191  0.5708
13214TIP3    H161057   6.251   5.316  12.891  0.7874 -0.8008  1.8559
13214TIP3    H261058   6.120   5.262  12.945 -0.4152  0.6400  0.4723
13215TIP3   OH261059   4.894   6.504  16.944 -0.2223  0.4945 -0.1553
13215TIP3    H161060   4.854   6.544  17.022  0.5578  1.2918 -0.1360
13215TIP3    H261061   4.870   6.412  16.949 -1.5323  0.8356  0.1622
13216TIP3   OH261062   3.604   2.768  13.445  0.7327  0.3129  0.5009
13216TIP3    H161063   3.510   2.761  13.464  1.0333 -0.5323  1.8536
13216TIP3    H261064   3.616   2.718  13.365  0.1735 -0.4685  0.8872
13217TIP3   OH261065   2.906   4.599  16.605  0.2446 -0.3201  0.2083
13217TIP3    H161066   2.869   4.522  16.649  0.4896  0.8282  2.6175
13217TIP3    H261067   3.000   4.594  16.624  0.9324 -1.4236 -2.9681
13218TIP3   OH261068   1.526   4.759  13.598  0.1082 -0.2210 -0.1561
13218TIP3    H161069   1.475   4.832  13.632 -0.1486 -0.7572  0.6354
13218TIP3    H261070   1.613   4.771  13.636 -0.6208 -1.7703  2.1841
13219TIP3   OH261071   2.955   5.944   0.532 -0.2990  0.0148  0.0823
13219TIP3    H161072   2.876   5.977   0.487  0.0021  0.2684 -0.2684
13219TIP3    H261073   3.003   6.023   0.558 -0.4562 -0.1314  0.8397
13220TIP3   OH261074   4.225   0.973  10.507  0.3812  0.0595  0.0033
13220TIP3    H161075   4.280   0.995  10.432 -0.8265  1.3112 -0.5655
13220TIP3    H261076   4.196   0.884  10.489 -1.1475  0.8445 -1.9042
13221TIP3   OH261077   0.878   1.772  14.237  0.1946  0.4972 -0.0859
13221TIP3    H161078   0.910   1.688  14.272  0.9160 -0.2245 -2.3230
13221TIP3    H261079   0.792   1.783  14.278  0.6365 -0.6610  1.2644
13222TIP3   OH261080   3.448   5.017  14.885  0.2638  0.3709 -0.6919
13222TIP3    H161081   3.401   4.937  14.861 -0.1503  0.7104 -1.0334
13222TIP3    H261082   3.529   5.014  14.834  1.3166 -0.9052  0.9323
13223TIP3   OH261083   6.451   0.487   0.512 -0.0994 -0.1796 -0.2291
13223TIP3    H161084   6.362   0.473   0.482 -0.9592  0.8312  1.6970
13223TIP3    H261085   6.442   0.543   0.589  2.2331  0.3731 -0.2845
13224TIP3   OH261086   5.576   5.637   3.857  0.0058  0.2351  0.1393
13224TIP3    H161087   5.537   5.564   3.904 -0.4125 -0.1414 -0.7627
13224TIP3    H261088   5.609   5.598   3.776  0.3785  0.9308 -0.0550
13225TIP3   OH261089   5.205   5.358  11.343  0.1039 -0.2396  0.6275
13225TIP3    H161090   5.217   5.442  11.299 -1.3674 -1.5601 -2.5847
13225TIP3    H261091   5.277   5.304  11.311 -0.9121 -1.1917 -0.1131
13226TIP3   OH261092   5.627   0.389   4.503  0.1902 -0.1832 -0.2407
13226TIP3    H161093   5.721   0.379   4.487  0.0692 -0.5950 -0.7150
13226TIP3    H261094   5.587   0.382   4.416 -0.2890 -0.1329 -0.0254
13227TIP3   OH261095   0.060   2.543   1.201  0.2057  0.4230 -0.5867
13227TIP3    H161096   0.088   2.631   1.226 -1.6977  0.9070  0.0470
13227TIP3    H261097   0.039   2.500   1.285 -0.4075 -0.0724 -0.9831
13228TIP3   OH261098   5.630   3.806  16.071 -0.2060  0.5387  0.3845
13228TIP3    H161099   5.567   3.777  16.137  0.8995 -0.2678  1.1303
13228TIP3    H261100   5.692   3.860  16.119 -0.0213  0.8792 -0.2246
13229TIP3   OH261101   0.360   5.711   6.349  0.2589 -0.1784  0.0823
13229TIP3    H161102   0.265   5.712   6.337 -0.3268 -1.6474  3.4264
13229TIP3    H261103   0.383   5.619   6.353  1.5721  0.1530  0.7283
13230TIP3   OH261104   4.453   5.013   3.380 -0.3119  0.1594  0.0316
13230TIP3    H161105   4.539   4.974   3.396 -1.0195 -1.1959  0.7251
13230TIP3    H261106   4.408   5.006   3.464 -1.3880  0.0934 -0.5327
13231TIP3   OH261107   0.459   1.957   0.076 -0.1361  0.8929  0.0107
13231TIP3    H161108   0.411   1.879   0.102  1.1033  0.4091  0.9272
13231TIP3    H261109   0.486   1.939  -0.014  0.5038  0.0712  0.3549
13232TIP3   OH261110   1.485   4.975  13.224 -0.0150  0.0464  0.0450
13232TIP3    H161111   1.535   4.896  13.245  2.4412  1.2718 -0.7799
13232TIP3    H261112   1.536   5.017  13.155 -0.1835  3.3002  1.7379
13233TIP3   OH261113   2.290   3.920   3.436  0.1882 -0.1279 -0.0234
13233TIP3    H161114   2.257   4.006   3.463 -1.0609 -0.4485 -0.4550
13233TIP3    H261115   2.337   3.887   3.513  0.8656  1.0238  0.0701
13234TIP3   OH261116   1.763   0.613  15.161 -0.4945  0.2139  0.7020
13234TIP3    H161117   1.764   0.675  15.234 -3.3612 -0.3791  1.3645
13234TIP3    H261118   1.675   0.576  15.162  0.1133 -1.5458 -1.6519
13235TIP3   OH261119   1.890   5.351  13.341  0.0042 -0.5093  0.2725
13235TIP3    H161120   1.894   5.295  13.418 -1.9938 -0.7055  0.2623
13235TIP3    H261121   1.838   5.427  13.367  1.3800  0.6579 -0.1792
13236TIP3   OH261122   4.031   0.125   1.474  0.1181  0.0274 -0.3026
13236TIP3    H161123   4.074   0.064   1.413  1.0064 -0.0147  0.3403
13236TIP3    H261124   3.960   0.163   1.424 -0.5497 -1.6322 -0.7018
13237TIP3   OH261125   5.858   5.399  14.748  0.0922 -0.4387 -0.2360
13237TIP3    H161126   5.770   5.408  14.711 -0.6483  0.3377  1.6370
13237TIP3    H261127   5.910   5.465  14.703 -0.3431 -0.6825 -1.1224
13238TIP3   OH261128   3.127   4.632  14.896 -0.0794 -0.1130 -0.3468
13238TIP3    H161129   3.203   4.669  14.850 -0.4445 -0.5099 -1.2769
13238TIP3    H261130   3.121   4.542  14.866 -1.4026  0.1363 -0.9195
13239TIP3   OH261131   4.267   6.384  13.852 -0.0338  0.0195 -0.0720
13239TIP3    H161132   4.216   6.345  13.923 -0.1025  0.9537  0.3935
13239TIP3    H261133   4.259   6.478  13.865  0.0625  0.2019 -1.2445
13240TIP3   OH261134   6.431   5.517   0.313 -0.3372 -0.1659  0.4198
13240TIP3    H161135   6.480   5.488   0.236  2.0039  0.5089  1.5518
13240TIP3    H261136   6.421   5.611   0.301 -2.6407 -0.4668 -0.4267
13241TIP3   OH261137   3.989   5.719  12.332  0.0560 -0.3792 -0.3026
13241TIP3    H161138   4.030   5.791  12.283  1.9075 -0.4941  0.9548
13241TIP3    H261139   3.943   5.762  12.404  2.1762 -0.4103  1.1678
13242TIP3   OH261140   5.392   6.000   0.878  0.1605  0.4398 -0.1194
13242TIP3    H161141   5.442   6.034   0.803  0.1479  0.6023 -0.0531
13242TIP3    H261142   5.443   5.924   0.908 -0.1150  0.0461 -0.6300
13243TIP3   OH261143   4.725   2.931   4.629  0.4598  0.0187 -0.2928
13243TIP3    H161144   4.708   2.895   4.717  1.4166  3.3859  1.4275
13243TIP3    H261145   4.816   2.909   4.611  0.7216  0.6497  0.2556
13244TIP3   OH261146   4.384   4.552   1.124  0.2984  0.8321  0.4029
13244TIP3    H161147   4.408   4.635   1.081  0.3575  1.0018  0.7568
13244TIP3    H261148   4.431   4.555   1.208 -0.6718  1.0094  0.9626
13245TIP3   OH261149   5.578   6.380   2.901  1.1009 -0.1239  0.6905
13245TIP3    H161150   5.502   6.432   2.927 -1.5057 -1.7111 -2.9135
13245TIP3    H261151   5.648   6.444   2.891 -1.0970  2.2932 -0.5510
13246TIP3   OH261152   3.421   1.775   4.230  0.2430  0.0849  0.0275
13246TIP3    H161153   3.462   1.688   4.239 -2.2149 -1.0624  1.1962
13246TIP3    H261154   3.407   1.785   4.136 -1.0408 -1.6629 -0.0284
13247TIP3   OH261155   0.504   4.891  17.122 -0.2481 -0.2811 -0.4294
13247TIP3    H161156   0.592   4.924  17.105  0.6944 -2.5020 -0.2148
13247TIP3    H261157   0.509   4.855  17.210 -1.9349  1.1770  0.3237
13248TIP3   OH261158   2.208   3.090   5.705 -0.0142 -0.6216 -0.2849
13248TIP3    H161159   2.238   3.064   5.792 -1.6390  0.7647  0.7431
13248TIP3    H261160   2.131   3.035   5.689 -0.2834 -0.2009 -0.4366
13249TIP3   OH261161   3.081   1.163   5.957 -0.4194 -0.2159 -0.4041
13249TIP3    H161162   3.148   1.116   5.906 -0.5663  0.4455 -1.2256
13249TIP3    H261163   3.031   1.093   6.000 -0.4644 -0.8085 -1.3844
13250TIP3   OH261164   1.390   5.123  13.952 -0.6425 -0.1910  0.0026
13250TIP3    H161165   1.350   5.207  13.931 -0.2348 -0.3079 -1.3421
13250TIP3    H261166   1.455   5.110  13.883 -0.9399 -1.7774 -0.0129
13251TIP3   OH261167   4.570   4.783   4.561  0.6410  0.0027 -0.1589
13251TIP3    H161168   4.575   4.690   4.580 -1.0344 -0.0955  0.0258
13251TIP3    H261169   4.634   4.797   4.491  0.2767 -1.4707 -0.8315
13252TIP3   OH261170   0.756   6.682   0.892  0.2881 -0.8174 -0.2736
13252TIP3    H161171   0.716   6.608   0.845  0.6432 -0.8214 -0.5801
13252TIP3    H261172   0.806   6.728   0.824  1.4862 -1.2913  0.2599
13253TIP3   OH261173   0.346   3.022  13.719 -0.0044  0.5315  0.0715
13253TIP3    H161174   0.316   2.967  13.647 -0.6002 -0.8808  1.3477
13253TIP3    H261175   0.413   2.970  13.764 -0.1823  1.0575  0.9811
13254TIP3   OH261176   6.595   6.201  14.893 -0.2941  0.3390 -0.2402
13254TIP3    H161177   6.624   6.203  14.802  0.4661 -2.9890 -0.1933
13254TIP3    H261178   6.665   6.244  14.942 -0.2569  1.2830 -1.0825
13255TIP3   OH261179   1.891   5.779   2.630 -0.0123 -0.0049 -0.2020
13255TIP3    H161180   1.859   5.689   2.635  1.3974 -0.4790  0.9309
13255TIP3    H261181   1.875   5.815   2.717  0.3487  0.5131 -0.3455
13256TIP3   OH261182   6.026   3.012   0.284  0.0729 -0.3398 -0.0036
13256TIP3    H161183   6.051   2.931   0.328 -0.2488 -0.6615 -0.4067
13256TIP3    H261184   6.066   3.082   0.336 -1.4616 -0.6200  1.6388
13257TIP3   OH261185   0.632   0.592  16.861  0.1117 -0.4239 -0.8953
13257TIP3    H161186   0.711   0.558  16.903  0.2187 -0.1612 -0.8832
13257TIP3    H261187   0.623   0.681  16.895  0.3063 -0.1429 -1.5682
13258TIP3   OH261188   5.401   5.443   4.751 -0.0762 -0.4891  0.2481
13258TIP3    H161189   5.409   5.538   4.754  2.0753 -0.6337  0.4169
13258TIP3    H261190   5.446   5.418   4.670  2.3462 -1.5711  1.8340
13259TIP3   OH261191   0.610   4.299  13.819  0.4434 -0.2974 -0.5442
13259TIP3    H161192   0.673   4.371  13.810 -0.0347  0.2301  0.2238
13259TIP3    H261193   0.660   4.221  13.797  0.8904  0.2864 -1.7176
13260TIP3   OH261194   0.363   5.248  13.852  0.1701 -0.5304  0.0698
13260TIP3    H161195   0.348   5.242  13.947  2.1556  0.6935  0.5291
13260TIP3    H261196   0.430   5.182  13.834  0.9599  0.3111 -0.1536
13261TIP3   OH261197   0.429   2.784   4.520 -0.3961  0.8583  0.3150
13261TIP3    H161198   0.496   2.823   4.576 -0.2997  1.1962 -0.0305
13261TIP3    H261199   0.383   2.722   4.577  0.3905  0.4155  0.4802
13262TIP3   OH261200   5.887   3.410   0.201  0.3207  0.1255 -0.1771
13262TIP3    H161201   5.914   3.418   0.110 -1.2033  2.1146 -0.5314
13262TIP3    H261202   5.792   3.423   0.199  0.1043 -0.8473  1.6014
13263TIP3   OH261203   5.463   3.741   2.446  0.4366 -0.0248 -0.2293
13263TIP3    H161204   5.400   3.794   2.496  0.0746  0.2157 -0.9242
13263TIP3    H261205   5.414   3.712   2.369  1.4613  1.0549 -1.3382
13264TIP3   OH261206   4.966   5.043   0.382 -0.3246  0.3175  0.0282
13264TIP3    H161207   4.942   5.061   0.473 -0.4533  0.5240 -0.0440
13264TIP3    H261208   4.953   5.127   0.337  0.7182  0.4902  0.0193
13265TIP3   OH261209   4.736   0.918   3.612 -0.3264  0.1686 -0.2597
13265TIP3    H161210   4.678   0.993   3.597  0.0085  0.9241  1.8883
13265TIP3    H261211   4.686   0.861   3.670  0.5857  0.2532  0.6403
13266TIP3   OH261212   3.235   0.662  13.712  0.1484 -0.5834 -0.1063
13266TIP3    H161213   3.282   0.579  13.717  1.2546  0.0642  0.6993
13266TIP3    H261214   3.292   0.725  13.756  0.7339  1.2734 -3.2213
13267TIP3   OH261215   1.473   4.980   3.503 -0.1346  0.1917 -0.3270
13267TIP3    H161216   1.466   5.026   3.586  0.5818 -2.0714  1.0743
13267TIP3    H261217   1.559   4.938   3.505  0.9991  2.0226 -3.3403
13268TIP3   OH261218   6.253   4.507   0.014 -0.4069 -0.3932  0.3027
13268TIP3    H161219   6.193   4.442  -0.022  0.7008 -1.7078  0.7841
13268TIP3    H261220   6.327   4.508  -0.046  0.8313 -1.6043  1.7447
13269TIP3   OH261221   0.146   4.106  13.217 -0.7566  0.2946 -0.4749
13269TIP3    H161222   0.236   4.094  13.185 -0.4994 -0.5647  0.4916
13269TIP3    H261223   0.156   4.120  13.311 -1.6456 -0.0485 -0.3201
13270TIP3   OH261224   1.502   1.198   5.796  0.1135 -0.1876  0.0646
13270TIP3    H161225   1.440   1.257   5.839  0.2098 -1.0460  1.4305
13270TIP3    H261226   1.580   1.251   5.781  0.5124 -0.1525  2.0550
13271TIP3   OH261227   2.304   3.943   5.105 -0.2989 -0.1188  0.2614
13271TIP3    H161228   2.308   3.853   5.073 -0.1955  0.6309 -1.9904
13271TIP3    H261229   2.325   3.997   5.029 -1.7445  1.8736  1.1757
13272TIP3   OH261230   5.652   1.771  11.758 -0.5266  0.1562 -0.0411
13272TIP3    H161231   5.633   1.770  11.851  1.1593 -2.3074  0.3473
13272TIP3    H261232   5.747   1.765  11.752 -0.5709  0.6011 -1.9363
13273TIP3   OH261233   1.874   4.120   0.712  0.4628 -0.0168  0.3500
13273TIP3    H161234   1.869   4.211   0.741 -0.4095  0.4201 -1.0402
13273TIP3    H261235   1.904   4.125   0.621 -0.0896 -1.0621  0.0866
13274TIP3   OH261236   1.298   3.470   3.573 -0.0342 -0.2124  0.4485
13274TIP3    H161237   1.313   3.496   3.482 -1.9024 -1.0166 -0.1342
13274TIP3    H261238   1.250   3.388   3.567 -1.5698  0.4937  2.1276
13275TIP3   OH261239   0.642   0.241   3.104  0.4772  0.9843  0.1185
13275TIP3    H161240   0.683   0.161   3.071 -3.2638 -0.7027 -0.9770
13275TIP3    H261241   0.686   0.312   3.057  1.6664 -0.6619 -1.3876
13276TIP3   OH261242   1.288   0.883   6.006 -0.0951  0.1067  0.2585
13276TIP3    H161243   1.311   0.850   6.093 -1.3473  0.7723  0.8716
13276TIP3    H261244   1.296   0.978   6.013  1.2654  0.1093 -0.8259
13277TIP3   OH261245   2.123   1.650   2.433 -0.1934  0.4546 -0.1960
13277TIP3    H161246   2.170   1.604   2.363  0.6666 -1.3974  1.4791
13277TIP3    H261247   2.159   1.613   2.513 -1.6945  1.9331  1.2258
13278TIP3   OH261248   0.606   5.090   3.952  0.0950 -0.1418 -0.4593
13278TIP3    H161249   0.626   5.016   3.895 -1.6267 -0.4602 -0.7048
13278TIP3    H261250   0.544   5.143   3.901 -1.3511 -0.3461  0.9983
13279TIP3   OH261251   0.150   4.216   3.420 -0.0812 -0.3085 -0.2744
13279TIP3    H161252   0.143   4.283   3.352  1.1567 -0.2396 -0.3518
13279TIP3    H261253   0.072   4.162   3.409 -2.3268  2.3652  1.1915
13280TIP3   OH261254   3.567   2.166  15.017  0.6860  0.2639  0.0212
13280TIP3    H161255   3.477   2.146  14.989  0.1083  0.1159  1.8145
13280TIP3    H261256   3.588   2.095  15.079  1.4010  1.1804  0.8579
13281TIP3   OH261257   5.868   6.705   4.877 -0.2903 -0.9335 -0.2188
13281TIP3    H161258   5.800   6.761   4.839  1.4680  0.2762 -1.7677
13281TIP3    H261259   5.948   6.731   4.832  1.1651 -2.5383  1.3011
13282TIP3   OH261260   5.287   1.380   3.085  0.1565 -0.0110 -0.5574
13282TIP3    H161261   5.200   1.411   3.060 -0.2092  0.7122  1.4755
13282TIP3    H261262   5.271   1.294   3.125  0.5391 -0.3827 -1.1718
13283TIP3   OH261263   0.337   0.241  13.773  0.2616  0.2822 -0.1841
13283TIP3    H161264   0.275   0.202  13.835  1.2823 -2.3714 -0.6861
13283TIP3    H261265   0.315   0.334  13.772 -2.5410 -0.2762  0.9435
13284TIP3   OH261266   4.760   0.669   1.512 -0.4894  0.4910  0.1749
13284TIP3    H161267   4.672   0.646   1.482  0.1679 -0.5545 -1.0656
13284TIP3    H261268   4.810   0.684   1.431  0.7535 -0.0686  0.8098
13285TIP3   OH261269   5.433   1.914  13.966  0.2330  0.2313 -0.9600
13285TIP3    H161270   5.471   1.894  14.052  0.1231  2.3882 -0.3599
13285TIP3    H261271   5.484   1.860  13.905 -1.2394 -3.2137  0.5751
13286TIP3   OH261272   3.113   1.024   4.773  0.2540 -0.2504  0.3910
13286TIP3    H161273   3.151   0.937   4.786  0.2142 -0.3826 -0.3694
13286TIP3    H261274   3.067   1.042   4.855  1.6749 -0.2220  1.2330
13287TIP3   OH261275   6.458   2.283   6.490  0.1145 -0.1205 -0.0754
13287TIP3    H161276   6.493   2.275   6.579  1.1585 -0.5912 -0.5170
13287TIP3    H261277   6.518   2.232   6.436 -1.4423 -1.2360 -0.8225
13288TIP3   OH261278   5.638   0.084   0.907 -0.0647  0.1610 -0.0365
13288TIP3    H161279   5.567   0.123   0.856 -0.0142  0.4217  0.0885
13288TIP3    H261280   5.616  -0.009   0.911 -0.4636  0.2565  0.0956
13289TIP3   OH261281   0.581   4.092  16.088  0.3854 -0.0888 -0.3775
13289TIP3    H161282   0.624   4.174  16.113  1.1085 -0.9188  1.2427
13289TIP3    H261283   0.491   4.117  16.068  0.8488  1.2437 -0.9309
13290TIP3   OH261284   5.054   6.276  16.357  0.0919 -0.7324 -0.1992
13290TIP3    H161285   4.990   6.206  16.368  0.4426 -0.8878  0.9231
13290TIP3    H261286   5.124   6.256  16.419  0.6164  0.1383 -0.4791
13291TIP3   OH261287   5.994   0.479  14.372  0.1701  0.5526  0.7351
13291TIP3    H161288   6.022   0.545  14.309 -1.1577  0.1601 -0.3074
13291TIP3    H261289   5.929   0.427  14.325  1.2047 -1.5290  1.5156
13292TIP3   OH261290   0.174   3.422   3.658 -0.1416  0.0268 -0.3165
13292TIP3    H161291   0.241   3.385   3.600 -0.6647 -0.1788 -0.7969
13292TIP3    H261292   0.182   3.369   3.738 -0.8969 -1.1809 -1.0044
13293TIP3   OH261293   4.070   4.546  13.890  0.2932 -0.3794 -0.0904
13293TIP3    H161294   4.076   4.457  13.925  2.4967 -0.3845 -0.3305
13293TIP3    H261295   4.032   4.535  13.803 -2.1176 -0.7242  0.9208
13294TIP3   OH261296   3.105   3.567   1.356 -0.3583 -0.2991  0.5061
13294TIP3    H161297   3.119   3.647   1.406 -1.4276 -0.5552  1.2534
13294TIP3    H261298   3.049   3.513   1.412 -1.3095 -0.7359 -0.8002
13295TIP3   OH261299   2.317   0.199   0.948  0.0354 -0.5900 -0.2835
13295TIP3    H161300   2.383   0.130   0.938 -1.3062 -1.8360 -0.8911
13295TIP3    H261301   2.318   0.219   1.041  1.3463 -0.4916 -0.2985
13296TIP3   OH261302   1.308   0.560   5.522  0.1959  1.0296  0.7085
13296TIP3    H161303   1.399   0.555   5.492 -0.0622 -0.1194  0.0686
13296TIP3    H261304   1.288   0.654   5.522  1.1313  1.2436  0.0908
13297TIP3   OH261305   3.712   5.081   4.957 -0.5592 -0.1284  0.6779
13297TIP3    H161306   3.769   5.149   4.994 -0.6779  0.6963 -0.6229
13297TIP3    H261307   3.693   5.024   5.032  0.0108  0.9311  1.6736
13298TIP3   OH261308   0.439   1.827  15.286 -0.1708 -0.2633 -0.2932
13298TIP3    H161309   0.524   1.866  15.306  0.9464 -2.8301  0.2149
13298TIP3    H261310   0.389   1.900  15.249  1.1800  2.0755  2.1296
13299TIP3   OH261311   6.154   4.958   5.548  0.5838  0.7418 -0.1025
13299TIP3    H161312   6.167   4.996   5.461  0.3431  2.0538  0.4014
13299TIP3    H261313   6.178   5.029   5.608  0.4310 -0.0379  0.8994
13300TIP3   OH261314   6.507   6.501   0.958  0.0836 -0.0198  0.2423
13300TIP3    H161315   6.516   6.527   1.050  0.0343 -0.9230  0.5096
13300TIP3    H261316   6.562   6.423   0.949  0.5685  0.4062 -0.6494
13301TIP3   OH261317   3.744   2.089  13.775  0.2668 -0.2629  0.2435
13301TIP3    H161318   3.815   2.135  13.730 -1.3100 -1.3889 -3.8275
13301TIP3    H261319   3.665   2.116  13.729 -1.2110 -3.5482  0.6174
13302TIP3   OH261320   4.028   5.815  13.626 -0.2284  0.0189 -0.1432
13302TIP3    H161321   3.966   5.834  13.556 -0.8779 -0.7196  0.2079
13302TIP3    H261322   4.110   5.856  13.598 -0.4227 -0.4126 -1.4170
13303TIP3   OH261323   3.176   0.660  11.562 -0.2108  0.1302 -0.3081
13303TIP3    H161324   3.115   0.591  11.589 -0.5238  0.8046  0.7952
13303TIP3    H261325   3.260   0.635  11.601 -0.3249  0.3628  0.0941
13304TIP3   OH261326   0.088   5.913   5.444 -0.6785 -0.5278  0.0851
13304TIP3    H161327   0.079   5.993   5.495 -0.5803 -1.0353  0.9334
13304TIP3    H261328   0.183   5.902   5.435 -0.5898 -1.6633  1.8584
13305TIP3   OH261329   5.118   3.872  16.013  0.3703  0.3080  0.1898
13305TIP3    H161330   5.095   3.779  16.012  1.2980  0.0640  0.0584
13305TIP3    H261331   5.213   3.872  15.998  0.0670  1.3743 -2.2511
13306TIP3   OH261332   4.640   5.782   2.014 -0.8074  0.5654  0.1750
13306TIP3    H161333   4.654   5.873   2.039 -2.8817  0.5770  1.6268
13306TIP3    H261334   4.679   5.732   2.085 -2.8310  0.4755  1.2956
13307TIP3   OH261335   4.717   1.138  15.761 -0.2826  0.4242 -0.2114
13307TIP3    H161336   4.733   1.175  15.674  0.3154  2.0750  0.5584
13307TIP3    H261337   4.683   1.211  15.812  1.0133 -0.0397  1.4043
13308TIP3   OH261338   4.785   2.405  12.812  0.0247 -0.4752  0.4865
13308TIP3    H161339   4.706   2.415  12.865  0.4064  0.0747  0.9578
13308TIP3    H261340   4.775   2.468  12.741  0.2527 -0.0625  0.8145
13309TIP3   OH261341   3.703   2.329  13.084  0.2759  0.4571 -0.4598
13309TIP3    H161342   3.792   2.366  13.089  1.2243 -1.7638  0.2004
13309TIP3    H261343   3.699   2.268  13.157 -1.5092 -0.1392 -1.0199
13310TIP3   OH261344   4.126   1.590   2.036  0.5788 -0.8178 -0.0672
13310TIP3    H161345   4.163   1.676   2.015 -0.2257  0.2692  2.6341
13310TIP3    H261346   4.187   1.528   1.995  1.5445  0.9906 -1.5294
13311TIP3   OH261347   1.078   4.697  12.873 -0.0890 -0.7549  0.4383
13311TIP3    H161348   1.106   4.624  12.817 -1.6053 -1.7332  0.9108
13311TIP3    H261349   1.116   4.678  12.958 -2.5495 -2.4490  1.2652
13312TIP3   OH261350   4.083   2.001   3.236  0.2987 -0.0529  0.0590
13312TIP3    H161351   4.165   1.952   3.223  0.1993 -0.5265  1.0954
13312TIP3    H261352   4.029   1.942   3.289 -1.5129 -0.5889 -2.2315
13313TIP3   OH261353   1.843   3.947  11.274  0.3778  0.0078 -0.0396
13313TIP3    H161354   1.807   3.955  11.186  0.6431 -0.4182 -0.1933
13313TIP3    H261355   1.875   4.035  11.295  3.0778 -0.4826 -1.6105
13314TIP3   OH261356   6.361   1.304  12.596 -0.5824  0.0575  0.4229
13314TIP3    H161357   6.323   1.370  12.539 -0.7465  0.3483  0.8629
13314TIP3    H261358   6.347   1.221  12.550  0.9340  0.4416 -0.8514
13315TIP3   OH261359   3.802   4.652  11.650  0.7849  0.0771  0.3418
13315TIP3    H161360   3.853   4.698  11.718  0.6127  0.1999  0.3881
13315TIP3    H261361   3.749   4.590  11.698  1.0323 -0.1866  0.2759
13316TIP3   OH261362   2.011   1.767  13.766  0.5618  0.1974  0.3027
13316TIP3    H161363   2.034   1.699  13.830  0.5227  1.6799  1.9713
13316TIP3    H261364   2.091   1.818  13.756  0.5349  0.0461 -0.7931
13317TIP3   OH261365   1.718   2.941   2.806  0.8521 -0.3750  0.8375
13317TIP3    H161366   1.680   3.027   2.823  1.0926 -0.3289  1.1571
13317TIP3    H261367   1.730   2.903   2.893  0.8160 -0.7018  0.7006
13318TIP3   OH261368   6.165   5.472   4.680  0.0981  0.2718 -0.0717
13318TIP3    H161369   6.089   5.526   4.701 -0.6571 -0.4719 -0.8416
13318TIP3    H261370   6.136   5.383   4.697  0.5548 -0.0793 -1.0919
13319TIP3   OH261371   4.369   5.449   0.831  0.1961 -0.2256  0.1473
13319TIP3    H161372   4.390   5.525   0.886  0.0654  0.1491 -0.3097
13319TIP3    H261373   4.409   5.375   0.876 -2.1328 -0.3908  2.2006
13320TIP3   OH261374   5.925   1.597  15.677 -0.0828 -0.2662 -0.0438
13320TIP3    H161375   5.986   1.586  15.750  0.3553  1.1773 -0.1483
13320TIP3    H261376   5.980   1.630  15.605 -1.0218  1.4100 -0.0289
13321TIP3   OH261377   2.109   1.665  13.222  0.0780  0.7348  0.2894
13321TIP3    H161378   2.097   1.746  13.273 -1.2411  0.9885 -0.3825
13321TIP3    H261379   2.133   1.696  13.134 -1.0892  0.4441 -0.1505
13322TIP3   OH261380   3.510   0.109   0.297  0.0979 -0.2013  0.0045
13322TIP3    H161381   3.533   0.016   0.296  0.1578 -0.1922 -1.4495
13322TIP3    H261382   3.594   0.154   0.300  0.1810 -0.1942 -1.7536
13323TIP3   OH261383   5.992   3.302   4.406 -0.5946  0.2680  0.1103
13323TIP3    H161384   5.907   3.331   4.438 -0.5681  0.9618 -0.4118
13323TIP3    H261385   6.044   3.289   4.484 -1.1317  0.0083  0.4278
13324TIP3   OH261386   2.124   5.324  16.247 -0.1013 -0.2563 -0.0669
13324TIP3    H161387   2.072   5.244  16.238  0.0719 -0.2299 -1.6105
13324TIP3    H261388   2.060   5.391  16.272 -0.2046 -0.9068  1.5007
13325TIP3   OH261389   2.900   4.622  15.493  0.4050  0.0984  0.2755
13325TIP3    H161390   2.905   4.621  15.589 -0.2082 -0.6841  0.3055
13325TIP3    H261391   2.859   4.707  15.472  2.5004  1.2583  0.5770
13326TIP3   OH261392   2.180   2.654  11.889  0.3756  0.1879  0.1358
13326TIP3    H161393   2.215   2.607  11.813  0.7016  0.6261  0.0149
13326TIP3    H261394   2.136   2.731  11.851 -2.5141 -1.3456  0.0805
13327TIP3   OH261395   0.586   3.130  10.686  0.5174 -0.2251  0.2574
13327TIP3    H161396   0.584   3.154  10.779 -0.8197  1.4761 -0.1732
13327TIP3    H261397   0.555   3.208  10.640 -0.1414 -1.4827 -1.5365
13328TIP3   OH261398   2.827   3.685  12.205  0.0364  0.1701  0.3561
13328TIP3    H161399   2.857   3.774  12.188  0.3531 -0.0235 -0.1064
13328TIP3    H261400   2.833   3.676  12.300 -0.5898  0.8462  0.4679
13329TIP3   OH261401   0.654   3.251  11.296 -0.1813 -0.1234 -0.2833
13329TIP3    H161402   0.653   3.344  11.320 -0.8445 -0.2619  0.2417
13329TIP3    H261403   0.563   3.231  11.274 -0.0898 -0.7247 -0.1212
13330TIP3   OH261404   3.634   4.459  14.081  0.1310  0.0391  0.2023
13330TIP3    H161405   3.601   4.373  14.105  0.7139  0.1048  1.2767
13330TIP3    H261406   3.662   4.449  13.990  0.0020 -0.8356  0.2482
13331TIP3   OH261407   3.184   0.838  14.133  0.2529 -0.3593 -0.3951
13331TIP3    H161408   3.095   0.875  14.135  1.3467  2.5071  1.4711
13331TIP3    H261409   3.235   0.901  14.083  1.4247 -1.5932 -0.8112
13332TIP3   OH261410   5.261   6.320  15.209 -0.8473 -0.2823  0.2399
13332TIP3    H161411   5.276   6.409  15.178 -0.9936 -0.5611 -0.6573
13332TIP3    H261412   5.275   6.325  15.304 -1.9058  0.9254  0.3636
13333TIP3   OH261413   4.979   0.729   3.481 -0.1827 -0.3396 -0.1905
13333TIP3    H161414   4.975   0.805   3.539  1.4454 -1.6001  1.7129
13333TIP3    H261415   5.072   0.707   3.477 -0.6277 -2.3299 -0.5469
13334TIP3   OH261416   6.693   3.954   5.066  0.2316  0.5469  0.7878
13334TIP3    H161417   6.636   3.961   4.989  1.1191  0.0165  0.0666
13334TIP3    H261418   6.777   3.989   5.037  1.0734 -1.1873  0.9646
13335TIP3   OH261419   3.248   4.665   0.772 -0.0258 -0.6163  0.3039
13335TIP3    H161420   3.323   4.689   0.826  0.5022  0.4499 -0.8435
13335TIP3    H261421   3.185   4.627   0.833  1.3767 -1.3988  1.3169
13336TIP3   OH261422   5.277   3.606   5.417  0.6239  0.4684 -0.0738
13336TIP3    H161423   5.223   3.685   5.416 -1.1280 -0.5472  2.8980
13336TIP3    H261424   5.228   3.543   5.364  0.3628  0.4160  0.2287
13337TIP3   OH261425   0.881   3.208   2.180  0.0058  0.3900 -0.3847
13337TIP3    H161426   0.798   3.257   2.183 -0.4954 -0.3066 -1.9278
13337TIP3    H261427   0.935   3.249   2.247 -1.5976  0.8386  0.6954
13338TIP3   OH261428   1.251   5.927   1.816 -0.0333  0.3774 -0.2031
13338TIP3    H161429   1.252   5.834   1.795 -0.7504  0.3173  0.0011
13338TIP3    H261430   1.271   5.970   1.733  0.7629  0.0410 -0.2001
13339TIP3   OH261431   4.418   3.143  16.803 -0.0107  0.1627  0.2305
13339TIP3    H161432   4.503   3.145  16.847  1.2796 -0.9514 -2.0617
13339TIP3    H261433   4.368   3.077  16.852  0.4199  0.7660  1.5403
13340TIP3   OH261434   3.153   3.301   3.715 -0.4014  0.3797 -0.2476
13340TIP3    H161435   3.151   3.388   3.675 -0.0539  1.0576  1.1542
13340TIP3    H261436   3.074   3.257   3.683 -1.0737  1.5525 -0.2263
13341TIP3   OH261437   0.494   2.840   6.239  0.3461  0.2564 -0.5628
13341TIP3    H161438   0.539   2.803   6.315 -0.0638  0.3773 -0.2623
13341TIP3    H261439   0.485   2.766   6.178 -1.1332 -0.3450  0.3381
13342TIP3   OH261440   5.338   5.288   3.405 -0.9807  0.2000  0.4447
13342TIP3    H161441   5.299   5.317   3.322 -2.1538  0.1541  0.9555
13342TIP3    H261442   5.432   5.287   3.388 -0.9175  3.1111  0.0045
13343TIP3   OH261443   2.124   0.087   1.637 -0.1879 -0.0470  0.5174
13343TIP3    H161444   2.033   0.068   1.660  0.0775 -1.4209  0.5462
13343TIP3    H261445   2.175   0.044   1.706  0.5155 -1.0123 -0.5695
13344TIP3   OH261446   0.567   4.920   4.216  0.2736  0.5982 -0.3684
13344TIP3    H161447   0.489   4.941   4.268  0.5512  0.4479  0.1163
13344TIP3    H261448   0.544   4.947   4.127 -1.4047 -1.9733 -0.8212
13345TIP3   OH261449   3.291   4.303  13.935 -0.7722 -0.2007  0.5163
13345TIP3    H161450   3.286   4.384  13.986  2.8415  0.3411  0.2407
13345TIP3    H261451   3.257   4.327  13.849  1.5167  1.5265  0.0102
13346TIP3   OH261452   4.718   3.481  11.899 -0.6485 -0.4116 -0.0524
13346TIP3    H161453   4.796   3.529  11.926 -1.0916 -0.8280  2.2447
13346TIP3    H261454   4.750   3.413  11.839  0.7289 -0.4503  0.6942
13347TIP3   OH261455   3.690   5.969   3.277  0.8715 -0.1509  0.0104
13347TIP3    H161456   3.703   5.987   3.184 -2.6499 -4.4314 -1.6582
13347TIP3    H261457   3.601   6.001   3.294  0.9317 -0.7436  1.5333
13348TIP3   OH261458   4.105   2.928   2.996  0.3500  0.4052  0.0048
13348TIP3    H161459   4.090   2.863   2.928 -1.7738 -0.7788  1.4753
13348TIP3    H261460   4.199   2.924   3.014  0.5789 -0.7960 -1.3318
13349TIP3   OH261461   2.114   2.757  11.458  0.0479 -0.0391  0.1515
13349TIP3    H161462   2.135   2.701  11.383  0.1134 -2.3661  1.7950
13349TIP3    H261463   2.019   2.754  11.465  0.0401  0.1951  0.1699
13350TIP3   OH261464   1.830   0.449   0.036 -0.5443  0.3428 -1.1309
13350TIP3    H161465   1.747   0.450   0.083 -0.7342  0.2938 -1.4670
13350TIP3    H261466   1.812   0.403  -0.046 -0.1626  0.2407 -1.1638
13351TIP3   OH261467   3.998   0.098   3.849  0.2404  0.1372 -0.5857
13351TIP3    H161468   4.089   0.124   3.860 -0.1062  0.8670  0.8278
13351TIP3    H261469   3.989   0.080   3.755  1.5959  0.9360 -0.8956
13352TIP3   OH261470   2.729   2.646   2.452 -0.3955 -0.0259 -0.5115
13352TIP3    H161471   2.780   2.599   2.518  0.9795 -0.7297 -2.0312
13352TIP3    H261472   2.687   2.717   2.501  4.5645  2.7156  0.4482
13353TIP3   OH261473   2.983   1.026   1.673 -0.3791  0.2549  0.3529
13353TIP3    H161474   3.066   0.987   1.701 -1.1331 -1.5490  0.1510
13353TIP3    H261475   2.964   0.987   1.588 -2.3453 -0.8121  1.2197
13354TIP3   OH261476   6.581   6.223   5.339 -0.2684  0.0782  0.2188
13354TIP3    H161477   6.677   6.225   5.345 -0.2171 -0.4870 -0.3074
13354TIP3    H261478   6.556   6.314   5.326  0.2908  0.0914 -0.9115
13355TIP3   OH261479   1.789   5.964  12.587 -0.2179 -0.1686 -0.4478
13355TIP3    H161480   1.781   5.962  12.682  0.2692 -1.9244 -0.4011
13355TIP3    H261481   1.710   6.008  12.557  0.0598  1.2382  0.7892
13356TIP3   OH261482   2.720   1.137   2.631  0.4489 -0.3212 -0.0784
13356TIP3    H161483   2.761   1.200   2.572  0.8763 -0.3963  0.1310
13356TIP3    H261484   2.789   1.116   2.695 -0.3889  0.7712  1.2491
13357TIP3   OH261485   1.243   4.749  14.938 -0.0663  0.7494 -0.0984
13357TIP3    H161486   1.169   4.802  14.969 -1.2565 -0.9496  0.0947
13357TIP3    H261487   1.283   4.714  15.018 -0.4425 -0.1240 -0.2826
13358TIP3   OH261488   0.351   2.673  16.580  0.3315  0.2687  0.2513
13358TIP3    H161489   0.439   2.634  16.578  0.9939  1.7162  0.0150
13358TIP3    H261490   0.326   2.681  16.488 -0.2510 -0.5360  0.3281
13359TIP3   OH261491   5.510   6.193  12.884 -0.2518 -0.0335  0.0328
13359TIP3    H161492   5.490   6.222  12.973 -1.3420  0.4930 -0.3748
13359TIP3    H261493   5.539   6.102  12.895 -3.2613 -1.0163  0.6624
13360TIP3   OH261494   6.565   4.557  10.970  0.0007  0.2785  0.0847
13360TIP3    H161495   6.549   4.472  10.929  2.3217 -0.3375  0.2816
13360TIP3    H261496   6.505   4.617  10.926 -0.8476 -1.2286 -0.8978
13361TIP3   OH261497   0.281   3.288  15.845  0.1547 -0.0854 -0.1843
13361TIP3    H161498   0.210   3.247  15.794  0.4097  1.5127 -1.9596
13361TIP3    H261499   0.358   3.236  15.824 -0.3090 -1.4216  1.2237
13362TIP3   OH261500   6.164   2.923   1.483 -0.4017 -0.0557 -0.0958
13362TIP3    H161501   6.186   2.920   1.576 -0.9178 -0.7976  0.0142
13362TIP3    H261502   6.091   2.862   1.474 -0.7265  0.4298 -0.8910
13363TIP3   OH261503   2.616   1.525  14.863 -0.2063  0.1316 -0.3031
13363TIP3    H161504   2.675   1.556  14.931 -1.2135 -0.9079  1.1117
13363TIP3    H261505   2.528   1.536  14.900 -0.9007  1.0691 -2.0984
13364TIP3   OH261506   6.541   3.227   1.489  0.1158  0.4105 -0.7234
13364TIP3    H161507   6.522   3.279   1.567 -1.7931  0.9965 -1.5129
13364TIP3    H261508   6.520   3.137   1.515 -1.4204  0.7237 -0.7970
13365TIP3   OH261509   1.518   0.912  11.625 -0.5267 -0.1607 -0.3277
13365TIP3    H161510   1.464   0.865  11.562 -2.0796 -0.9624  1.5191
13365TIP3    H261511   1.498   1.004  11.610  0.9063 -0.1174 -2.5088
13366TIP3   OH261512   0.698   1.232   1.228  0.3371 -0.4527 -0.2678
13366TIP3    H161513   0.774   1.185   1.263  0.2595 -0.3589  0.0290
13366TIP3    H261514   0.724   1.256   1.139  0.1944 -1.4839 -0.6047
13367TIP3   OH261515   5.549   5.914   2.722  0.4472 -0.0982  0.4263
13367TIP3    H161516   5.597   5.985   2.679  1.8535 -0.6664  0.9958
13367TIP3    H261517   5.554   5.935   2.815 -0.1631 -0.3384  0.5225
13368TIP3   OH261518   6.148   0.382   2.262  0.0712  0.1964  0.5513
13368TIP3    H161519   6.140   0.440   2.187 -0.3702 -0.0992  0.3644
13368TIP3    H261520   6.242   0.364   2.269  0.2603  1.2607  0.8769
13369TIP3   OH261521   3.184   2.299   5.236 -0.0828  0.1212  0.4858
13369TIP3    H161522   3.246   2.268   5.170 -0.5377 -0.4908  0.3392
13369TIP3    H261523   3.233   2.365   5.285  1.3890 -1.7591  1.7006
13370TIP3   OH261524   3.333   6.471  13.528  0.2197  0.0350 -0.7529
13370TIP3    H161525   3.276   6.493  13.601 -0.2937 -1.4647 -0.6627
13370TIP3    H261526   3.282   6.493  13.450  0.1533  0.1876 -0.6659
13371TIP3   OH261527   5.194   1.675   4.527 -0.1027 -0.2850  0.7222
13371TIP3    H161528   5.289   1.674   4.543  0.1246 -0.6750 -0.5182
13371TIP3    H261529   5.178   1.759   4.485 -0.2109 -0.4545  0.4218
13372TIP3   OH261530   0.553   2.669   4.278  0.2941  0.1813 -0.1030
13372TIP3    H161531   0.477   2.700   4.327  0.3894 -0.1389  0.2516
13372TIP3    H261532   0.617   2.646   4.346  0.9341  1.0267 -0.4082
13373TIP3   OH261533   3.056   3.760  14.452 -0.3881 -0.0713 -0.5826
13373TIP3    H161534   2.985   3.806  14.497 -0.2967  0.1391 -0.6501
13373TIP3    H261535   3.046   3.668  14.477 -0.4766  0.0111 -0.3170
13374TIP3   OH261536   4.927   6.723   4.280 -0.1806 -0.1088 -0.1241
13374TIP3    H161537   4.834   6.708   4.297 -0.1450  0.9904  1.2433
13374TIP3    H261538   4.971   6.687   4.356  0.6499 -1.6432 -1.2712
13375TIP3   OH261539   3.579   1.784   6.113 -0.0585  0.1149  0.5201
13375TIP3    H161540   3.637   1.801   6.039 -0.8407  0.2883 -0.0628
13375TIP3    H261541   3.610   1.701   6.148  0.5613  0.2184  0.2363
13376TIP3   OH261542   0.736   3.700   2.136 -0.1428  0.5693  0.5969
13376TIP3    H161543   0.767   3.653   2.214 -0.2571  1.2324  1.0439
13376TIP3    H261544   0.670   3.642   2.098 -0.6482  0.5938  1.4318
13377TIP3   OH261545   6.762   1.614  14.237  0.3129  0.1256 -0.5516
13377TIP3    H161546   6.766   1.631  14.143 -2.0492  1.1914 -0.5332
13377TIP3    H261547   6.706   1.537  14.244  0.6180 -0.0516 -0.0040
13378TIP3   OH261548   3.176   2.115  12.198 -0.0477 -0.3663 -0.0957
13378TIP3    H161549   3.264   2.144  12.175 -0.7619  2.4958  0.4903
13378TIP3    H261550   3.179   2.102  12.293  0.7415 -4.4251 -0.4603
13379TIP3   OH261551   0.849   5.094  11.780  0.0491 -0.0422  0.0797
13379TIP3    H161552   0.771   5.054  11.818 -0.2933  0.3250 -0.2313
13379TIP3    H261553   0.918   5.078  11.844 -0.3018 -0.2889  0.3979
13380TIP3   OH261554   0.557   4.257  12.802 -0.4193  0.2099 -0.1200
13380TIP3    H161555   0.606   4.333  12.771 -0.9044  0.3492 -0.5633
13380TIP3    H261556   0.514   4.288  12.882 -0.6067  0.4042 -0.2924
13381TIP3   OH261557   5.514   4.319   6.194 -0.4799  0.2724  0.1441
13381TIP3    H161558   5.602   4.353   6.211 -1.6128  2.9783  1.0846
13381TIP3    H261559   5.473   4.317   6.281 -1.6093 -0.2140 -0.3875
13382TIP3   OH261560   4.398   4.156   5.503  0.2786 -0.5340  0.4554
13382TIP3    H161561   4.320   4.116   5.466  1.3393 -1.6787 -0.6408
13382TIP3    H261562   4.369   4.242   5.534 -0.9587 -0.0297 -1.8949
13383TIP3   OH261563   0.096   2.133  11.982  0.6051 -0.3354  0.1488
13383TIP3    H161564   0.085   2.102  11.893 -0.3945 -0.9695  0.4829
13383TIP3    H261565   0.190   2.153  11.989  1.0554 -2.1174 -0.4581
13384TIP3   OH261566   3.948   6.243   4.109 -0.7375 -0.1715 -0.0391
13384TIP3    H161567   3.875   6.222   4.051 -0.8651  0.5191 -0.1337
13384TIP3    H261568   4.025   6.210   4.063 -0.9246 -0.3868 -0.2050
13385TIP3   OH261569   3.495   3.956  15.739  0.1058 -0.3467 -0.4333
13385TIP3    H161570   3.582   3.983  15.710  0.0551  3.1662  2.0272
13385TIP3    H261571   3.509   3.874  15.787  2.0027 -0.0635 -0.4490
13386TIP3   OH261572   4.794   2.873  12.220  0.2035  0.3518  0.3540
13386TIP3    H161573   4.844   2.953  12.204  0.1932 -0.0299 -1.8747
13386TIP3    H261574   4.826   2.842  12.305 -2.0018  4.2746  2.9083
13387TIP3   OH261575   2.408   6.001  12.608  0.4247 -0.0591 -0.2714
13387TIP3    H161576   2.357   6.081  12.624  0.6396 -0.0300  0.2907
13387TIP3    H261577   2.363   5.958  12.536 -0.3690 -0.0071  0.1820
13388TIP3   OH261578   5.401   0.582   1.099 -0.1108  0.7646 -0.3203
13388TIP3    H161579   5.397   0.500   1.148 -0.6870  2.3681  2.5973
13388TIP3    H261580   5.310   0.611   1.093  0.0775  1.1808 -1.3617
13389TIP3   OH261581   1.010   0.219  14.790 -0.3646  0.1638 -0.0852
13389TIP3    H161582   0.988   0.161  14.863 -0.3841  1.9071  1.4032
13389TIP3    H261583   1.105   0.215  14.784 -0.4409 -0.8074 -0.6957
13390TIP3   OH261584   6.579   4.582   1.774  0.7740 -0.4022 -0.3716
13390TIP3    H161585   6.551   4.504   1.821  0.6672  0.0322  0.2985
13390TIP3    H261586   6.624   4.549   1.696  1.9629 -1.1643  0.6034
13391TIP3   OH261587   2.176   6.425   1.389 -0.0073  0.1395  0.2480
13391TIP3    H161588   2.105   6.486   1.408  0.3756  1.7523 -2.8618
13391TIP3    H261589   2.256   6.473   1.414  0.1582 -0.6134  1.2401
13392TIP3   OH261590   4.064   6.206  15.569 -0.1706 -0.8521  0.7322
13392TIP3    H161591   4.111   6.250  15.498  0.3762 -0.4204  1.3443
13392TIP3    H261592   3.975   6.239  15.563 -0.4468 -1.7790 -0.5276
13393TIP3   OH261593   6.154   3.606  15.657  0.0957  0.2015 -0.4413
13393TIP3    H161594   6.244   3.638  15.658  0.4513 -0.6716 -1.6047
13393TIP3    H261595   6.103   3.679  15.621  0.5159  0.3382 -0.7742
13394TIP3   OH261596   6.028   1.986   6.229  0.6814 -0.2039  0.3643
13394TIP3    H161597   6.085   2.040   6.284  0.9768 -0.6980  0.5435
13394TIP3    H261598   6.018   1.904   6.277  2.0976 -1.1987 -0.9597
13395TIP3   OH261599   1.253   1.615   4.815  0.0670  0.4497 -0.3039
13395TIP3    H161600   1.243   1.709   4.827  0.4575  0.3654  0.7790
13395TIP3    H261601   1.331   1.592   4.866  0.7908 -0.2550 -1.6476
13396TIP3   OH261602   6.360   5.619  10.581  0.0628  0.0011 -0.4108
13396TIP3    H161603   6.346   5.533  10.620 -0.0280 -0.4508 -1.4021
13396TIP3    H261604   6.455   5.624  10.568  0.1044  0.1943 -0.0379
13397TIP3   OH261605   1.535   1.621  16.302  0.6437  0.2869 -0.7657
13397TIP3    H161606   1.555   1.666  16.220  0.9351  1.4423 -0.0926
13397TIP3    H261607   1.592   1.663  16.366 -1.0838  0.9120  0.4386
13398TIP3   OH261608   2.000   1.451   4.851  0.1959  0.1905 -0.3543
13398TIP3    H161609   1.959   1.536   4.836  0.0120  0.1854  0.1030
13398TIP3    H261610   2.078   1.471   4.903 -0.5362 -0.0308  0.8935
13399TIP3   OH261611   4.207   3.968   3.361  0.3621 -0.2038  0.2475
13399TIP3    H161612   4.275   4.035   3.361  1.5444 -1.3386  0.7048
13399TIP3    H261613   4.147   3.994   3.431  1.9002 -0.6180  1.8020
13400TIP3   OH261614   5.194   4.324  14.502  0.3059 -0.4708  0.2705
13400TIP3    H161615   5.243   4.248  14.469  2.5555  1.8963 -2.3327
13400TIP3    H261616   5.225   4.334  14.592  2.6021 -0.6944 -0.4246
13401TIP3   OH261617   3.799   3.506  14.187  0.0365  0.3684  0.1315
13401TIP3    H161618   3.813   3.563  14.111 -1.1225  1.2029  0.5095
13401TIP3    H261619   3.705   3.494  14.190  0.2824 -2.3817 -0.4599
13402TIP3   OH261620   0.456   0.822  14.566  0.5794  0.0688 -0.2229
13402TIP3    H161621   0.450   0.731  14.540  0.4558  0.3338 -1.1628
13402TIP3    H261622   0.382   0.836  14.624  0.9918 -0.5947  0.4779
13403TIP3   OH261623   3.813   3.220  14.252 -0.3977 -0.2413  0.3122
13403TIP3    H161624   3.797   3.314  14.241 -0.9516 -0.5574 -2.3005
13403TIP3    H261625   3.865   3.214  14.332  0.2518  2.3495  0.1888
13404TIP3   OH261626   2.893   6.759   6.440 -0.6810  0.0145 -0.3954
13404TIP3    H161627   2.901   6.804   6.357  1.0255  1.5276  0.5169
13404TIP3    H261628   2.812   6.792   6.479 -0.1394  1.2999 -0.3339
13405TIP3   OH261629   4.011   5.669   3.092  0.9619 -0.1680  0.1738
13405TIP3    H161630   4.084   5.714   3.134  0.9541 -0.1657  0.1855
13405TIP3    H261631   4.037   5.577   3.091  1.0601 -0.1374 -0.0210
13406TIP3   OH261632   4.528   5.113  11.090 -0.4835  0.4244  0.7046
13406TIP3    H161633   4.458   5.139  11.030 -1.0061 -1.1060  0.6285
13406TIP3    H261634   4.483   5.079  11.167  0.1110 -1.6859  0.1781
13407TIP3   OH261635   0.909   2.857  16.822 -0.5464 -0.2701 -0.5949
13407TIP3    H161636   0.853   2.918  16.774 -0.3665 -1.4684 -2.4149
13407TIP3    H261637   0.992   2.904  16.833 -0.7662  0.2140 -0.9775
13408TIP3   OH261638   0.933   5.458  15.664 -0.4628 -0.0624  0.0490
13408TIP3    H161639   0.897   5.543  15.690  0.7805  0.3253  0.5590
13408TIP3    H261640   0.864   5.395  15.686 -1.9774  0.9334 -1.6502
13409TIP3   OH261641   3.643   1.140  11.067  0.3047  0.3314  0.7819
13409TIP3    H161642   3.629   1.234  11.076 -0.2874  0.5131 -1.4109
13409TIP3    H261643   3.667   1.128  10.976 -0.1049 -1.6960  0.8918
13410TIP3   OH261644   4.068   2.960   4.194 -0.0734  0.4656  0.2846
13410TIP3    H161645   4.136   2.948   4.127  0.8157  0.2086  1.2049
13410TIP3    H261646   4.110   3.016   4.260  0.0748 -1.5301  1.9806
13411TIP3   OH261647   0.489   3.499   4.382  0.4633  0.0586  0.6543
13411TIP3    H161648   0.510   3.580   4.335 -0.9705  0.3817  0.5320
13411TIP3    H261649   0.517   3.515   4.472  2.8112 -0.3941  0.0739
13412TIP3   OH261650   4.442   5.617   0.377 -0.1470 -0.1554 -0.0476
13412TIP3    H161651   4.415   5.695   0.329  0.5568 -0.7620 -1.4870
13412TIP3    H261652   4.389   5.618   0.457  0.3083  2.1122  0.2802
13413TIP3   OH261653   5.232   2.279  15.813  0.1943  0.7915 -0.0755
13413TIP3    H161654   5.235   2.301  15.906  1.0191  1.6138 -0.2784
13413TIP3    H261655   5.195   2.356  15.771 -0.0635  0.4684 -0.4534
13414TIP3   OH261656   1.965   6.131   3.325  0.2936  0.1207  0.8775
13414TIP3    H161657   2.048   6.092   3.355 -0.1741 -1.4411  0.2762
13414TIP3    H261658   1.982   6.225   3.323  1.6574 -0.0665  1.9529
13415TIP3   OH261659   1.725   5.469   0.048 -0.4238 -0.3912 -0.1782
13415TIP3    H161660   1.688   5.476  -0.040  1.1177 -0.2356 -0.8527
13415TIP3    H261661   1.795   5.404   0.039 -0.8564 -1.0776  1.1605
13416TIP3   OH261662   0.967   3.009   1.714  0.1500 -0.1658  0.1848
13416TIP3    H161663   0.998   3.081   1.660 -0.0220 -0.4923 -0.3612
13416TIP3    H261664   0.931   3.051   1.792  2.2173  0.2059  0.9797
13417TIP3   OH261665   0.974   3.123  14.860 -0.2111 -0.4976 -0.1407
13417TIP3    H161666   1.005   3.198  14.810  0.6410 -0.9192 -0.2678
13417TIP3    H261667   0.911   3.159  14.921  1.1727  0.5400  0.7236
13418TIP3   OH261668   4.195   5.333  11.745 -0.8407 -0.1988 -0.2341
13418TIP3    H161669   4.141   5.254  11.746 -1.3185  0.1228 -0.0392
13418TIP3    H261670   4.132   5.405  11.735 -0.3327  0.0892 -1.7841
13419TIP3   OH261671   0.280   4.680  13.052  0.3228  0.3354 -0.2125
13419TIP3    H161672   0.246   4.770  13.048  0.2558  0.2919 -0.6752
13419TIP3    H261673   0.285   4.661  13.146 -1.9849 -0.0698 -0.1092
13420TIP3   OH261674   3.881   3.536  15.837  0.4535 -0.3949  0.0329
13420TIP3    H161675   3.831   3.610  15.802  1.5913  0.1125 -0.5628
13420TIP3    H261676   3.816   3.467  15.851 -0.9364  1.2019  2.1367
13421TIP3   OH261677   6.669   1.098   1.757 -0.4890  0.6706  0.2923
13421TIP3    H161678   6.690   1.005   1.750  0.7003  0.9894 -0.5108
13421TIP3    H261679   6.718   1.129   1.833 -0.3059  0.7977  0.1233
13422TIP3   OH261680   3.337   1.014  12.674  0.0219 -0.4822  0.1668
13422TIP3    H161681   3.341   1.110  12.681  0.3479 -0.2962 -1.8877
13422TIP3    H261682   3.246   0.995  12.652 -0.0967 -0.6900  0.8016
13423TIP3   OH261683   0.827   2.597  11.524  0.2250 -0.5272 -0.2504
13423TIP3    H161684   0.909   2.633  11.560 -0.4961  0.4676  0.4549
13423TIP3    H261685   0.765   2.603  11.597 -0.9433  0.3586 -1.2906
13424TIP3   OH261686   4.541   0.601   3.517 -0.5420 -0.7334 -0.0034
13424TIP3    H161687   4.601   0.634   3.450  0.9654  1.5226  2.2882
13424TIP3    H261688   4.476   0.670   3.528 -1.8660 -1.8695 -0.3272
13425TIP3   OH261689   5.230   0.996   1.908  1.0966 -0.2629 -0.4781
13425TIP3    H161690   5.205   1.053   1.982  1.6900 -3.4630  2.4432
13425TIP3    H261691   5.148   0.978   1.863  0.4618  0.6424  0.2647
13426TIP3   OH261692   1.579   4.775  16.091 -0.1874  0.2800 -0.3848
13426TIP3    H161693   1.660   4.795  16.138 -0.8569  1.7186  0.1859
13426TIP3    H261694   1.537   4.859  16.077 -2.9904 -0.5828  1.8766
13427TIP3   OH261695   1.283   5.001   2.269 -0.4395  0.5398 -0.1783
13427TIP3    H161696   1.360   5.022   2.215  0.1892 -0.4085  0.3129
13427TIP3    H261697   1.219   5.068   2.247  0.2124  0.8282 -1.2681
13428TIP3   OH261698   6.362   0.224  12.265 -0.1765  0.0193 -0.3871
13428TIP3    H161699   6.384   0.212  12.173 -0.5674 -0.4109 -0.4222
13428TIP3    H261700   6.320   0.143  12.291  0.3499 -0.0456  0.2988
13429TIP3   OH261701   2.637   3.517  15.946  0.3463  0.6267 -0.2572
13429TIP3    H161702   2.636   3.589  16.009  1.9612 -0.1874  0.7651
13429TIP3    H261703   2.685   3.552  15.871 -1.2077  1.4535 -0.9323
13430TIP3   OH261704   4.345   2.971   4.864  0.0677  0.4051 -0.4686
13430TIP3    H161705   4.385   2.930   4.787 -0.0398 -0.6783  0.0323
13430TIP3    H261706   4.309   2.898   4.914  0.6257  1.0269  0.8974
13431TIP3   OH261707   2.993   4.630  13.093 -0.3953 -0.0081 -0.2480
13431TIP3    H161708   2.985   4.565  13.023 -1.8778  0.3543 -0.4517
13431TIP3    H261709   3.085   4.627  13.118  0.2523  0.0769 -2.4134
13432TIP3   OH261710   4.222   3.442  13.704 -0.0642  0.0021 -0.1464
13432TIP3    H161711   4.254   3.433  13.794  0.6566  1.4591 -0.2339
13432TIP3    H261712   4.294   3.407  13.650  0.5420  1.3641 -0.2488
13433TIP3   OH261713   6.312   1.139  14.177 -0.2788  0.3102  0.0132
13433TIP3    H161714   6.363   1.169  14.252 -0.8133  0.8166  0.1784
13433TIP3    H261715   6.376   1.131  14.106 -0.1690  2.2492 -0.1514
13434TIP3   OH261716   4.429   5.611  10.399  0.3039  0.1048 -0.3982
13434TIP3    H161717   4.473   5.558  10.465 -0.9239 -0.3912  0.0452
13434TIP3    H261718   4.426   5.556  10.321  1.2768  0.4924 -0.7297
13435TIP3   OH261719   2.959   5.831   1.563  0.7247  0.0433  0.1589
13435TIP3    H161720   2.874   5.855   1.600 -0.0037 -1.9157 -0.1517
13435TIP3    H261721   2.944   5.824   1.469  1.5205  0.7797 -0.0366
13436TIP3   OH261722   0.266   4.802  13.451  0.2594 -0.1116  0.2307
13436TIP3    H161723   0.327   4.862  13.409  0.1175 -0.5597 -0.6461
13436TIP3    H261724   0.302   4.786  13.538  0.5785  0.8178  0.2698
13437TIP3   OH261725   3.772   0.071  15.455 -0.2533 -0.2962  0.5076
13437TIP3    H161726   3.753  -0.008  15.505 -2.3212 -0.3363 -0.2540
13437TIP3    H261727   3.689   0.119  15.454 -0.2364 -0.1336 -2.5503
13438TIP3   OH261728   3.312   0.980   2.236  0.6006 -0.0363  0.7528
13438TIP3    H161729   3.249   0.966   2.306  0.7805 -1.9880  0.5704
13438TIP3    H261730   3.268   0.949   2.157  1.1183  0.2938  0.3271
13439TIP3   OH261731   0.340   0.869  12.641 -0.7358 -0.0612  0.0459
13439TIP3    H161732   0.402   0.902  12.706 -1.5643  1.6633  0.0128
13439TIP3    H261733   0.254   0.892  12.675 -1.3029 -1.0966 -0.6231
13440TIP3   OH261734   1.890   3.961  10.935 -0.1497 -0.2092  0.2010
13440TIP3    H161735   1.845   4.041  10.964  0.2632  0.2734 -0.4526
13440TIP3    H261736   1.877   3.960  10.840  0.7985 -0.3118  0.0611
13441TIP3   OH261737   3.564   0.321   4.543  0.6116 -0.3224  0.8690
13441TIP3    H161738   3.647   0.309   4.589  1.6308  0.9605 -0.5422
13441TIP3    H261739   3.581   0.391   4.480 -1.4736 -0.2211  0.3405
13442TIP3   OH261740   0.879   2.470  16.594  0.0111  0.4293  0.1493
13442TIP3    H161741   0.943   2.538  16.574 -1.0667  1.5438  0.3494
13442TIP3    H261742   0.920   2.389  16.566  1.3525  1.1580 -0.0559
13443TIP3   OH261743   0.711   4.391   4.672 -0.1558  0.0246 -0.6886
13443TIP3    H161744   0.635   4.346   4.708  0.7363 -0.3262  0.8472
13443TIP3    H261745   0.686   4.484   4.672 -0.7921 -0.1388 -0.7710
13444TIP3   OH261746   2.411   0.672  12.726  0.3522  0.5664  0.6131
13444TIP3    H161747   2.464   0.741  12.768 -0.2289 -0.0283  2.4360
13444TIP3    H261748   2.461   0.592  12.741  0.0041  0.3080  0.3904
13445TIP3   OH261749   2.425   5.321  16.988  0.1576 -0.2175 -0.1426
13445TIP3    H161750   2.340   5.306  17.030  0.1508 -0.5430 -0.2639
13445TIP3    H261751   2.404   5.358  16.903  0.1227 -0.5686 -0.2885
13446TIP3   OH261752   0.687   1.351   5.995 -0.4012 -0.5841 -0.4443
13446TIP3    H161753   0.728   1.422   6.043  1.7324 -1.0966 -1.3976
13446TIP3    H261754   0.594   1.373   5.994  0.1848  2.1839 -0.7008
13447TIP3   OH261755   2.710   0.884  13.966  0.3376  0.6432  0.6615
13447TIP3    H161756   2.705   0.854  13.875  2.5529  0.7410  0.4433
13447TIP3    H261757   2.658   0.964  13.969  1.1885  1.2737 -0.8251
13448TIP3   OH261758   0.976   3.459   3.773  0.4191  0.2494 -0.0668
13448TIP3    H161759   1.006   3.409   3.849  0.8402 -1.4332 -1.2803
13448TIP3    H261760   0.905   3.407   3.735  0.3979  0.9108 -0.9841
13449TIP3   OH261761   2.150   1.696   4.322 -0.1592  0.3541 -1.0895
13449TIP3    H161762   2.151   1.700   4.226 -1.3247  1.1678 -1.0861
13449TIP3    H261763   2.144   1.603   4.342  1.7939  0.0373 -1.7482
13450TIP3   OH261764   1.792   4.177   1.316  0.0814 -0.0318  0.0008
13450TIP3    H161765   1.784   4.255   1.261  0.3602 -2.2265 -3.4529
13450TIP3    H261766   1.886   4.160   1.319  0.1011  0.2275  1.5408
13451TIP3   OH261767   3.734   3.239   5.071  0.1333 -0.2674 -0.1686
13451TIP3    H161768   3.802   3.289   5.117 -0.4324 -0.2299  0.6613
13451TIP3    H261769   3.692   3.304   5.014  0.9269 -0.3409 -0.8466
13452TIP3   OH261770   4.389   4.310  10.622  0.1657  0.8128  0.0740
13452TIP3    H161771   4.302   4.348  10.631 -0.1141  0.2424 -0.2076
13452TIP3    H261772   4.445   4.384  10.598 -0.5289  0.8963 -1.3525
13453TIP3   OH261773   2.588   1.944  12.391 -0.8274 -0.0658  0.0060
13453TIP3    H161774   2.679   1.914  12.381 -0.6663  0.2126  0.5683
13453TIP3    H261775   2.540   1.898  12.322 -0.5030 -1.2447  0.5330
13454TIP3   OH261776   3.041   0.320   1.247  0.5711  0.8440  0.0133
13454TIP3    H161777   2.985   0.379   1.198 -0.7937 -1.2692 -1.1347
13454TIP3    H261778   2.983   0.279   1.312  0.9177 -0.7933 -0.6469
13455TIP3   OH261779   3.818   5.742   0.405  0.1852  0.5757 -0.1949
13455TIP3    H161780   3.874   5.704   0.337  0.0628 -1.4742  0.7794
13455TIP3    H261781   3.879   5.778   0.469  0.3043  1.9590 -1.0422
13456TIP3   OH261782   4.562   0.250  12.585  0.6298  0.7963 -0.3121
13456TIP3    H161783   4.642   0.199  12.575  0.9418  1.0013  0.8935
13456TIP3    H261784   4.552   0.259  12.680 -0.0682  1.9463 -0.4773
13457TIP3   OH261785   2.103   5.712  14.217  0.4029  0.0586 -0.0800
13457TIP3    H161786   2.091   5.618  14.204 -1.2344  0.3253 -0.6946
13457TIP3    H261787   2.143   5.718  14.304  1.5787 -1.2352 -0.4896
13458TIP3   OH261788   4.525   1.020  10.430  0.2318 -0.2664  0.1672
13458TIP3    H161789   4.546   1.091  10.491 -1.4051 -0.7342  1.3558
13458TIP3    H261790   4.595   0.957  10.442  2.2578  1.5089 -1.6228
13459TIP3   OH261791   3.572   2.073   6.231  0.2336 -0.5997 -0.2610
13459TIP3    H161792   3.559   2.167   6.222 -0.4145 -0.5676  0.8202
13459TIP3    H261793   3.611   2.063   6.318  2.4056 -1.1629 -1.2342
13460TIP3   OH261794   2.949   1.954   4.384  0.3717  0.0706  0.0763
13460TIP3    H161795   3.003   1.883   4.350  0.4924  1.2667 -2.5455
13460TIP3    H261796   3.011   2.026   4.399 -0.1836  0.8117 -1.0230
13461TIP3   OH261797   5.357   0.523   2.610 -0.3003  0.4641 -0.6751
13461TIP3    H161798   5.350   0.492   2.700 -2.3681  1.7721 -0.3270
13461TIP3    H261799   5.451   0.521   2.591  0.0422 -1.2708  0.9547
13462TIP3   OH261800   5.140   0.657  10.687 -0.4757  0.0586 -0.3343
13462TIP3    H161801   5.055   0.693  10.714 -0.2862 -0.1539  0.6029
13462TIP3    H261802   5.181   0.630  10.769 -0.2813 -1.5593 -0.9315
13463TIP3   OH261803   1.506   3.985   2.729 -0.2180 -0.0384 -0.3649
13463TIP3    H161804   1.443   4.040   2.776 -2.2421 -0.4391 -2.4539
13463TIP3    H261805   1.526   4.034   2.649  0.6407 -0.7867 -0.6176
13464TIP3   OH261806   2.091   6.320  16.808  0.3138 -0.8442 -0.0740
13464TIP3    H161807   2.131   6.377  16.873 -1.0129 -0.2616  0.2706
13464TIP3    H261808   2.146   6.329  16.731  0.1548  0.9070 -0.0229
13465TIP3   OH261809   4.304   2.379   6.610  0.5819  0.0567 -0.1834
13465TIP3    H161810   4.222   2.382   6.560  1.0250 -1.3217 -1.0567
13465TIP3    H261811   4.367   2.423   6.553  0.7063  0.0875 -0.0209
13466TIP3   OH261812   0.698   0.392   1.234 -0.8873 -0.3571  0.0186
13466TIP3    H161813   0.767   0.415   1.172 -0.6081 -1.1166  0.0436
13466TIP3    H261814   0.746   0.365   1.313 -1.2133 -0.8028  0.0648
13467TIP3   OH261815   3.142   2.124  14.114 -0.7239  0.2144  0.0694
13467TIP3    H161816   3.179   2.035  14.113 -0.2602  0.3999 -0.8588
13467TIP3    H261817   3.052   2.112  14.082 -0.6486  0.0818 -0.0978
13468TIP3   OH261818   4.782   5.812  11.259  0.2408 -0.4727 -0.5123
13468TIP3    H161819   4.779   5.716  11.254  0.5296 -0.5513  0.4932
13468TIP3    H261820   4.712   5.834  11.320 -0.6293  0.0612 -1.6668
13469TIP3   OH261821   4.229   3.787   3.663 -0.2684  0.3393 -0.6676
13469TIP3    H161822   4.168   3.860   3.662 -2.3377 -1.2231  1.1333
13469TIP3    H261823   4.248   3.773   3.756  1.1481 -0.5686 -1.0564
13470TIP3   OH261824   1.684   4.550   5.466 -0.2442  0.0637 -0.9302
13470TIP3    H161825   1.644   4.529   5.381 -2.8965  0.1540  0.1848
13470TIP3    H261826   1.634   4.497   5.529  1.1058  0.6210  0.6644
13471TIP3   OH261827   5.402   3.570  14.188 -0.3964 -0.1490  0.3621
13471TIP3    H161828   5.400   3.613  14.102 -1.0308 -0.4717  0.2117
13471TIP3    H261829   5.484   3.600  14.227 -0.3429  0.4018 -0.1501
13472TIP3   OH261830   3.152   3.699   3.974 -0.4053 -0.1494 -0.0674
13472TIP3    H161831   3.219   3.664   3.915  0.6867 -0.2049  1.1543
13472TIP3    H261832   3.090   3.626   3.985  0.6374 -0.9648  0.6619
13473TIP3   OH261833   0.610   2.997   5.550 -0.4506 -0.0342 -0.4580
13473TIP3    H161834   0.670   3.057   5.505  0.1931 -0.7748 -0.5997
13473TIP3    H261835   0.537   3.053   5.578  0.2945  0.8792 -0.2947
13474TIP3   OH261836   5.427   6.028  12.173  0.0426  0.1149 -0.0955
13474TIP3    H161837   5.406   5.936  12.157 -0.7935  0.1897  0.4622
13474TIP3    H261838   5.466   6.059  12.091  0.6150 -0.8096 -0.1795
13475TIP3   OH261839   1.050   3.522  13.284  0.2326 -0.1667 -0.4361
13475TIP3    H161840   1.142   3.543  13.267  0.0626  0.5343 -0.5388
13475TIP3    H261841   1.028   3.572  13.363 -0.1201 -0.1499 -0.5414
13476TIP3   OH261842   1.576   1.234   2.212  0.2070 -0.1223 -0.2048
13476TIP3    H161843   1.614   1.147   2.218 -0.5023 -0.4208  0.0591
13476TIP3    H261844   1.611   1.281   2.288  0.4261 -0.2376 -0.2338
13477TIP3   OH261845   0.266   5.732  13.597 -0.1043 -0.0251  0.7236
13477TIP3    H161846   0.226   5.818  13.595  0.4813  0.3977  3.2977
13477TIP3    H261847   0.216   5.684  13.663 -0.1141 -1.5175 -0.3206
13478TIP3   OH261848   1.691   3.553  11.182  1.0647  0.1985 -0.3630
13478TIP3    H161849   1.757   3.489  11.209 -1.2495 -2.2194  0.0112
13478TIP3    H261850   1.665   3.526  11.094 -2.7230 -2.0871  1.2027
13479TIP3   OH261851   4.287   3.896  11.405  0.3461  0.7041  0.1550
13479TIP3    H161852   4.321   3.845  11.478 -1.9747 -0.6348  0.4107
13479TIP3    H261853   4.198   3.862  11.391  0.4974  1.2719 -2.9617
13480TIP3   OH261854   0.803   2.368   2.126 -0.1655  0.2049  0.4684
13480TIP3    H161855   0.803   2.328   2.039  2.7727 -0.1923  0.5535
13480TIP3    H261856   0.789   2.295   2.185 -1.4242  0.3659  0.3950
13481TIP3   OH261857   4.635   6.377   0.937  0.1361  0.3555 -0.1988
13481TIP3    H161858   4.574   6.402   0.867  0.4254 -0.6564 -0.8331
13481TIP3    H261859   4.697   6.449   0.942 -0.1475  0.6369 -0.6890
13482TIP3   OH261860   2.853   5.317   2.288  0.0576  0.0976  0.1758
13482TIP3    H161861   2.888   5.283   2.371  0.9544 -3.0346 -1.3103
13482TIP3    H261862   2.909   5.392   2.268  0.8360 -0.0422  1.6580
13483TIP3   OH261863   0.415   0.452  16.724 -0.1326  0.4664  0.0266
13483TIP3    H161864   0.500   0.473  16.762 -0.0850 -1.0485  0.8247
13483TIP3    H261865   0.410   0.357  16.728 -1.4977  0.4748 -0.8432
13484TIP3   OH261866   5.638   0.042  10.898 -0.0370  0.0446  0.2797
13484TIP3    H161867   5.549   0.076  10.897  0.0041  0.1424 -0.0758
13484TIP3    H261868   5.676   0.077  10.979 -0.4453 -0.3307  0.6432
13485TIP3   OH261869   1.625   0.396  14.105 -0.5203  0.1859 -0.0876
13485TIP3    H161870   1.566   0.325  14.077  1.2517 -1.8115  0.9461
13485TIP3    H261871   1.573   0.445  14.169 -1.5177 -0.6937 -0.1807
13486TIP3   OH261872   2.388   1.417  12.025  0.3226  0.2588  0.3090
13486TIP3    H161873   2.356   1.342  11.975  0.9549 -0.3055  0.7381
13486TIP3    H261874   2.466   1.446  11.979 -0.4581  1.2901 -0.4208
13487TIP3   OH261875   6.453   4.112  14.793  0.0969 -0.5501 -0.0950
13487TIP3    H161876   6.457   4.168  14.870  2.2118 -1.5538  0.5964
13487TIP3    H261877   6.406   4.035  14.822  0.1181 -0.5495 -0.0585
13488TIP3   OH261878   6.747   6.587   2.471  0.2405 -0.1328  0.2504
13488TIP3    H161879   6.749   6.612   2.563 -0.5333 -1.0337  0.5203
13488TIP3    H261880   6.698   6.657   2.428  0.4121  0.1751  0.5559
13489TIP3   OH261881   1.080   2.407  16.303  0.1006 -0.2492 -0.2874
13489TIP3    H161882   1.022   2.354  16.249  0.9819 -1.0096 -0.5138
13489TIP3    H261883   1.081   2.363  16.388  1.3893 -1.0431 -0.6815
13490TIP3   OH261884   5.722   0.839  14.398  0.4496  0.4397 -0.2545
13490TIP3    H161885   5.776   0.794  14.333  1.6359  0.8799  0.3847
13490TIP3    H261886   5.645   0.867  14.350 -0.8585 -3.0818 -0.4885
13491TIP3   OH261887   3.954   6.439  11.237 -0.1847 -0.4482 -0.3285
13491TIP3    H161888   3.892   6.369  11.220  0.1854 -0.9303  0.2579
13491TIP3    H261889   3.984   6.466  11.150  0.3754 -1.6709 -0.5299
13492TIP3   OH261890   4.534   2.096  15.844  0.0329  0.4064  0.2901
13492TIP3    H161891   4.609   2.117  15.899  2.2067 -1.3150 -1.7758
13492TIP3    H261892   4.514   2.177  15.798 -0.5499  1.3338  2.0818
13493TIP3   OH261893   1.643   2.786   0.668  0.3132  0.6064  0.1053
13493TIP3    H161894   1.644   2.875   0.702 -0.0700  0.3619  0.7752
13493TIP3    H261895   1.558   2.751   0.693  0.0306  0.3998 -1.0882
13494TIP3   OH261896   5.734   2.110   4.055 -0.1646  0.1147 -0.4976
13494TIP3    H161897   5.821   2.092   4.019  0.5749  1.1231  0.7120
13494TIP3    H261898   5.733   2.204   4.070 -3.1072  0.9872 -4.5463
13495TIP3   OH261899   1.641   3.059   0.667  0.0765  0.2600 -0.4958
13495TIP3    H161900   1.732   3.069   0.641  0.3651 -1.7253 -0.3785
13495TIP3    H261901   1.634   3.105   0.751  1.2968 -0.6422  0.1192
13496TIP3   OH261902   5.814   4.032   3.264  0.2666 -0.1943 -0.1777
13496TIP3    H161903   5.894   4.042   3.213  0.4380  0.7406  0.2503
13496TIP3    H261904   5.830   4.080   3.345 -0.5897 -0.3103  0.0776
13497TIP3   OH261905   4.646   0.391  15.635  0.6361 -0.0334 -0.6127
13497TIP3    H161906   4.733   0.408  15.598  0.2431  2.0252 -0.6902
13497TIP3    H261907   4.662   0.371  15.727  1.2462 -0.5487 -0.8235
13498TIP3   OH261908   1.120   0.710   1.010 -0.1859  0.1210 -0.1098
13498TIP3    H161909   1.206   0.732   1.046  0.5976 -2.2763 -0.2923
13498TIP3    H261910   1.139   0.654   0.935 -1.8977  0.2428 -0.6712
13499TIP3   OH261911   5.179   6.661   0.696 -0.3985  0.0167  0.4732
13499TIP3    H161912   5.190   6.665   0.791 -1.9604  0.6048  0.6566
13499TIP3    H261913   5.185   6.752   0.667  3.2417 -0.3643 -0.4649
13500TIP3   OH261914   5.010   2.458   4.215  0.3738  0.1044  0.0431
13500TIP3    H161915   4.969   2.520   4.154  0.0685 -1.1144 -1.0248
13500TIP3    H261916   5.074   2.411   4.162 -1.4359 -2.5566 -0.0185
13501TIP3   OH261917   6.470   1.440   6.850 -0.2355 -0.4820  0.3328
13501TIP3    H161918   6.443   1.480   6.932 -0.6068 -0.6758  0.3073
13501TIP3    H261919   6.417   1.361   6.843 -0.6556 -0.1420 -0.3986
13502TIP3   OH261920   5.313   4.011   5.168  0.4997  0.3732 -0.2080
13502TIP3    H161921   5.266   4.094   5.178 -1.2173 -0.5066 -0.5902
13502TIP3    H261922   5.391   4.021   5.224 -0.5261  1.6030  1.0899
13503TIP3   OH261923   4.512   4.529   0.217  0.0507 -0.7074  0.2796
13503TIP3    H161924   4.512   4.614   0.173 -1.2037 -0.7057  0.2520
13503TIP3    H261925   4.511   4.464   0.146 -0.6229 -0.7202  0.2970
13504TIP3   OH261926   2.331   2.909  10.797  0.3795 -0.2536 -0.1533
13504TIP3    H161927   2.426   2.898  10.796  0.4944  0.6247  0.2085
13504TIP3    H261928   2.296   2.821  10.810  1.1857 -0.4519  0.7774
13505TIP3   OH261929   4.464   2.140   1.436  0.0756 -0.0109  0.1405
13505TIP3    H161930   4.407   2.105   1.368  2.0791 -0.5822 -1.3242
13505TIP3    H261931   4.404   2.182   1.498 -1.8114  1.2904 -2.3810
13506TIP3   OH261932   1.433   1.989  16.778 -0.4115 -0.4620  0.1238
13506TIP3    H161933   1.508   2.022  16.827 -0.6851  0.8848 -0.3273
13506TIP3    H261934   1.363   1.981  16.843 -0.3034 -0.2735  0.2632
13507TIP3   OH261935   5.769   3.503   6.106  0.1523  0.0313 -0.0694
13507TIP3    H161936   5.801   3.476   6.192  0.0837 -0.0222 -0.0607
13507TIP3    H261937   5.742   3.421   6.064 -1.5048  0.2335  0.5379
13508TIP3   OH261938   5.664   0.055  15.572  0.1614 -0.3859 -0.3847
13508TIP3    H161939   5.643   0.148  15.577  1.2825 -0.1558  0.3410
13508TIP3    H261940   5.759   0.052  15.556 -0.0075 -1.3990 -1.3844
13509TIP3   OH261941   2.788   3.521   5.674  0.2885 -0.0060  0.3346
13509TIP3    H161942   2.851   3.484   5.735  0.6686  0.2014  0.0748
13509TIP3    H261943   2.744   3.590   5.724  0.3967 -0.0301  0.4627
13510TIP3   OH261944   0.692   4.109   0.854 -0.5465  0.3492 -0.1241
13510TIP3    H161945   0.705   4.041   0.921  1.7032 -1.3323 -2.0886
13510TIP3    H261946   0.619   4.076   0.802 -0.3559  0.1128 -0.2479
13511TIP3   OH261947   6.216   4.556   5.591 -0.3156  0.8421 -0.8882
13511TIP3    H161948   6.275   4.512   5.529  0.1995  0.0604  0.1333
13511TIP3    H261949   6.199   4.490   5.658  1.0563  2.3981  1.0939
13512TIP3   OH261950   4.436   3.516   1.590  0.1426  0.7468  0.0072
13512TIP3    H161951   4.526   3.485   1.580 -0.1975  0.3723 -2.8172
13512TIP3    H261952   4.436   3.603   1.550 -0.4234  1.5055  1.5703
13513TIP3   OH261953   1.388   3.706   4.572  0.3504 -0.2056  0.4102
13513TIP3    H161954   1.428   3.702   4.485  0.2736 -1.2510  0.4112
13513TIP3    H261955   1.405   3.620   4.611 -0.2551 -0.0106  1.1429
13514TIP3   OH261956   0.751   4.883   2.966  0.2281  0.3908 -0.3382
13514TIP3    H161957   0.708   4.968   2.959  1.4674  0.9810 -0.9910
13514TIP3    H261958   0.678   4.820   2.966 -0.8224  1.4962  2.0074
13515TIP3   OH261959   2.175   5.862  12.072  0.5482  0.4472  0.0309
13515TIP3    H161960   2.225   5.785  12.099  0.1966  0.6925  1.4515
13515TIP3    H261961   2.221   5.895  11.994  1.9459  0.0380  0.6572
13516TIP3   OH261962   1.609   4.205  15.542 -0.2447  0.3173 -0.6928
13516TIP3    H161963   1.584   4.257  15.619 -1.0096 -1.1074  0.0618
13516TIP3    H261964   1.678   4.257  15.500 -0.4431  1.5688  0.4387
13517TIP3   OH261965   4.873   4.740   0.251 -0.2190  0.0735  0.4986
13517TIP3    H161966   4.911   4.652   0.245 -0.1013  0.1682 -0.2697
13517TIP3    H261967   4.887   4.766   0.342  0.8254 -0.2221  0.4396
13518TIP3   OH261968   4.416   1.612  14.710  0.3191 -0.0809 -0.1795
13518TIP3    H161969   4.510   1.629  14.701  0.7658 -1.1466  1.9215
13518TIP3    H261970   4.386   1.679  14.772 -0.9005  1.8071 -2.6008
13519TIP3   OH261971   1.643   5.738   0.615  0.0951  0.1523  0.1785
13519TIP3    H161972   1.679   5.763   0.700  0.5288 -0.5285  0.2015
13519TIP3    H261973   1.714   5.691   0.571 -0.6197 -0.8639  0.0674
13520TIP3   OH261974   3.332   2.622   0.789  0.2462  0.0730  0.2096
13520TIP3    H161975   3.249   2.645   0.748  0.0948  0.9974  0.9928
13520TIP3    H261976   3.335   2.527   0.786 -0.8237  0.0325  0.1286
13521TIP3   OH261977   5.804   2.162   4.783  0.8233 -0.5712  0.3283
13521TIP3    H161978   5.820   2.176   4.690  0.0890 -0.5822  0.1900
13521TIP3    H261979   5.754   2.080   4.787 -0.2482  0.0696  0.6084
13522TIP3   OH261980   3.981   5.393  10.776 -0.1932 -0.7158  0.5117
13522TIP3    H161981   4.065   5.350  10.784  0.2111 -0.0951 -0.2217
13522TIP3    H261982   3.947   5.363  10.692 -1.3105 -1.9679  1.3676
13523TIP3   OH261983   5.260   4.912   6.270  0.2625 -0.3957  0.2211
13523TIP3    H161984   5.282   4.854   6.198 -2.9912 -0.1205 -1.1501
13523TIP3    H261985   5.307   4.993   6.251 -1.6708  0.1935 -2.5268
13524TIP3   OH261986   1.177   0.612  14.853  0.2570  0.0758 -0.1834
13524TIP3    H161987   1.248   0.565  14.809 -1.3017 -1.7468 -0.9044
13524TIP3    H261988   1.139   0.547  14.913 -0.8734  0.9528  0.0913
13525TIP3   OH261989   1.903   3.081   3.277 -0.3486  0.0425  0.5276
13525TIP3    H161990   1.866   3.114   3.359  2.2212  1.4779  1.2089
13525TIP3    H261991   1.852   3.123   3.209 -0.5519  1.2758  1.4133
13526TIP3   OH261992   3.753   5.234   0.075 -0.7033 -0.8305  0.1550
13526TIP3    H161993   3.783   5.324   0.059 -0.6422 -1.0635 -1.1243
13526TIP3    H261994   3.832   5.187   0.103  0.4460 -1.5742 -3.7147
13527TIP3   OH261995   5.799   4.381   6.007 -0.3235  0.4581 -0.0495
13527TIP3    H161996   5.796   4.372   6.102 -1.8351 -1.1872 -0.1920
13527TIP3    H261997   5.707   4.387   5.981  0.0516  0.4929 -1.4514
13528TIP3   OH261998   3.632   1.170   3.747  0.2050 -0.1693 -0.3088
13528TIP3    H161999   3.576   1.202   3.818 -0.5127 -1.4929 -0.2462
13528TIP3    H262000   3.662   1.085   3.777  0.2401 -0.5562 -1.4196
13529TIP3   OH262001   6.263   1.968  12.468  1.0738  0.0400 -0.0566
13529TIP3    H162002   6.354   1.997  12.470  1.1351 -0.1432 -0.0985
13529TIP3    H262003   6.262   1.899  12.402  1.4530 -1.7467  1.6937
13530TIP3   OH262004   3.205   3.914  16.348 -0.4436  0.2558  0.3690
13530TIP3    H162005   3.232   4.006  16.354  1.0559 -0.0464 -1.0931
13530TIP3    H262006   3.252   3.871  16.420  1.8912  0.0329 -1.1726
13531TIP3   OH262007   4.999   5.345  11.795 -0.8365  0.0360 -0.5809
13531TIP3    H162008   4.944   5.422  11.782  0.2379  1.2272  1.4096
13531TIP3    H262009   5.076   5.361  11.740 -0.1021  0.9935  0.6655
13532TIP3   OH262010   4.993   1.696   0.595 -1.0415  0.1296  0.9960
13532TIP3    H162011   4.985   1.764   0.528  1.1415 -1.0131 -0.5481
13532TIP3    H262012   4.920   1.637   0.578  0.3679 -1.0473 -1.5923
13533TIP3   OH262013   5.003   1.505  15.767 -0.5442  0.0046  0.0216
13533TIP3    H162014   5.077   1.565  15.758 -0.5513  0.1968  1.1284
13533TIP3    H262015   5.007   1.450  15.689  0.0679  0.7734 -0.5071
13534TIP3   OH262016   3.376   1.611  13.134  0.1261 -0.0969  0.6338
13534TIP3    H162017   3.333   1.528  13.112 -0.5054 -0.0527  1.6450
13534TIP3    H262018   3.417   1.594  13.218  0.1280  0.5754  0.7694
13535TIP3   OH262019   0.382   3.801   4.796  0.3227  0.1790 -0.1051
13535TIP3    H162020   0.444   3.870   4.774 -1.7884  1.6262 -2.0118
13535TIP3    H262021   0.412   3.725   4.745  0.5243  0.8603 -1.0339
13536TIP3   OH262022   3.670   3.151  14.550  0.5693 -0.5411 -0.3666
13536TIP3    H162023   3.753   3.173  14.508  0.1007  0.8889 -0.6241
13536TIP3    H262024   3.652   3.225  14.608 -0.5781 -0.7646 -0.4114
13537TIP3   OH262025   3.471   5.979   0.468  0.5231  0.0160 -0.3237
13537TIP3    H162026   3.459   6.073   0.454  1.0087  0.0737 -0.3460
13537TIP3    H262027   3.412   5.958   0.541  0.4180  0.3340 -0.3132
13538TIP3   OH262028   5.967   0.752  14.590  0.4847 -0.3127  0.4915
13538TIP3    H162029   6.043   0.739  14.533 -0.5658  0.0065 -1.0416
13538TIP3    H262030   5.921   0.827  14.552 -1.3923 -1.4128  0.4626
13539TIP3   OH262031   2.851   5.609   4.903  1.0413 -0.1863 -0.0172
13539TIP3    H162032   2.761   5.609   4.873  1.3443 -1.8604 -1.0484
13539TIP3    H262033   2.903   5.611   4.823  1.9339  0.3868  0.5516
13540TIP3   OH262034   4.582   2.113  12.767  0.6803 -0.7017 -0.5839
13540TIP3    H162035   4.610   2.204  12.755 -0.1410 -0.3814 -0.1322
13540TIP3    H262036   4.533   2.113  12.849  1.9329 -1.8564  0.2147
13541TIP3   OH262037   1.807   0.627  11.467  0.2376  0.4630  0.4457
13541TIP3    H162038   1.861   0.627  11.388  1.8871  0.6779  1.5209
13541TIP3    H262039   1.786   0.719  11.482  0.4412  0.4946  0.5594
13542TIP3   OH262040   2.649   6.587   1.417 -0.5071  0.0624  0.3375
13542TIP3    H162041   2.720   6.645   1.443 -0.0690 -0.6304  0.7432
13542TIP3    H262042   2.619   6.621   1.333  1.5664 -0.7133 -0.7716
13543TIP3   OH262043   6.494   5.300  13.227  0.4403 -0.5903  0.3500
13543TIP3    H162044   6.409   5.344  13.225  0.6500 -0.1972 -0.2073
13543TIP3    H262045   6.487   5.231  13.161  1.0964  0.4965 -0.9070
13544TIP3   OH262046   5.338   6.139  13.376  0.0886 -0.0362 -0.1167
13544TIP3    H162047   5.310   6.168  13.463 -3.2399  0.4639 -1.1942
13544TIP3    H262048   5.297   6.201  13.316 -0.5800 -2.3141 -2.1602
13545TIP3   OH262049   6.027   5.030   3.873  0.4611 -0.3644  0.0150
13545TIP3    H162050   6.010   4.967   3.944  0.1792  0.1167  0.3771
13545TIP3    H262051   5.987   5.111   3.903 -1.3906 -0.6318 -1.5416
13546TIP3   OH262052   4.936   2.798   0.345  0.2349 -0.0657 -0.0983
13546TIP3    H162053   4.844   2.777   0.362  0.4731 -1.9359 -0.7733
13546TIP3    H262054   4.964   2.729   0.285  2.1416  0.3479  0.2722
13547TIP3   OH262055   6.338   2.280   5.487  0.0871 -0.0957  0.3888
13547TIP3    H162056   6.261   2.241   5.447  0.2865 -0.6703  0.5616
13547TIP3    H262057   6.349   2.363   5.441 -0.3391 -0.2394  0.0200
13548TIP3   OH262058   4.544   6.233  10.911 -0.0651  0.5558 -0.1744
13548TIP3    H162059   4.495   6.195  10.984  2.8827 -0.6712  1.3252
13548TIP3    H262060   4.558   6.324  10.937 -0.8519  0.7208 -0.2828
13549TIP3   OH262061   4.344   4.942  14.425 -0.0983 -0.0655  0.0189
13549TIP3    H162062   4.396   5.018  14.450 -0.4026 -0.2792  1.3985
13549TIP3    H262063   4.403   4.889  14.371 -0.9312  2.7259 -4.1174
13550TIP3   OH262064   2.568   2.222   1.658  0.1523  0.1988 -0.2943
13550TIP3    H162065   2.587   2.277   1.581 -1.1871 -0.9293 -1.4944
13550TIP3    H262066   2.513   2.277   1.714  3.5847  2.1761  1.4840
13551TIP3   OH262067   0.779   3.161  16.371  0.0548 -0.1347  0.0256
13551TIP3    H162068   0.828   3.242  16.387  0.5870 -0.1624 -1.3856
13551TIP3    H262069   0.831   3.093  16.413  1.1989 -0.1411 -1.3295
13552TIP3   OH262070   0.474   5.400  13.117 -0.4842 -0.2110 -0.4623
13552TIP3    H162071   0.563   5.405  13.153 -0.3180 -2.3075 -0.4192
13552TIP3    H262072   0.418   5.395  13.194 -0.7682  2.0448 -0.4731
13553TIP3   OH262073   4.124   2.917  17.017  0.3664 -0.1778  0.2704
13553TIP3    H162074   4.171   2.835  16.999 -0.7882 -0.6750 -0.5675
13553TIP3    H262075   4.034   2.899  16.991  0.1652  1.4725 -0.2590
13554TIP3   OH262076   3.621   3.640  11.973  0.2676 -0.4217  0.6004
13554TIP3    H162077   3.698   3.584  11.984 -0.3296 -1.2821  0.5410
13554TIP3    H262078   3.565   3.592  11.912 -0.1351  0.3861  0.3180
13555TIP3   OH262079   1.448   3.451  17.128 -0.0377 -0.0731  0.2235
13555TIP3    H162080   1.532   3.495  17.143  0.5590 -1.2598  0.4545
13555TIP3    H262081   1.382   3.517  17.150  0.8178  0.1810  2.2316
13556TIP3   OH262082   3.894   4.708  11.388  0.3179  0.4081  0.1488
13556TIP3    H162083   3.808   4.738  11.359 -0.9506 -2.2970  0.7157
13556TIP3    H262084   3.879   4.679  11.478  1.1481 -2.2972 -0.5030
13557TIP3   OH262085   1.830   4.128   5.634 -0.1702 -0.2649  0.0564
13557TIP3    H162086   1.798   4.218   5.643 -1.0018 -0.4298 -0.9846
13557TIP3    H262087   1.880   4.128   5.552 -1.1494 -1.0009 -0.5614
13558TIP3   OH262088   0.618   6.012  12.338 -0.4076  0.3964 -0.0158
13558TIP3    H162089   0.670   5.939  12.304 -1.9500 -0.5531 -0.4046
13558TIP3    H262090   0.528   5.979  12.341 -1.2940  2.5455 -0.9612
13559TIP3   OH262091   3.246   2.025   6.698  0.0306  0.0349 -0.1746
13559TIP3    H162092   3.321   2.004   6.753  0.0310 -2.0115 -0.8320
13559TIP3    H262093   3.180   2.059   6.758  1.2593  1.3537  0.4903
13560TIP3   OH262094   2.638   4.146   2.750 -0.1540 -0.6707 -0.1976
13560TIP3    H162095   2.646   4.054   2.727  1.1856 -0.4248 -0.7673
13560TIP3    H262096   2.622   4.146   2.845 -0.4620 -1.4869 -0.2437
13561TIP3   OH262097   6.527   1.445   4.290 -0.3639  0.5940  0.2379
13561TIP3    H162098   6.576   1.445   4.372 -1.5769  2.0614  1.0173
13561TIP3    H262099   6.440   1.415   4.314 -0.4292 -0.0524 -0.7485
13562TIP3   OH262100   0.861   3.794   1.894  0.2771 -0.0587  0.3997
13562TIP3    H162101   0.836   3.737   1.822  2.2364 -0.1676 -0.2400
13562TIP3    H262102   0.838   3.745   1.973  2.0312 -1.8229 -0.1261
13563TIP3   OH262103   5.030   4.576   4.708  0.1622 -0.4669 -0.3898
13563TIP3    H162104   5.053   4.501   4.653  0.0197 -2.6538  2.2967
13563TIP3    H262105   5.023   4.539   4.796 -2.3535  2.2528  0.7097
13564TIP3   OH262106   3.227   6.188  15.365  0.3053 -0.5778 -0.2863
13564TIP3    H162107   3.188   6.270  15.336 -1.0604 -1.4050 -0.8721
13564TIP3    H262108   3.307   6.180  15.313 -0.1758 -0.2155 -1.0954
13565TIP3   OH262109   4.697   6.556   1.135 -0.6356 -0.7743 -0.4082
13565TIP3    H162110   4.760   6.604   1.080 -0.7514 -1.5583 -1.2686
13565TIP3    H262111   4.721   6.578   1.225 -0.4409  0.5597 -0.7681
13566TIP3   OH262112   1.728   1.618  14.396  0.3533 -0.2412 -0.4746
13566TIP3    H162113   1.658   1.683  14.391 -0.6699 -1.2186  0.5782
13566TIP3    H262114   1.685   1.538  14.425  2.0150 -0.6876  0.9695
13567TIP3   OH262115   1.138   4.263  12.196 -0.0837 -0.3089  0.3709
13567TIP3    H162116   1.065   4.202  12.208 -2.7432  2.5242 -0.3501
13567TIP3    H262117   1.161   4.254  12.104 -1.8543  1.1242 -0.2555
13568TIP3   OH262118   2.430   6.512   3.708  0.0306  0.3337 -0.0262
13568TIP3    H162119   2.517   6.550   3.722  0.0655  0.4283 -0.4920
13568TIP3    H262120   2.382   6.533   3.788  0.1998  0.9443 -0.0785
13569TIP3   OH262121   2.560   5.587   2.228  0.3614  0.1543  0.1319
13569TIP3    H162122   2.617   5.639   2.171  1.3022  0.0484  0.9554
13569TIP3    H262123   2.544   5.643   2.304  0.6555 -0.4069  0.6177
13570TIP3   OH262124   2.735   6.171   0.054  0.1800 -0.3953 -0.0610
13570TIP3    H162125   2.785   6.229   0.110 -0.8870  0.2640  0.2447
13570TIP3    H262126   2.737   6.086   0.098  0.9735 -0.3624 -0.0339
13571TIP3   OH262127   0.494   2.680   2.273  0.2158  0.5285 -0.5430
13571TIP3    H162128   0.548   2.685   2.352  1.3432 -0.0605 -1.2624
13571TIP3    H262129   0.471   2.588   2.266 -0.1909  0.6420 -0.7143
13572TIP3   OH262130   0.739   5.756  12.235  0.0016  0.1685  0.2490
13572TIP3    H162131   0.825   5.753  12.193  0.2055  1.9653  0.4478
13572TIP3    H262132   0.749   5.702  12.313  0.5144 -0.7908 -0.4690
13573TIP3   OH262133   5.433   5.542  13.789  0.4774 -0.0901  0.5352
13573TIP3    H162134   5.390   5.528  13.705  2.4451 -0.6850 -0.4307
13573TIP3    H262135   5.521   5.572  13.767  0.7980  0.5428  2.4187
13574TIP3   OH262136   0.984   1.785  13.386  0.3051 -0.2820 -0.4106
13574TIP3    H162137   0.980   1.880  13.395  1.6695 -0.3287  1.0471
13574TIP3    H262138   1.043   1.756  13.455  1.1091 -2.0666 -1.7641
13575TIP3   OH262139   2.684   0.677  14.155 -0.6158  0.0632 -0.2333
13575TIP3    H162140   2.595   0.667  14.189 -0.8240 -0.9843 -1.0368
13575TIP3    H262141   2.678   0.752  14.095 -0.9985 -0.1207 -0.4269
13576TIP3   OH262142   2.165   6.232  13.394 -0.4517 -0.1456 -0.0248
13576TIP3    H162143   2.153   6.147  13.436  1.2654  0.4942  1.9515
13576TIP3    H262144   2.134   6.295  13.459  0.0515  0.7973 -0.6864
13577TIP3   OH262145   1.811   1.385  15.617 -0.1500 -0.4489  0.0236
13577TIP3    H162146   1.799   1.320  15.686 -0.0122 -0.1650  0.3117
13577TIP3    H262147   1.851   1.460  15.660 -1.2541  0.2296 -0.0952
13578TIP3   OH262148   1.833   4.515  16.235  0.0067  0.0848 -0.8725
13578TIP3    H162149   1.806   4.424  16.229  0.9538 -0.1376 -2.1353
13578TIP3    H262150   1.766   4.556  16.290 -1.6320 -0.9135 -2.0275
13579TIP3   OH262151   1.334   4.710   1.726 -0.5763  0.1363  0.6477
13579TIP3    H162152   1.392   4.761   1.783 -1.6283 -0.3653  2.2455
13579TIP3    H262153   1.357   4.619   1.743 -0.3560 -0.0149 -0.3749
13580TIP3   OH262154   3.147   4.926   3.522  0.2190  0.2918 -0.0738
13580TIP3    H162155   3.122   4.881   3.442  2.0644 -0.0398 -0.5054
13580TIP3    H262156   3.097   4.882   3.591 -0.7016 -0.0122 -0.9177
13581TIP3   OH262157   5.539   0.067  13.318  0.3577 -0.2797 -0.0603
13581TIP3    H162158   5.626   0.090  13.351  0.8072 -2.9763  0.9163
13581TIP3    H262159   5.548   0.073  13.223  1.2346  0.5993  0.0514
13582TIP3   OH262160   2.608   5.514   3.446 -0.0790 -0.0856  0.0501
13582TIP3    H162161   2.544   5.578   3.413  0.0466 -0.0640 -0.1518
13582TIP3    H262162   2.609   5.529   3.540 -0.1881  0.0857  0.0263
13583TIP3   OH262163   6.631   1.372  14.248  0.5798  0.4602 -0.1918
13583TIP3    H162164   6.696   1.310  14.282 -0.3027 -0.9127 -0.9476
13583TIP3    H262165   6.578   1.395  14.325 -0.2215 -1.1570 -0.2220
13584TIP3   OH262166   3.175   4.846   3.244  0.1947  0.4453  0.0305
13584TIP3    H162167   3.248   4.871   3.187 -0.5077  0.8603 -0.7239
13584TIP3    H262168   3.113   4.919   3.236  0.3748  0.8304  1.8833
13585TIP3   OH262169   1.089   0.448  11.788  0.1991  0.2981  0.2965
13585TIP3    H162170   1.043   0.425  11.869  0.5609  1.3201  0.8025
13585TIP3    H262171   1.175   0.406  11.796 -0.1933 -0.6247 -0.1242
13586TIP3   OH262172   0.758   4.094  11.233 -0.0473 -0.4603 -0.3500
13586TIP3    H162173   0.782   4.002  11.239 -0.1528 -0.3876  2.7045
13586TIP3    H262174   0.684   4.096  11.171  1.0300 -2.1230 -1.7728
13587TIP3   OH262175   5.675   4.158  12.085 -0.4239 -0.1276 -0.5308
13587TIP3    H162176   5.712   4.199  12.163 -1.2634  1.4204 -0.9038
13587TIP3    H262177   5.583   4.140  12.108 -0.4269 -0.5280 -0.8429
13588TIP3   OH262178   0.565   3.609  13.898  0.8393  0.0163  0.1235
13588TIP3    H162179   0.648   3.607  13.944  0.8232  1.2529  0.2421
13588TIP3    H262180   0.558   3.698  13.864 -0.5080 -0.0116  0.2529
13589TIP3   OH262181   2.191   3.214  11.723 -0.0914 -0.1682  0.1246
13589TIP3    H162182   2.173   3.163  11.645 -3.2895  1.7046 -0.5190
13589TIP3    H262183   2.232   3.294  11.691 -1.2743  0.5425  0.3344
13590TIP3   OH262184   4.420   5.979   4.431 -0.1075 -0.6976 -0.1681
13590TIP3    H162185   4.365   5.952   4.359 -0.9751 -1.3664  0.7247
13590TIP3    H262186   4.421   5.904   4.491 -0.1015  0.1386  0.9136
13591TIP3   OH262187   5.787   0.195   2.543 -0.0034  0.2638 -0.4184
13591TIP3    H162188   5.736   0.256   2.597  0.6428  1.1108 -0.7555
13591TIP3    H262189   5.876   0.229   2.545  0.6001 -1.2490  0.2227
13592TIP3   OH262190   1.876   1.010  14.005 -0.5833 -0.8202 -0.0575
13592TIP3    H162191   1.877   0.994  13.911 -0.3686  0.2515 -0.2495
13592TIP3    H262192   1.789   0.982  14.034 -1.1899  0.1781 -0.8346
13593TIP3   OH262193   0.956   5.375   2.876 -0.0008  0.7345 -0.4794
13593TIP3    H162194   1.005   5.405   2.800  0.3111 -2.6422 -1.8036
13593TIP3    H262195   0.997   5.418   2.951  1.9976  1.4799 -1.9443
13594TIP3   OH262196   4.200   5.457  12.019 -0.3682  0.5353 -0.8784
13594TIP3    H162197   4.215   5.393  11.949 -0.1779  0.4898 -0.7965
13594TIP3    H262198   4.271   5.441  12.081  0.5919  1.8410 -1.5859
13595TIP3   OH262199   2.889   0.840  12.944  0.6834  0.4121 -0.1784
13595TIP3    H162200   2.981   0.858  12.966  0.7330  0.4406 -0.4115
13595TIP3    H262201   2.884   0.745  12.938  0.8338  0.4391 -0.7608
13596TIP3   OH262202   5.756   4.044  14.340  0.1176 -0.1711 -0.8418
13596TIP3    H162203   5.805   4.089  14.272  1.4907  1.2301  0.9849
13596TIP3    H262204   5.815   3.976  14.371  0.3356  0.5101  0.2971
13597TIP3   OH262205   1.808   3.772   1.780 -0.2511 -0.0113  0.4530
13597TIP3    H162206   1.857   3.841   1.735 -0.7169  0.6560  0.9520
13597TIP3    H262207   1.763   3.817   1.851 -0.9808 -0.7446  0.4689
13598TIP3   OH262208   3.616   4.916  12.337  1.1646 -0.2985  0.1003
13598TIP3    H162209   3.571   4.928  12.421  3.7067  1.5314  1.3113
13598TIP3    H262210   3.546   4.924  12.272 -0.4921  0.9771  1.9214
13599TIP3   OH262211   1.991   6.315  13.871 -0.7372  0.1323 -0.1408
13599TIP3    H162212   2.075   6.360  13.880 -0.7521  0.3161 -0.8442
13599TIP3    H262213   1.928   6.376  13.911 -0.4131 -0.4926  1.3881
13600TIP3   OH262214   6.502   1.466   3.515  0.4588  0.5577 -0.0691
13600TIP3    H162215   6.541   1.407   3.578  1.7203 -0.1573 -1.4670
13600TIP3    H262216   6.438   1.412   3.468 -0.0797  0.9414  0.2088
13601TIP3   OH262217   4.463   4.497   5.344  0.2323  0.0366  0.1257
13601TIP3    H162218   4.397   4.457   5.400  0.7113  0.9374  1.3830
13601TIP3    H262219   4.494   4.573   5.393  1.3613  0.3163 -0.9492
13602TIP3   OH262220   5.492   3.068  12.672 -0.3563 -0.1655 -0.0620
13602TIP3    H162221   5.567   3.128  12.669  0.1945 -0.7601  0.9481
13602TIP3    H262222   5.525   2.986  12.637 -0.3546 -0.5909  0.8947
13603TIP3   OH262223   5.614   2.918  16.072 -0.3155  0.0865  0.3920
13603TIP3    H162224   5.591   2.972  16.148  0.4542  2.1315 -0.7360
13603TIP3    H262225   5.596   2.974  15.997  1.0206 -1.0536 -0.8296
13604TIP3   OH262226   2.015   4.801  16.465  0.4771 -0.4503 -0.3681
13604TIP3    H162227   1.934   4.749  16.461  0.4111 -0.5182  1.2114
13604TIP3    H262228   2.059   4.782  16.382 -0.5200 -1.4260 -0.7080
13605TIP3   OH262229   2.051   2.985   1.933 -0.0837 -0.1105  0.0372
13605TIP3    H162230   2.005   2.996   2.017 -2.0843 -2.1597 -0.6786
13605TIP3    H262231   1.981   2.968   1.870  0.9797  4.2660 -2.8165
13606TIP3   OH262232   0.176   1.208  16.294 -0.1658 -0.1296  0.0452
13606TIP3    H162233   0.223   1.216  16.211 -0.5806 -1.4306 -0.3399
13606TIP3    H262234   0.174   1.297  16.328  0.3486  0.3746 -1.1503
13607TIP3   OH262235   3.045   1.301   2.206 -0.2245  0.0778  0.1903
13607TIP3    H162236   3.079   1.349   2.281 -0.2043  0.7765 -0.2482
13607TIP3    H262237   2.970   1.353   2.177  0.3588  0.3802 -0.8622
13608TIP3   OH262238   5.198   0.031  15.142  0.0098 -0.1744  0.6714
13608TIP3    H162239   5.179   0.064  15.229  1.3912  2.0581  0.2377
13608TIP3    H262240   5.138   0.079  15.084  0.5628  0.0041  0.2254
13609TIP3   OH262241   1.235   1.613   3.421 -0.1302 -0.3202 -0.1235
13609TIP3    H162242   1.159   1.574   3.377  0.3025 -2.3743  0.7914
13609TIP3    H262243   1.277   1.539   3.465  0.2766  1.3728  2.5398
13610TIP3   OH262244   2.433   5.524  10.902 -0.3971  0.5405 -0.2670
13610TIP3    H162245   2.465   5.597  10.849 -0.1794  1.3916  0.9922
13610TIP3    H262246   2.354   5.557  10.944  0.4932  0.6022  1.4611
13611TIP3   OH262247   0.265   0.652   4.982  0.3551  0.1485 -0.4093
13611TIP3    H162248   0.230   0.579   5.032  3.0671 -1.1057 -0.2145
13611TIP3    H262249   0.266   0.621   4.891  0.7887  0.2616 -0.4423
13612TIP3   OH262250   1.240   1.520   4.566  0.6505 -0.3914 -0.0499
13612TIP3    H162251   1.304   1.577   4.524 -0.1770  1.2618  0.8633
13612TIP3    H262252   1.242   1.545   4.658 -1.5702 -0.0131 -0.0628
13613TIP3   OH262253   2.253   4.907   5.495  0.0679 -0.4137 -0.1874
13613TIP3    H162254   2.254   4.975   5.427 -0.3677  0.8697  1.0325
13613TIP3    H262255   2.242   4.956   5.577  1.0487 -1.8862  0.8579
13614TIP3   OH262256   1.493   3.258  15.768  0.0622  0.0149  0.2702
13614TIP3    H162257   1.444   3.321  15.820 -1.4698 -0.5235 -0.4719
13614TIP3    H262258   1.528   3.310  15.695  0.8934  0.4603  0.9655
13615TIP3   OH262259   4.802   5.700   4.262  0.4518 -0.4571  0.0336
13615TIP3    H162260   4.810   5.741   4.176  0.8406 -1.0241 -0.2094
13615TIP3    H262261   4.777   5.609   4.242  0.3026 -0.5260  0.5274
13616TIP3   OH262262   1.846   2.839   6.078  0.2488 -0.0312 -0.6539
13616TIP3    H162263   1.855   2.767   6.141  3.0070  0.7395 -0.0271
13616TIP3    H262264   1.930   2.839   6.031  0.1582  2.4690 -0.9303
13617TIP3   OH262265   2.783   3.095  14.138  0.2456  0.0071 -0.0070
13617TIP3    H162266   2.760   3.169  14.193 -1.6273 -0.3926 -0.2098
13617TIP3    H262267   2.728   3.103  14.061  0.1821 -1.4530 -0.1483
13618TIP3   OH262268   2.705   6.609   6.109  0.3350  0.2659 -0.6409
13618TIP3    H162269   2.749   6.531   6.074 -0.1368  0.1837 -1.0545
13618TIP3    H262270   2.769   6.679   6.097  0.5669  0.0410 -0.7282
13619TIP3   OH262271   2.877   0.548  16.909 -0.2379  0.3632 -0.4160
13619TIP3    H162272   2.843   0.573  16.995 -0.5102  0.5781 -0.5865
13619TIP3    H262273   2.970   0.531  16.924 -0.3048  0.3074 -0.0608
13620TIP3   OH262274   2.954   6.770   5.375 -0.0089  0.0768 -0.1637
13620TIP3    H162275   2.891   6.767   5.447  0.3025  1.9570  0.2414
13620TIP3    H262276   3.032   6.728   5.410  0.2223  1.1969  0.7067
13621TIP3   OH262277   1.192   3.400  15.324  0.6322 -0.8409  0.2883
13621TIP3    H162278   1.260   3.333  15.335  1.8862  0.2285 -0.6835
13621TIP3    H262279   1.190   3.445  15.409  2.5898  0.3927 -0.2559
13622TIP3   OH262280   4.511   5.400   3.803  0.0135  0.1819 -0.4420
13622TIP3    H162281   4.420   5.373   3.792 -0.1815  0.5343  0.3058
13622TIP3    H262282   4.553   5.325   3.847 -0.1630  0.4474  0.1843
13623TIP3   OH262283   2.444   2.631  13.224  0.1920 -0.5099  0.3453
13623TIP3    H162284   2.406   2.601  13.142 -1.7004 -0.0962  1.0088
13623TIP3    H262285   2.522   2.680  13.199 -1.5929  1.6376 -1.4563
13624TIP3   OH262286   6.576   0.599   2.426  0.2167 -0.0746  0.3161
13624TIP3    H162287   6.589   0.691   2.452 -0.8935  0.5042 -1.0268
13624TIP3    H262288   6.665   0.567   2.408  0.6765  0.5305  1.4062
13625TIP3   OH262289   6.716   4.439  13.975 -0.2348  0.1726 -0.1844
13625TIP3    H162290   6.724   4.352  13.936  2.4705 -0.1739  0.9060
13625TIP3    H262291   6.751   4.430  14.063 -0.6581  2.2136  0.2597
13626TIP3   OH262292   0.628   3.738   6.641 -0.1247 -0.0957  0.3265
13626TIP3    H162293   0.556   3.801   6.654 -0.6999 -0.3687 -1.2596
13626TIP3    H262294   0.707   3.791   6.646 -0.5700  0.6733 -0.3173
13627TIP3   OH262295   1.444   1.425   3.104  0.5984  0.3902 -0.9291
13627TIP3    H162296   1.515   1.375   3.144 -0.1931  0.5002  0.6969
13627TIP3    H262297   1.365   1.397   3.151  0.0442  2.7276 -0.3212
13628TIP3   OH262298   4.140   2.471   0.766  0.1141  0.5848 -0.4268
13628TIP3    H162299   4.082   2.444   0.695 -0.3792  1.0622 -0.2228
13628TIP3    H262300   4.083   2.520   0.825  0.7098  0.9688 -0.1597
13629TIP3   OH262301   4.144   6.004  12.822  0.1549  0.3437 -0.8300
13629TIP3    H162302   4.089   5.992  12.900 -1.7265 -0.3213 -2.1863
13629TIP3    H262303   4.192   5.921  12.814  0.7765  0.6145 -0.1188
13630TIP3   OH262304   1.091   1.338  14.606  0.1166  0.2919 -0.2780
13630TIP3    H162305   0.995   1.342  14.613 -0.1246 -3.3293  0.5083
13630TIP3    H262306   1.108   1.348  14.512 -1.1895 -0.5667 -0.6386
13631TIP3   OH262307   4.410   2.565   4.480  0.2409  0.0230  0.1893
13631TIP3    H162308   4.380   2.480   4.511  1.6453 -0.2623  0.8693
13631TIP3    H262309   4.340   2.597   4.424 -1.3453 -0.5543  1.7393
13632TIP3   OH262310   5.515   1.909  14.300  0.0671  0.2610  0.1049
13632TIP3    H162311   5.529   1.822  14.261 -2.1450 -0.9974  1.8539
13632TIP3    H262312   5.592   1.924  14.354  0.0167 -1.1207  0.5936
13633TIP3   OH262313   4.309   2.183   2.235  0.0311 -0.0006  0.0847
13633TIP3    H162314   4.265   2.098   2.226  0.9119 -0.5027  0.4430
13633TIP3    H262315   4.401   2.162   2.245  0.2902  1.0187 -0.0191
13634TIP3   OH262316   4.609   6.545  16.611 -0.0624 -0.0209  0.4649
13634TIP3    H162317   4.655   6.484  16.553  1.4621  0.0539  1.5465
13634TIP3    H262318   4.523   6.557  16.569  0.3014 -1.4020 -0.7752
13635TIP3   OH262319   3.182   5.231   2.938  0.3661  0.5488 -0.1315
13635TIP3    H162320   3.194   5.208   3.030  0.3379 -1.1442 -0.5139
13635TIP3    H262321   3.135   5.314   2.940  0.9511  0.8755  1.3724
13636TIP3   OH262322   0.755   3.868   6.360  0.2610 -0.2923  0.1533
13636TIP3    H162323   0.769   3.895   6.451 -2.1871  0.5415  0.3565
13636TIP3    H262324   0.690   3.929   6.327 -0.8974 -2.2127 -1.3293
13637TIP3   OH262325   6.770   2.241   3.465  0.0073 -0.3960 -0.2487
13637TIP3    H162326   6.809   2.227   3.378 -0.8711 -0.3815 -0.6563
13637TIP3    H262327   6.833   2.296   3.511 -0.1741  0.8491 -1.4023
13638TIP3   OH262328   5.209   3.714  14.590 -0.0423 -0.3613 -0.2314
13638TIP3    H162329   5.151   3.646  14.624  0.8394 -1.5053 -0.9492
13638TIP3    H262330   5.289   3.706  14.641  0.0666  0.1554 -0.3123
13639TIP3   OH262331   2.459   2.663  15.987 -0.0312 -0.0004 -0.2437
13639TIP3    H162332   2.390   2.615  16.033  1.4494 -1.8064  0.1855
13639TIP3    H262333   2.519   2.691  16.057  1.9469 -2.2708 -0.9137
13640TIP3   OH262334   2.660   1.668  11.463 -0.2152 -0.1717 -0.2107
13640TIP3    H162335   2.572   1.695  11.489 -0.1093 -0.2706  0.2408
13640TIP3    H262336   2.692   1.614  11.535  0.4736  0.4133 -0.0607
13641TIP3   OH262337   0.962   4.451   1.232 -0.4237 -0.2189  0.4825
13641TIP3    H162338   0.946   4.361   1.260 -0.1692 -0.4263 -0.0281
13641TIP3    H262339   0.964   4.501   1.314 -0.2328 -0.7260  0.7969
13642TIP3   OH262340   4.862   5.519  13.863  0.0857  0.2730 -0.0060
13642TIP3    H162341   4.794   5.453  13.848  1.0129 -0.6467 -0.2905
13642TIP3    H262342   4.870   5.564  13.779 -2.5615  2.8096  0.9080
13643TIP3   OH262343   2.957   1.701   3.028  0.0055  0.5490 -0.0740
13643TIP3    H162344   2.863   1.684   3.019  0.1960 -0.0293 -1.2090
13643TIP3    H262345   2.982   1.653   3.107 -0.6167  0.5516  0.1322
13644TIP3   OH262346   6.083   1.879   0.636 -0.3591 -0.4977 -0.1147
13644TIP3    H162347   6.156   1.843   0.585 -0.9998 -1.3212 -0.4715
13644TIP3    H262348   6.113   1.874   0.727  1.0265  1.5131 -0.3920
13645TIP3   OH262349   3.183   5.833   2.965  0.5125  0.5642  0.2409
13645TIP3    H162350   3.270   5.860   2.995  0.3366  1.4189 -0.0010
13645TIP3    H262351   3.144   5.789   3.041  1.8265 -1.4875 -0.1884
13646TIP3   OH262352   0.867   4.242  11.486  0.5109  0.4057  0.4978
13646TIP3    H162353   0.868   4.174  11.419  0.2451  0.5010  0.3967
13646TIP3    H262354   0.774   4.260  11.501  0.5746  0.5275  0.7445
13647TIP3   OH262355   6.339   6.209  12.424 -0.0742 -0.3352  0.0168
13647TIP3    H162356   6.401   6.150  12.381  1.8221  2.0639 -0.7896
13647TIP3    H262357   6.364   6.296  12.393 -2.8276  0.9144  1.0030
13648TIP3   OH262358   4.156   1.388  15.825 -0.3539 -0.9124  0.0294
13648TIP3    H162359   4.144   1.332  15.749 -2.0198 -0.2458 -0.2213
13648TIP3    H262360   4.070   1.394  15.866  0.0169  0.5658  0.6895
13649TIP3   OH262361   5.764   0.058  14.073 -0.3118  0.0755  0.1439
13649TIP3    H162362   5.775   0.040  14.166 -0.2019 -0.8077 -0.0280
13649TIP3    H262363   5.674   0.033  14.054 -0.1624 -0.2920 -0.0987
13650TIP3   OH262364   1.686   5.736  16.201 -0.3027 -0.4061  0.3753
13650TIP3    H162365   1.593   5.742  16.223 -0.0874 -1.3075  1.6430
13650TIP3    H262366   1.727   5.701  16.280  1.5296  2.3890  0.8092
13651TIP3   OH262367   2.325   6.746  11.042 -0.0443  0.3552 -0.1738
13651TIP3    H162368   2.347   6.810  10.974  0.9422 -0.0975 -0.2880
13651TIP3    H262369   2.302   6.800  11.118 -2.2196  0.8957 -1.1380
13652TIP3   OH262370   1.311   0.517  15.590  0.2473  0.2287  0.5281
13652TIP3    H162371   1.328   0.445  15.529  1.4389  0.6529  0.3415
13652TIP3    H262372   1.370   0.502  15.663  0.1958  0.7673  0.6884
13653TIP3   OH262373   0.409   6.729  15.274 -0.9738  0.2555 -1.0259
13653TIP3    H162374   0.449   6.814  15.254 -2.7941  1.6362  0.7767
13653TIP3    H262375   0.449   6.669  15.212  0.0492  2.5013 -2.6924
13654TIP3   OH262376   6.707   0.431  12.635  0.0674 -0.3857 -0.1152
13654TIP3    H162377   6.746   0.394  12.714  1.5958 -0.0191 -0.6714
13654TIP3    H262378   6.656   0.505  12.666 -0.7998 -1.2947  0.7015
13655TIP3   OH262379   3.928   1.916   2.244  0.0550  0.3971 -0.3929
13655TIP3    H162380   3.909   2.006   2.218  0.9836  1.3060  1.8605
13655TIP3    H262381   4.024   1.911   2.245  0.0735 -1.3407 -2.6143
13656TIP3   OH262382   2.355   6.228   6.453  0.3190 -0.1957 -0.4063
13656TIP3    H162383   2.275   6.195   6.495  0.0134  0.8918 -0.1141
13656TIP3    H262384   2.324   6.301   6.399  1.0403 -0.1596 -0.7755
13657TIP3   OH262385   3.793   1.846   2.601  0.3031  0.3636  0.3131
13657TIP3    H162386   3.763   1.829   2.690 -1.2774  1.1104 -0.0262
13657TIP3    H262387   3.874   1.796   2.592 -0.5597 -1.3388  1.5162
13658TIP3   OH262388   6.742   2.156  12.791 -0.3386  0.2434  0.0993
13658TIP3    H162389   6.710   2.073  12.826 -0.1226  0.5280  0.9772
13658TIP3    H262390   6.677   2.220  12.818 -0.4009  0.3963 -0.4076
13659TIP3   OH262391   6.765   4.325  15.407  0.1219  0.0096 -0.4573
13659TIP3    H162392   6.770   4.330  15.502 -0.8758 -1.6426 -0.2837
13659TIP3    H262393   6.742   4.234  15.388 -0.1198  0.3966 -2.2531
13660TIP3   OH262394   1.606   1.619   3.617  0.4437 -0.3637  0.2881
13660TIP3    H162395   1.540   1.582   3.677  0.6967 -1.8681 -0.3205
13660TIP3    H262396   1.688   1.611   3.665  0.1807  2.2344  1.3747
13661TIP3   OH262397   5.657   2.691   0.726 -0.1566  0.3324  0.2783
13661TIP3    H162398   5.643   2.692   0.631 -0.2967  0.2216  0.2975
13661TIP3    H262399   5.620   2.607   0.754 -1.1880  0.8709  0.5911
13662TIP3   OH262400   2.898   5.368   3.647 -0.1934  0.1032 -0.4673
13662TIP3    H162401   2.858   5.282   3.631 -1.1542  0.6219 -0.9495
13662TIP3    H262402   2.841   5.408   3.713  1.2006 -0.2587  1.0312
13663TIP3   OH262403   4.059   1.300   2.615  0.0011 -0.1487  0.2468
13663TIP3    H162404   4.054   1.209   2.587  2.8509 -0.8628  1.7077
13663TIP3    H262405   4.015   1.302   2.700  1.4669 -0.6152  1.0471
13664TIP3   OH262406   3.677   0.923   1.949  0.7087  0.8696 -0.6560
13664TIP3    H162407   3.629   1.005   1.935  0.4611  0.7943 -0.2864
13664TIP3    H262408   3.641   0.889   2.031 -1.3316 -1.1182 -2.2536
13665TIP3   OH262409   6.758   1.451  10.709  0.0781 -0.6086 -0.3760
13665TIP3    H162410   6.848   1.462  10.678 -0.1832  0.9453 -0.7140
13665TIP3    H262411   6.713   1.530  10.677 -1.4609 -1.4782 -0.4286
13666TIP3   OH262412   1.076   5.599   3.086  0.3146  0.0630 -0.2149
13666TIP3    H162413   1.044   5.632   3.170  0.6887 -1.4165  0.5434
13666TIP3    H262414   1.148   5.541   3.109  0.1062 -0.7511 -1.5276
13667TIP3   OH262415   1.218   6.009  11.929  0.4584 -0.5656 -0.8767
13667TIP3    H162416   1.128   6.035  11.915  0.7228 -0.3057 -2.2711
13667TIP3    H262417   1.214   5.914  11.945 -0.0038 -0.6949 -1.7180
13668TIP3   OH262418   5.723   0.592   4.771  0.7455 -0.2851  0.6989
13668TIP3    H162419   5.757   0.529   4.707  1.0464 -1.3068  1.8119
13668TIP3    H262420   5.640   0.555   4.799  0.7181  0.0317  1.0495
13669TIP3   OH262421   2.558   6.480   5.411  0.4283 -0.3075 -0.3638
13669TIP3    H162422   2.507   6.546   5.457  0.7841 -1.0735  1.1953
13669TIP3    H262423   2.641   6.523   5.393  0.2496  0.0381 -0.3688
13670TIP3   OH262424   2.725   2.749  13.148 -0.4541  0.5051  0.0927
13670TIP3    H162425   2.684   2.694  13.081  0.4350 -0.0594 -0.0013
13670TIP3    H262426   2.770   2.817  13.099 -1.3561  1.2071  0.2016
13671TIP3   OH262427   3.429   5.356   4.417  0.5377  0.1852  0.0912
13671TIP3    H162428   3.498   5.295   4.389 -1.8923 -1.1718 -3.7835
13671TIP3    H262429   3.348   5.304   4.412 -1.1231  2.3101  2.2254
13672TIP3   OH262430   6.045   5.784  16.569 -0.5387  0.6079 -0.9530
13672TIP3    H162431   6.060   5.833  16.488 -0.5173  0.9098 -0.7713
13672TIP3    H262432   5.988   5.841  16.621 -0.0546  0.6973 -0.5062
13673TIP3   OH262433   0.438   0.721  16.586 -0.3582  0.7032 -0.0225
13673TIP3    H162434   0.512   0.761  16.630 -0.8978  0.5739  1.0445
13673TIP3    H262435   0.413   0.648  16.643  0.3211 -0.8979 -1.6900
13674TIP3   OH262436   1.638   0.558  15.572 -0.4599 -0.7600 -0.7405
13674TIP3    H162437   1.653   0.615  15.648 -0.6810  1.7875 -2.5069
13674TIP3    H262438   1.722   0.559  15.525 -1.2522  0.4076 -2.2110
13675TIP3   OH262439   1.959   6.566  12.553 -0.1224  0.4751 -0.0071
13675TIP3    H162440   1.966   6.613  12.636  1.2942  1.1307 -0.4593
13675TIP3    H262441   2.049   6.566  12.518 -0.3212 -1.4559 -0.6419
13676TIP3   OH262442   2.817   5.082   0.132  0.2203 -0.4292 -0.9456
13676TIP3    H162443   2.727   5.079   0.100  0.0201  3.0416 -1.1293
13676TIP3    H262444   2.813   5.044   0.220 -1.4958 -0.1010 -0.8493
13677TIP3   OH262445   0.574   3.358   1.699  0.1940  0.0935 -0.7025
13677TIP3    H162446   0.495   3.325   1.657  0.3213  1.3757 -2.0323
13677TIP3    H262447   0.589   3.298   1.772 -1.6838 -0.5011 -0.7409
13678TIP3   OH262448   3.116   0.990   5.459 -0.1049 -0.4559 -0.0339
13678TIP3    H162449   3.154   0.906   5.435 -1.0361 -0.7104 -0.6392
13678TIP3    H262450   3.127   1.045   5.381 -1.6887 -0.7901 -0.5372
13679TIP3   OH262451   4.039   3.796  17.091  0.6169  0.0654  0.1851
13679TIP3    H162452   3.986   3.818  17.014  0.5128  0.8842  0.4885
13679TIP3    H262453   4.002   3.713  17.122  0.6699 -0.2808 -0.6524
13680TIP3   OH262454   0.703   2.511  14.860  0.1390  0.2544  0.3938
13680TIP3    H162455   0.678   2.592  14.905  1.0530  0.9615 -0.3299
13680TIP3    H262456   0.625   2.455  14.867 -1.0056  1.6818 -0.2007
13681TIP3   OH262457   1.827   6.085  13.860  0.4888  0.1729  0.6402
13681TIP3    H162458   1.880   6.165  13.867  0.2597  0.2734  1.2586
13681TIP3    H262459   1.884   6.017  13.896 -0.7010  0.6953  3.7916
13682TIP3   OH262460   2.484   3.969   0.389 -0.2349  0.1728 -0.7848
13682TIP3    H162461   2.524   4.048   0.425 -2.9311  0.9479  0.7984
13682TIP3    H262462   2.454   3.994   0.302  1.9956 -0.2477 -1.7490
13683TIP3   OH262463   6.536   1.254   5.947  0.5872  0.2378 -0.0252
13683TIP3    H162464   6.520   1.174   5.897  1.5609 -0.0237  0.0629
13683TIP3    H262465   6.510   1.233   6.036 -2.0795  1.0020 -0.5257
13684TIP3   OH262466   2.104   1.822   4.817 -0.3459 -0.7539 -0.0928
13684TIP3    H162467   2.061   1.808   4.902 -2.1995 -2.0343 -1.1629
13684TIP3    H262468   2.049   1.887   4.773  1.0223  0.4699 -0.0839
13685TIP3   OH262469   4.487   0.969  16.588 -0.5046 -0.1396 -0.2334
13685TIP3    H162470   4.560   0.933  16.539 -0.9724 -2.7613  0.8529
13685TIP3    H262471   4.498   0.937  16.677 -1.9897  0.9544  0.4043
13686TIP3   OH262472   4.783   5.323   0.953  1.0180  0.1932  0.5855
13686TIP3    H162473   4.825   5.344   0.870  0.5757  1.0003  0.5490
13686TIP3    H262474   4.826   5.380   1.017 -0.3689  1.4552  0.4448
13687TIP3   OH262475   6.207   5.693   5.221 -0.3867 -0.0776  0.3296
13687TIP3    H162476   6.156   5.760   5.177  1.0448  0.3364 -0.7784
13687TIP3    H262477   6.224   5.627   5.153  0.2134 -0.3884  0.7724
13688TIP3   OH262478   5.957   5.182   2.403 -0.1678 -0.1587  0.2041
13688TIP3    H162479   6.027   5.206   2.343 -0.5482 -0.3841 -0.3432
13688TIP3    H262480   5.963   5.086   2.408 -2.3964 -0.5741 -2.3923
13689TIP3   OH262481   2.295   3.301  12.838 -0.1825  0.6249 -0.1708
13689TIP3    H162482   2.215   3.270  12.880 -1.0949  1.3738 -1.2820
13689TIP3    H262483   2.336   3.358  12.903 -1.2491  1.2834 -0.0388
13690TIP3   OH262484   3.587   5.238  15.015 -0.4351 -0.0295 -0.0706
13690TIP3    H162485   3.552   5.161  14.970 -0.7564 -0.9397  1.6205
13690TIP3    H262486   3.654   5.202  15.074  1.1306  1.3095 -0.9528
13691TIP3   OH262487   2.101   5.025  15.914 -0.7450  0.6169  0.5224
13691TIP3    H162488   2.008   5.022  15.936 -0.6875  2.6610  1.1986
13691TIP3    H262489   2.103   5.058  15.824 -0.6939 -1.1524 -0.1755
13692TIP3   OH262490   2.738   6.299  13.218  0.9541  0.2608  0.2590
13692TIP3    H162491   2.681   6.224  13.201 -0.8011  1.3596  1.0759
13692TIP3    H262492   2.783   6.277  13.300  1.6894 -0.5605 -0.3368
13693TIP3   OH262493   2.784   0.563  15.758  0.5941 -0.1447 -0.0711
13693TIP3    H162494   2.777   0.589  15.850  2.0342 -1.2785  0.3959
13693TIP3    H262495   2.852   0.620  15.722 -0.3311  0.6535 -0.5940
13694TIP3   OH262496   6.626   1.491   2.817  0.1124  0.0147  0.4330
13694TIP3    H162497   6.637   1.397   2.801 -1.1405 -0.6105  2.7637
13694TIP3    H262498   6.704   1.516   2.865  0.4883  0.2093 -0.2657
13695TIP3   OH262499   1.784   5.692   0.825 -0.0615  0.3564  0.2762
13695TIP3    H162500   1.807   5.756   0.892  0.0040 -0.6702  1.2664
13695TIP3    H262501   1.756   5.614   0.875  1.2535 -0.8991 -0.8617
13696TIP3   OH262502   5.659   3.034  16.745  0.0787 -0.5180 -0.7019
13696TIP3    H162503   5.710   3.030  16.825 -2.7465  1.4614  1.3958
13696TIP3    H262504   5.602   2.957  16.748 -0.0770 -0.4075 -0.7837
13697TIP3   OH262505   6.637   3.146  17.189 -0.1918  0.3525 -0.4197
13697TIP3    H162506   6.597   3.199  17.258  0.1429  3.2310 -2.2439
13697TIP3    H262507   6.731   3.163  17.198  0.1830 -1.7813  0.2811
13698TIP3   OH262508   3.403   3.201   1.883  0.3241  0.0452  0.0241
13698TIP3    H162509   3.391   3.142   1.808 -1.4837 -1.0500  1.1017
13698TIP3    H262510   3.350   3.162   1.953 -0.5727  2.6789  0.9307
13699TIP3   OH262511   2.818   5.186   4.613 -0.1872  0.3165  0.2734
13699TIP3    H162512   2.756   5.132   4.564 -0.8885 -1.2911  2.7345
13699TIP3    H262513   2.779   5.274   4.611 -1.0120 -0.0437 -0.6568
13700TIP3   OH262514   3.190   5.757  14.532  0.0814  0.2104 -0.3010
13700TIP3    H162515   3.165   5.831  14.476  2.3503 -0.1634 -1.9788
13700TIP3    H262516   3.282   5.771  14.550 -0.4541  0.0544  3.1416
13701TIP3   OH262517   4.314   2.041  16.016  0.2611 -0.4753  0.2808
13701TIP3    H162518   4.393   2.055  15.963 -0.2254 -1.3597 -0.7058
13701TIP3    H262519   4.334   1.964  16.069  0.6897  0.3191  1.3088
13702TIP3   OH262520   1.860   4.492   0.546 -0.0842 -0.3443  0.3958
13702TIP3    H162521   1.785   4.543   0.515 -1.4648 -2.0018  0.8819
13702TIP3    H262522   1.882   4.436   0.472  1.7323  1.1744 -0.3081
13703TIP3   OH262523   0.303   5.300  12.349  0.1578  0.1804  0.2514
13703TIP3    H162524   0.220   5.311  12.303 -0.8999  1.6667  2.3477
13703TIP3    H262525   0.369   5.299  12.279 -1.5749 -1.1607 -1.4799
13704TIP3   OH262526   2.090   5.793   6.352 -0.7360 -0.5658  0.0397
13704TIP3    H162527   2.041   5.874   6.338 -0.1282  0.2602  2.2797
13704TIP3    H262528   2.168   5.803   6.296 -1.5944 -0.5433 -1.2061
13705TIP3   OH262529   5.990   3.147   0.754  0.4987 -0.0563  0.4883
13705TIP3    H162530   6.051   3.201   0.804  0.0675  1.1596 -0.2555
13705TIP3    H262531   5.928   3.114   0.820 -0.1291  1.6021  0.7807
13706TIP3   OH262532   5.622   4.634   0.766 -0.0574  0.2717 -0.1519
13706TIP3    H162533   5.671   4.664   0.842 -1.4527 -2.1681  1.9016
13706TIP3    H262534   5.533   4.669   0.779 -0.5480 -0.9296 -0.1071
13707TIP3   OH262535   3.464   0.981  16.641 -0.0505  0.3845 -0.0178
13707TIP3    H162536   3.467   1.011  16.550 -0.7912  5.0336  1.2213
13707TIP3    H262537   3.384   1.020  16.676  0.0168 -1.5669  2.5604
13708TIP3   OH262538   2.064   2.648  12.182 -0.3042 -0.0780 -1.0346
13708TIP3    H162539   2.121   2.576  12.153 -0.3402 -1.1056  1.2024
13708TIP3    H262540   2.012   2.669  12.105  2.1758  0.0467 -2.8203
13709TIP3   OH262541   4.296   2.237  12.613 -0.0194  0.8416  0.3220
13709TIP3    H162542   4.245   2.314  12.638  0.3365  1.3534 -0.4848
13709TIP3    H262543   4.387   2.267  12.614  0.1342  0.3822  0.1883
13710TIP3   OH262544   0.962   6.583  12.731  0.3667 -0.4533  0.1847
13710TIP3    H162545   0.895   6.522  12.760 -3.1690  3.1671  0.5869
13710TIP3    H262546   1.007   6.609  12.811  2.2987 -2.7731 -0.0623
13711TIP3   OH262547   4.932   0.692  12.577  0.2092  0.0705  0.0541
13711TIP3    H162548   4.858   0.710  12.519 -0.4977  0.3514  1.0129
13711TIP3    H262549   4.974   0.614  12.540 -1.6156 -1.1550  0.4861
13712TIP3   OH262550   4.275   0.428  14.386 -0.5019 -0.3056 -0.1058
13712TIP3    H162551   4.236   0.352  14.428 -1.7493  1.0462  1.3244
13712TIP3    H262552   4.252   0.502  14.443 -0.6053  1.3562 -2.1486
13713TIP3   OH262553   3.896   2.511   3.624  0.5052  0.1613 -0.0004
13713TIP3    H162554   3.960   2.461   3.573  0.1303 -0.7766  0.4220
13713TIP3    H262555   3.866   2.449   3.691  0.1579  1.0204  0.6459
13714TIP3   OH262556   3.961   2.682   3.338 -0.2513 -0.3981 -0.1478
13714TIP3    H162557   3.936   2.759   3.288  1.2864  0.8850  0.9465
13714TIP3    H262558   3.900   2.681   3.412 -1.5111 -1.3924 -1.1537
13715TIP3   OH262559   5.634   3.802  16.665  0.2575  0.1171  0.1580
13715TIP3    H162560   5.637   3.800  16.569  1.7703 -0.0118  0.1756
13715TIP3    H262561   5.578   3.876  16.686 -1.8726 -1.1481 -0.7933
13716TIP3   OH262562   4.322   4.671   4.926 -0.3599  0.1121 -0.2127
13716TIP3    H162563   4.367   4.744   4.883 -0.4191  0.5295  0.4321
13716TIP3    H262564   4.393   4.619   4.965  0.0106 -1.9682 -3.2974
13717TIP3   OH262565   3.443   2.508  13.906  0.0687  0.1511  0.6859
13717TIP3    H162566   3.437   2.557  13.824 -2.5406 -0.7988  0.2167
13717TIP3    H262567   3.501   2.435  13.886 -0.8120 -0.2661 -0.4541
13718TIP3   OH262568   2.972   6.153  13.260 -0.1105  0.1424 -0.4699
13718TIP3    H162569   2.938   6.226  13.210  0.3290  0.0650 -0.8953
13718TIP3    H262570   3.016   6.098  13.195  0.2680 -0.0784 -0.0341
13719TIP3   OH262571   2.805   5.262  13.558  0.2080  0.1980  0.0917
13719TIP3    H162572   2.840   5.175  13.540 -0.6610 -0.6045  2.0133
13719TIP3    H262573   2.825   5.312  13.479  0.3250 -1.8462 -1.2637
13720TIP3   OH262574   2.607   4.285   2.259  0.1678 -0.1554 -0.3431
13720TIP3    H162575   2.568   4.347   2.320  0.9385 -0.4505  0.4711
13720TIP3    H262576   2.701   4.298   2.268  0.2921  0.3061 -2.0220
13721TIP3   OH262577   3.149   1.158  17.162 -0.4134 -0.1957 -0.5791
13721TIP3    H162578   3.116   1.078  17.122  0.1829  0.4339 -2.4483
13721TIP3    H262579   3.152   1.139  17.256 -2.9526 -1.3557 -0.6637
13722TIP3   OH262580   5.525   4.728   2.625  0.5154  0.2124 -0.2797
13722TIP3    H162581   5.432   4.706   2.634  0.7950 -0.2116  2.2712
13722TIP3    H262582   5.570   4.646   2.646  1.5027  0.1602 -2.3941
13723TIP3   OH262583   4.548   2.674   2.209 -0.0005  0.6330  0.7257
13723TIP3    H162584   4.590   2.624   2.140 -0.0517 -0.5829  1.5361
13723TIP3    H262585   4.617   2.729   2.245  0.2847  0.4760  0.4199
13724TIP3   OH262586   1.908   1.956   3.580  0.2775 -0.7215 -0.9491
13724TIP3    H162587   1.812   1.949   3.581  0.2340 -0.7746 -2.4663
13724TIP3    H262588   1.934   1.952   3.672 -1.3416  1.9103 -0.2812
13725TIP3   OH262589   2.516   1.901   0.872  0.1952  0.2601  0.5299
13725TIP3    H162590   2.499   1.917   0.964 -2.5910  0.1051  0.1235
13725TIP3    H262591   2.566   1.977   0.843 -2.0276  2.1650  1.3919
13726TIP3   OH262592   2.343   2.658   5.694  0.5057  0.4073  0.4536
13726TIP3    H162593   2.298   2.576   5.715 -0.2827  0.9640  1.0027
13726TIP3    H262594   2.386   2.683   5.776 -0.4905  1.2853  0.7463
13727TIP3   OH262595   1.642   2.449  11.936 -0.4683 -0.2744 -0.5242
13727TIP3    H162596   1.576   2.420  11.998 -2.2842  1.2161 -1.6633
13727TIP3    H262597   1.674   2.532  11.972 -0.7641  0.0691 -1.0506
13728TIP3   OH262598   5.099   6.453   0.050  0.1263  0.0637  0.3578
13728TIP3    H162599   5.114   6.478   0.141  0.6658 -1.2645  0.6684
13728TIP3    H262600   5.147   6.518  -0.002 -2.0468  2.2028  0.8702
13729TIP3   OH262601   6.495   4.521   2.660  0.0768  0.2705  0.4360
13729TIP3    H162602   6.495   4.437   2.615  1.9361 -0.3681  1.5072
13729TIP3    H262603   6.572   4.566   2.627 -1.1015  1.7693 -0.4108
13730TIP3   OH262604   3.299   5.769  12.416  0.4770 -0.2963  0.1247
13730TIP3    H162605   3.346   5.731  12.342  0.1404 -0.5045  0.0175
13730TIP3    H262606   3.208   5.745  12.401  0.3187  0.2000  0.2716
13731TIP3   OH262607   3.281   6.640   2.614  0.2878 -0.5469 -0.1948
13731TIP3    H162608   3.265   6.560   2.664 -0.3048 -0.1335  0.3033
13731TIP3    H262609   3.353   6.618   2.555  0.4299 -1.3060  0.2470
13732TIP3   OH262610   3.680   6.281  14.817  0.1290  0.2105 -0.3243
13732TIP3    H162611   3.725   6.197  14.828  0.1373  0.1956 -0.4679
13732TIP3    H262612   3.740   6.345  14.855  1.6220  0.5676 -3.0562
13733TIP3   OH262613   5.973   0.133   5.415 -0.1869  0.0388 -0.6763
13733TIP3    H162614   5.898   0.073   5.413  0.0638 -0.2680 -1.4329
13733TIP3    H262615   5.961   0.184   5.495 -0.1639 -1.3511  0.2694
13734TIP3   OH262616   3.886   1.991  16.613 -0.5060 -0.2018  0.4956
13734TIP3    H162617   3.941   2.014  16.688  1.5454 -0.9952 -0.6564
13734TIP3    H262618   3.949   1.962  16.546 -2.3406 -0.7995 -1.0577
13735TIP3   OH262619   1.150   6.426  16.037  0.0993  0.0230  0.4852
13735TIP3    H162620   1.233   6.461  16.069  0.9245  0.2779 -1.7624
13735TIP3    H262621   1.170   6.392  15.950 -1.9880 -0.6779  0.2194
13736TIP3   OH262622   1.530   5.818  16.748 -0.0863  0.2112 -0.0953
13736TIP3    H162623   1.550   5.898  16.797  2.6723  0.2450 -1.1209
13736TIP3    H262624   1.448   5.837  16.704 -0.9343  1.3979  1.8649
13737TIP3   OH262625   3.005   3.135  11.350  0.0293  0.3379 -0.1679
13737TIP3    H162626   3.032   3.145  11.258 -1.6202  1.3589 -0.5923
13737TIP3    H262627   2.909   3.143  11.348 -0.0327  0.5149  1.6619
13738TIP3   OH262628   1.201   6.282   2.356 -0.3498 -0.3151 -0.3382
13738TIP3    H162629   1.181   6.208   2.299 -0.6287  0.4067 -1.1811
13738TIP3    H262630   1.250   6.242   2.429 -2.2858 -1.6650  0.2973
13739TIP3   OH262631   1.283   0.089  16.595 -0.3634 -0.0526 -0.0028
13739TIP3    H162632   1.227   0.074  16.519 -0.0076  1.6099 -0.6329
13739TIP3    H262633   1.334   0.167  16.572  0.4464 -0.0870  1.5587
13740TIP3   OH262634   3.248   3.163  15.005  0.4096 -0.9729 -0.0858
13740TIP3    H162635   3.323   3.193  14.954  0.5699 -0.6350  0.3388
13740TIP3    H262636   3.172   3.203  14.963  0.6956  0.8786  1.0407
13741TIP3   OH262637   0.937   6.028  12.820  0.0763  0.5311  0.6744
13741TIP3    H162638   1.010   6.055  12.765 -0.9858  0.4626 -0.8118
13741TIP3    H262639   0.976   5.967  12.883  0.9717 -1.1764 -1.4137
13742TIP3   OH262640   3.882   6.391   0.868  0.1205  0.1310 -0.3831
13742TIP3    H162641   3.868   6.351   0.954  2.0991  0.4898  0.1426
13742TIP3    H262642   3.912   6.320   0.812 -0.4273  0.0556 -0.5895
13743TIP3   OH262643   0.102   0.039   4.541 -0.5830  0.7595  0.0484
13743TIP3    H162644   0.137  -0.047   4.563 -0.0589  0.7322 -0.8471
13743TIP3    H262645   0.179   0.089   4.513 -0.5760  2.0965  2.2128
13744TIP3   OH262646   2.994   3.791   0.522  0.4184  0.1703  0.3019
13744TIP3    H162647   2.899   3.796   0.513  0.2978 -0.0109  1.3282
13744TIP3    H262648   3.020   3.718   0.466  0.2316  1.5851 -1.7291
13745TIP3   OH262649   3.609   5.216  16.799  0.4166 -0.4642  0.1048
13745TIP3    H162650   3.609   5.302  16.757  0.4273  0.0265  1.0823
13745TIP3    H262651   3.658   5.160  16.739 -1.1505 -0.2520 -1.4508
13746TIP3   OH262652   5.186   1.267  13.958 -0.8719  0.5413 -0.8108
13746TIP3    H162653   5.139   1.340  13.918 -0.3123  0.9019 -0.8110
13746TIP3    H262654   5.209   1.298  14.046  0.1697  0.7203 -1.1286
13747TIP3   OH262655   0.524   2.657   3.427 -0.4296 -0.0386  0.3112
13747TIP3    H162656   0.489   2.617   3.506  1.4306  0.1904  1.3099
13747TIP3    H262657   0.598   2.601   3.403  0.1966  0.9511 -0.1408
13748TIP3   OH262658   1.477   6.723   1.895 -0.0040 -0.2705  0.5075
13748TIP3    H162659   1.423   6.688   1.824 -1.8709 -0.7809  2.0848
13748TIP3    H262660   1.436   6.806   1.919  0.3141 -0.3208  1.2771
13749TIP3   OH262661   5.698   3.239  12.574 -0.0319 -0.1106  0.7666
13749TIP3    H162662   5.726   3.319  12.619  1.5196 -0.4913  0.5361
13749TIP3    H262663   5.774   3.182  12.577 -0.4179 -0.7768 -0.9333
13750TIP3   OH262664   0.653   2.900   5.267 -0.0187  0.0980 -0.0380
13750TIP3    H162665   0.712   2.919   5.340  1.6228  0.9348 -1.5130
13750TIP3    H262666   0.706   2.849   5.206 -1.5927 -1.2433 -0.3475
13751TIP3   OH262667   4.827   5.539  11.691 -0.6598 -0.5702  0.4153
13751TIP3    H162668   4.754   5.593  11.662  0.3387  0.0416 -1.0589
13751TIP3    H262669   4.813   5.454  11.650 -0.5552 -0.4538  0.1360
13752TIP3   OH262670   5.618   0.725  16.924  0.6642  0.3625 -0.4535
13752TIP3    H162671   5.656   0.794  16.979 -2.0237  1.5048  0.1153
13752TIP3    H262672   5.584   0.661  16.987  0.0143  0.2987 -0.8671
13753TIP3   OH262673   2.478   6.740  16.350 -0.5823 -0.0641  0.1195
13753TIP3    H162674   2.572   6.754  16.366 -0.2837  0.1965 -1.6174
13753TIP3    H262675   2.456   6.663  16.402  0.1705  0.8838  1.9185
13754TIP3   OH262676   0.148   5.066  15.616 -0.5621 -0.0520  0.3725
13754TIP3    H162677   0.155   5.160  15.634 -2.4421 -0.0220  1.1965
13754TIP3    H262678   0.063   5.056  15.572 -0.2371 -1.3293 -0.0128
13755TIP3   OH262679   0.644   6.675   5.569 -1.0234  0.2585 -0.0222
13755TIP3    H162680   0.679   6.763   5.574 -0.4269  0.1448 -1.7784
13755TIP3    H262681   0.549   6.686   5.576 -0.9933  1.1001 -0.8091
13756TIP3   OH262682   0.378   2.396   1.027 -0.1525 -0.1530  1.0018
13756TIP3    H162683   0.407   2.398   1.118  0.1668  2.2055  0.9208
13756TIP3    H262684   0.449   2.437   0.978 -0.7577 -0.4382 -0.1655
13757TIP3   OH262685   6.486   1.712  14.177 -0.3650 -0.0903 -0.0370
13757TIP3    H162686   6.516   1.685  14.263  1.4411  2.8873  0.3960
13757TIP3    H262687   6.561   1.696  14.119 -1.0501 -0.6716 -0.7982
13758TIP3   OH262688   5.704   2.365  16.004  0.1344 -0.7387 -0.0003
13758TIP3    H162689   5.619   2.410  16.005  0.6948  0.4960 -1.8281
13758TIP3    H262690   5.711   2.330  15.915  0.3754 -3.2899  0.9368
13759TIP3   OH262691   3.171   3.709   0.250  0.3696  0.3725 -0.0138
13759TIP3    H162692   3.248   3.742   0.203  0.6450  1.0226  0.8481
13759TIP3    H262693   3.191   3.728   0.342 -0.2142 -0.7334  0.3476
13760TIP3   OH262694   0.869   0.452  16.917  0.3999 -0.5873 -0.1384
13760TIP3    H162695   0.896   0.541  16.939 -0.3701 -0.0982 -1.0690
13760TIP3    H262696   0.888   0.401  16.995 -1.4050  0.8689  1.3255
13761TIP3   OH262697   4.155   3.725  16.272  0.3374  0.3910  0.1676
13761TIP3    H162698   4.135   3.743  16.363  0.8344  1.9096  0.0073
13761TIP3    H262699   4.077   3.681  16.238  0.4980 -1.0192  1.5284
13762TIP3   OH262700   6.622   0.095  16.052  0.0225 -0.7377  0.0773
13762TIP3    H162701   6.610   0.182  16.090 -0.2924 -0.3265 -0.9316
13762TIP3    H262702   6.662   0.111  15.966  0.2172 -1.6017  0.0003
13763TIP3   OH262703   5.130   1.640   0.969  0.1710  0.6654 -0.1390
13763TIP3    H162704   5.144   1.550   0.997 -3.1793  0.2827  0.7074
13763TIP3    H262705   5.152   1.693   1.045 -1.7438  0.1841  0.8012
13764TIP3   OH262706   0.314   1.417  12.255  0.7440 -0.4254 -0.4018
13764TIP3    H162707   0.245   1.411  12.320  1.6324 -0.4264  0.5585
13764TIP3    H262708   0.331   1.326  12.230  3.1638 -0.9037  2.3892
13765TIP3   OH262709   1.890   0.711   0.897  0.6487 -0.1194  0.0736
13765TIP3    H162710   1.872   0.689   0.988 -2.2128 -1.1382 -0.6169
13765TIP3    H262711   1.904   0.626   0.855  0.2548  0.2046 -0.7290
13766TIP3   OH262712   6.078   0.702   1.817  0.3128 -0.2376  0.1662
13766TIP3    H162713   6.106   0.780   1.865 -2.0491  0.2377  0.9351
13766TIP3    H262714   6.146   0.688   1.751  2.0669  0.9672  1.6161
13767TIP3   OH262715   0.610   4.979  14.214 -0.0037 -0.4296 -0.3806
13767TIP3    H162716   0.622   4.893  14.173  0.7206 -0.2598 -0.5386
13767TIP3    H262717   0.515   4.987  14.225  0.0027 -2.1237  1.4751
13768TIP3   OH262718   3.772   2.052  16.344  0.1882 -0.2445 -0.3974
13768TIP3    H162719   3.796   1.970  16.301 -1.0070 -1.3328  0.9131
13768TIP3    H262720   3.835   2.061  16.416  0.0491 -0.2415 -0.2745
13769TIP3   OH262721   1.017   3.070   5.679  0.3821 -0.4933 -0.7477
13769TIP3    H162722   1.063   2.987   5.674 -0.1643 -0.9886  1.3443
13769TIP3    H262723   1.080   3.135   5.649  2.0287 -1.2920  0.8370
13770TIP3   OH262724   5.421   4.893  12.659  0.0980 -0.0608  0.1886
13770TIP3    H162725   5.486   4.822  12.660 -0.3681 -0.5206 -0.9261
13770TIP3    H262726   5.455   4.956  12.595  1.1977  1.4344  2.1241
13771TIP3   OH262727   3.408   0.793  12.146  0.0387 -0.0410 -0.1374
13771TIP3    H162728   3.464   0.771  12.071 -0.1882  0.6836 -0.5256
13771TIP3    H262729   3.468   0.791  12.221  0.5788  0.5983 -0.5303
13772TIP3   OH262730   3.278   1.347   0.845 -0.7172  0.1237  0.1660
13772TIP3    H162731   3.336   1.306   0.909 -0.2226  0.1650 -0.2488
13772TIP3    H262732   3.322   1.429   0.822 -0.8560  0.0742 -0.2795
13773TIP3   OH262733   2.671   1.748  13.621  0.1407  0.2739  0.1324
13773TIP3    H162734   2.708   1.759  13.534  1.2590 -1.2323  0.3658
13773TIP3    H262735   2.635   1.833  13.643  0.6935  0.9431 -1.4088
13774TIP3   OH262736   1.395   3.672  11.160  0.0182 -0.3450 -0.6115
13774TIP3    H162737   1.369   3.632  11.077 -1.0181 -0.3282 -0.3057
13774TIP3    H262738   1.483   3.706  11.143 -0.3976  0.1895 -1.8985
13775TIP3   OH262739   1.296   0.427   3.120 -0.0664 -0.2202  0.5227
13775TIP3    H162740   1.265   0.358   3.061  0.5721 -1.3148  1.4256
13775TIP3    H262741   1.272   0.509   3.076  0.5876 -0.9914 -1.3531
13776TIP3   OH262742   5.684   4.377   0.003  0.2263 -0.2449 -0.2198
13776TIP3    H162743   5.724   4.296   0.035  0.5636 -1.2344 -2.9024
13776TIP3    H262744   5.751   4.444   0.016  1.6888 -1.2883 -1.8768
13777TIP3   OH262745   3.419   4.807  16.061 -0.0276 -0.3499 -0.0258
13777TIP3    H162746   3.337   4.796  16.013 -1.4289  2.2804  1.5409
13777TIP3    H262747   3.487   4.806  15.994 -1.5682 -0.1121 -1.6558
13778TIP3   OH262748   2.687   6.265   0.446  0.2420 -0.2929  0.0475
13778TIP3    H162749   2.592   6.255   0.435  0.5194 -2.4935 -0.8724
13778TIP3    H262750   2.697   6.345   0.497 -2.0646  0.4496 -0.5492
13779TIP3   OH262751   4.675   4.613   3.257  0.3066  0.5870  0.8619
13779TIP3    H162752   4.664   4.671   3.182  0.5726  0.4157  0.6890
13779TIP3    H262753   4.678   4.525   3.219  0.7848  0.5256  1.0418
13780TIP3   OH262754   0.697   0.151  14.723 -0.2293 -0.0249  0.4680
13780TIP3    H162755   0.774   0.101  14.750  1.3246  2.1815  0.4581
13780TIP3    H262756   0.644   0.156  14.803  1.1287  0.8803  1.3802
13781TIP3   OH262757   0.438   4.270   4.594 -0.8655  0.0590  0.2544
13781TIP3    H162758   0.353   4.239   4.562 -0.3680 -0.2992 -0.7825
13781TIP3    H262759   0.464   4.336   4.530 -0.1768 -0.1361  0.3275
13782TIP3   OH262760   0.490   0.555   4.283 -0.0721 -0.1198  0.2647
13782TIP3    H162761   0.554   0.496   4.324 -0.2448 -0.1537  0.4920
13782TIP3    H262762   0.419   0.560   4.347 -0.4227 -0.3022 -0.1089
13783TIP3   OH262763   4.644   2.801  13.641  0.6007 -0.0409  0.1840
13783TIP3    H162764   4.593   2.855  13.580 -0.0704  0.2095  0.9532
13783TIP3    H262765   4.734   2.829  13.628  0.9454 -2.1344 -2.9276
13784TIP3   OH262766   6.068   0.692   5.483  0.2016  0.6415  0.7143
13784TIP3    H162767   6.048   0.610   5.438 -0.0593 -0.4964  2.7479
13784TIP3    H262768   6.057   0.760   5.417 -1.2630 -0.8070 -0.6204
13785TIP3   OH262769   3.765   0.012  16.368 -0.1041 -0.1711  0.0010
13785TIP3    H162770   3.759  -0.081  16.345 -1.0229  0.1879 -1.3861
13785TIP3    H262771   3.684   0.031  16.415  0.9719 -0.4874  2.0676
13786TIP3   OH262772   4.069   1.920  16.159  0.4808 -0.0909  0.1310
13786TIP3    H162773   4.148   1.974  16.158  0.7777 -0.3122  2.9586
13786TIP3    H262774   4.058   1.891  16.069  2.1615  2.0165 -0.8265
13787TIP3   OH262775   2.985   5.424   0.053  0.3261  0.3761  0.4660
13787TIP3    H162776   3.075   5.426   0.086  0.5491  0.1580 -0.1054
13787TIP3    H262777   2.989   5.477  -0.027  0.4713 -1.4410 -0.7875
13788TIP3   OH262778   1.245   0.639   4.567 -0.2360 -0.2044  0.0659
13788TIP3    H162779   1.314   0.592   4.519  2.0302  4.0324 -1.3805
13788TIP3    H262780   1.271   0.631   4.659  1.4181  0.0735 -0.3432
13789TIP3   OH262781   6.074   4.079  14.946 -0.4649  0.5100  0.1342
13789TIP3    H162782   6.046   4.153  14.893 -0.4944  0.2889 -0.1564
13789TIP3    H262783   6.056   4.001  14.893  0.2892  0.3349  0.1135
13790TIP3   OH262784   3.199   6.301   1.571 -0.4111  0.6546 -0.0708
13790TIP3    H162785   3.232   6.287   1.482 -0.8521  1.7433 -0.4305
13790TIP3    H262786   3.275   6.332   1.620 -0.3206  0.7217 -0.2497
13791TIP3   OH262787   4.790   2.408   5.435 -0.0201  0.2409  0.1368
13791TIP3    H162788   4.830   2.466   5.499 -0.0429 -1.9801  2.3031
13791TIP3    H262789   4.762   2.332   5.485 -1.3130 -1.0416 -2.3179
13792TIP3   OH262790   1.996   1.399   1.757 -0.2088 -0.2500 -0.1682
13792TIP3    H162791   2.081   1.418   1.718  0.3320  0.7094  1.4304
13792TIP3    H262792   2.004   1.424   1.849 -2.3299  0.1866 -0.0453
13793TIP3   OH262793   0.423   3.830   3.694  0.4300 -0.1594 -0.0127
13793TIP3    H162794   0.513   3.861   3.681  0.4473  0.1589  0.8077
13793TIP3    H262795   0.420   3.803   3.786 -0.6728  1.0513  0.3314
13794TIP3   OH262796   6.083   2.251  11.800 -0.4973  0.2530 -0.0011
13794TIP3    H162797   6.114   2.160  11.802  1.3258  0.7449 -2.0886
13794TIP3    H262798   6.130   2.293  11.873  1.4200  0.2477 -1.1588
13795TIP3   OH262799   3.982   0.268  12.694 -0.4879  0.0066 -0.1964
13795TIP3    H162800   4.027   0.281  12.611  2.7278 -0.6988  1.2767
13795TIP3    H262801   3.941   0.182  12.685 -0.8367  0.2656 -1.2779
13796TIP3   OH262802   0.484   6.377   4.184 -0.3641  0.3318 -0.0420
13796TIP3    H162803   0.546   6.441   4.148 -0.4399  0.0530 -0.6630
13796TIP3    H262804   0.485   6.304   4.122  0.0852 -0.4923  0.9029
13797TIP3   OH262805   1.570   6.364   4.850 -0.2091 -0.1328 -0.3120
13797TIP3    H162806   1.532   6.448   4.826  0.1351 -0.1182 -0.8228
13797TIP3    H262807   1.660   6.384   4.877 -0.4464 -0.2079  0.5647
13798TIP3   OH262808   4.371   2.990   6.020  0.3982  0.7992 -0.2174
13798TIP3    H162809   4.431   3.055   6.058  1.2264  1.1200 -1.9550
13798TIP3    H262810   4.419   2.907   6.028 -0.1932  0.5592  1.0120
13799TIP3   OH262811   2.810   3.118   1.943 -0.2434 -0.4002  0.1033
13799TIP3    H162812   2.775   3.029   1.942 -3.3749  0.7006 -1.6382
13799TIP3    H262813   2.896   3.110   1.900 -0.2245 -2.6247  0.4620
13800TIP3   OH262814   1.106   0.549   1.519 -0.0870 -0.5669 -0.3676
13800TIP3    H162815   1.094   0.542   1.424  1.8755  0.3171 -0.7418
13800TIP3    H262816   1.117   0.458   1.548  1.3846 -0.7397 -1.3550
13801TIP3   OH262817   6.537   4.401   1.266 -0.1377  0.7575 -0.0953
13801TIP3    H162818   6.585   4.330   1.223  1.2028  1.2410  0.5446
13801TIP3    H262819   6.605   4.462   1.295 -1.1779  1.6724  0.5029
13802TIP3   OH262820   5.476   0.910  15.665  0.5356  0.0062  0.5338
13802TIP3    H162821   5.491   0.895  15.758  2.7796  0.7586  0.3491
13802TIP3    H262822   5.382   0.897  15.654  0.0237  0.9097  3.0993
13803TIP3   OH262823   4.559   4.769  14.245 -0.6548  0.2655  0.4292
13803TIP3    H162824   4.525   4.682  14.267  1.6308 -0.6592  0.5999
13803TIP3    H262825   4.652   4.765  14.269  0.7447  1.1330 -3.9481
13804TIP3   OH262826   3.934   0.265  17.042  0.1244  0.3748  0.0744
13804TIP3    H162827   4.005   0.317  17.005  0.5103  0.8821  1.4580
13804TIP3    H262828   3.925   0.191  16.982 -0.5499  2.0770 -2.0416
13805TIP3   OH262829   1.012   0.286  15.793 -0.1747 -0.2447 -0.0576
13805TIP3    H162830   0.943   0.262  15.855 -0.7110  1.9305  0.2746
13805TIP3    H262831   0.968   0.340  15.727  0.6760 -1.2560 -1.5101
13806TIP3   OH262832   1.872   5.482   4.574 -0.0205 -0.2765 -0.5414
13806TIP3    H162833   1.839   5.470   4.663 -0.8051 -0.6260 -0.8714
13806TIP3    H262834   1.917   5.400   4.553  2.6718  0.8058  0.5391
13807TIP3   OH262835   3.146   4.657   1.236  0.0381 -0.2493 -0.6071
13807TIP3    H162836   3.077   4.630   1.297 -0.7659  1.6191 -0.6177
13807TIP3    H262837   3.225   4.618   1.271 -0.3455  0.9539  1.8665
13808TIP3   OH262838   1.855   1.618   2.476  0.3171 -0.3463  0.0541
13808TIP3    H162839   1.947   1.630   2.455  0.1838  2.8774  0.8192
13808TIP3    H262840   1.849   1.634   2.571 -0.9078 -1.5147  0.2102
13809TIP3   OH262841   0.023   2.967   2.997  0.0632 -0.2838 -0.5139
13809TIP3    H162842   0.016   3.048   2.947 -0.0626  0.3156  0.4508
13809TIP3    H262843  -0.041   2.977   3.068  0.7303 -0.8030  0.1749
13810TIP3   OH262844   4.433   3.628   5.233  1.3116  0.0515  0.4633
13810TIP3    H162845   4.374   3.556   5.256  1.8857 -0.2608  1.0106
13810TIP3    H262846   4.393   3.705   5.273  3.0867 -0.7120  4.1597
13811TIP3   OH262847   3.505   2.741  17.106 -0.2469 -0.2653  0.7741
13811TIP3    H162848   3.456   2.709  17.031 -0.2291  3.0810 -0.8447
13811TIP3    H262849   3.438   2.756  17.174 -1.3769  2.4301 -0.7642
13812TIP3   OH262850   4.790   0.957   2.344 -0.1433  0.3144  0.2733
13812TIP3    H162851   4.794   0.974   2.438 -1.9030  0.8654  0.2885
13812TIP3    H262852   4.855   0.889   2.329 -0.1136 -0.0672  1.9604
13813TIP3   OH262853   5.264   1.116   5.295  0.1159  0.1627 -0.2450
13813TIP3    H162854   5.253   1.128   5.201  0.5207 -2.3687 -0.6875
13813TIP3    H262855   5.332   1.179   5.320 -0.1394  0.9945 -1.5938
13814TIP3   OH262856   0.931   2.944   0.284 -0.1391  0.3324 -0.5416
13814TIP3    H162857   1.016   2.936   0.240  0.6141  2.1765  0.4518
13814TIP3    H262858   0.911   3.037   0.281 -0.5964  0.3909  1.9630
13815TIP3   OH262859   1.672   1.573  16.723  0.0606  0.3850  0.3503
13815TIP3    H162860   1.606   1.510  16.695  1.9254 -1.1488 -0.8131
13815TIP3    H262861   1.698   1.543  16.810 -0.6065  0.9020  0.7446
13816TIP3   OH262862   0.281   5.793  10.741  0.8567 -0.4513  0.0734
13816TIP3    H162863   0.237   5.878  10.744  0.3472 -0.6181 -1.5521
13816TIP3    H262864   0.251   5.747  10.819 -1.2261 -0.2364 -0.5583
13817TIP3   OH262865   0.395   4.470   0.896  0.1947 -0.0685 -0.5848
13817TIP3    H162866   0.326   4.535   0.894 -1.8079 -2.0485 -0.2811
13817TIP3    H262867   0.449   4.493   0.971 -1.6569  0.1204  0.7427
13818TIP3   OH262868   1.959   3.425   4.235  0.2870  0.1092  0.3732
13818TIP3    H162869   1.936   3.341   4.195 -0.1993  0.1412  0.5783
13818TIP3    H262870   1.884   3.446   4.290  1.2449 -0.2958  1.8982
13819TIP3   OH262871   3.216   0.393  12.154 -0.4043 -0.2300 -0.6768
13819TIP3    H162872   3.256   0.414  12.239  0.2041 -2.5164 -0.3379
13819TIP3    H262873   3.239   0.301  12.138  0.0751  0.2903 -3.6445
13820TIP3   OH262874   3.045   6.492   3.119 -0.4877 -0.1411  0.0473
13820TIP3    H162875   3.037   6.434   3.044 -0.0755 -0.8269  0.5223
13820TIP3    H262876   2.992   6.568   3.096  0.3435  0.0594 -1.3165
13821TIP3   OH262877   4.454   6.059   3.208 -0.0166  0.0834 -0.2800
13821TIP3    H162878   4.519   6.122   3.237  1.4234 -0.3939 -2.2880
13821TIP3    H262879   4.458   5.989   3.273  1.8628 -0.1589 -0.6003
13822TIP3   OH262880   4.687   6.631   3.637 -0.0532  0.4864 -0.1154
13822TIP3    H162881   4.756   6.670   3.692  0.2949 -0.3265  0.0393
13822TIP3    H262882   4.614   6.619   3.697  0.1231  0.1501  0.0359
13823TIP3   OH262883   1.419   5.753   2.757  0.0373  0.3929  0.0684
13823TIP3    H162884   1.484   5.708   2.703 -0.3000  1.5137 -1.3290
13823TIP3    H262885   1.339   5.701   2.745 -0.0879  0.7556 -0.6839
13824TIP3   OH262886   3.559   2.486   0.012  0.1997  0.0594  0.3145
13824TIP3    H162887   3.523   2.515  -0.072  2.7636  0.5374 -0.7350
13824TIP3    H262888   3.640   2.440  -0.012  1.3533  0.7942  2.5520
13825TIP3   OH262889   1.882   4.720  13.467 -0.4198  0.0406 -0.0571
13825TIP3    H162890   1.823   4.720  13.542 -0.3808  0.6938 -0.0213
13825TIP3    H262891   1.945   4.789  13.486 -0.1351 -0.1019 -0.4740
13826TIP3   OH262892   4.462   0.881   5.320 -0.1133 -0.4294  0.2488
13826TIP3    H162893   4.388   0.866   5.379 -0.1367  1.2970  0.7211
13826TIP3    H262894   4.528   0.925   5.373  0.1632  0.4973 -0.8011
13827TIP3   OH262895   6.430   2.572   0.313  0.1251  0.0223  0.2381
13827TIP3    H162896   6.505   2.580   0.253  0.6403 -1.8035  0.5775
13827TIP3    H262897   6.440   2.644   0.374  0.1103  1.3834 -1.2821
13828TIP3   OH262898   2.769   3.657  15.245  0.0616 -0.1606  0.0815
13828TIP3    H162899   2.821   3.670  15.165  1.9477  0.6222  1.3356
13828TIP3    H262900   2.768   3.743  15.287 -1.3043 -0.4419  0.6754
13829TIP3   OH262901   1.244   5.217  15.022 -0.2377  0.0386 -0.5120
13829TIP3    H162902   1.322   5.178  15.061  1.1595  2.4087 -0.7560
13829TIP3    H262903   1.241   5.181  14.933 -1.0516 -2.1374  0.3148
13830TIP3   OH262904   6.016   1.596  11.893 -0.5074  0.2013  0.3775
13830TIP3    H162905   5.967   1.513  11.886  2.1317 -1.5335  0.9889
13830TIP3    H262906   5.980   1.651  11.824 -1.3879 -1.9964 -1.0103
13831TIP3   OH262907   1.174   2.807   4.868  0.1971  0.0426  0.4548
13831TIP3    H162908   1.123   2.726   4.864 -0.1203  0.2683 -0.3508
13831TIP3    H262909   1.247   2.787   4.926 -1.1372 -0.1025  2.1912
13832TIP3   OH262910   3.642   4.669  13.766  0.2108  0.1966  0.3800
13832TIP3    H162911   3.685   4.677  13.681 -0.5794  3.0802  0.1360
13832TIP3    H262912   3.664   4.581  13.796  2.6332 -0.0142 -1.6519
13833TIP3   OH262913   1.391   1.373  12.055  0.1459  0.0510 -0.0811
13833TIP3    H162914   1.361   1.303  11.997  0.4878  1.3932 -1.9664
13833TIP3    H262915   1.354   1.351  12.141 -2.1558 -0.8762 -1.2399
13834TIP3   OH262916   2.592   2.895   3.199  0.0386 -0.4028  0.8571
13834TIP3    H162917   2.536   2.965   3.234 -0.3833  0.2693 -1.0274
13834TIP3    H262918   2.536   2.817   3.201 -2.4081  0.8263 -3.8940
13835TIP3   OH262919   4.643   2.905  12.622 -0.7180  0.1844 -0.7302
13835TIP3    H162920   4.711   2.843  12.596 -0.6860  0.6782 -1.8707
13835TIP3    H262921   4.578   2.851  12.669 -0.0045 -0.4466 -0.4466
13836TIP3   OH262922   5.613   1.496  10.879 -0.7804 -0.2293 -0.5645
13836TIP3    H162923   5.594   1.583  10.916 -0.3266 -0.6077  0.6046
13836TIP3    H262924   5.708   1.497  10.864 -0.8266 -0.4104 -0.8750
13837TIP3   OH262925   3.682   0.869  15.471 -0.3473  0.1518  0.3381
13837TIP3    H162926   3.712   0.934  15.407  0.7258 -0.2367  0.4193
13837TIP3    H262927   3.625   0.918  15.530  1.3261  1.3261  1.0793
13838TIP3   OH262928   3.458   0.624  14.683  0.2980  0.0380 -0.5125
13838TIP3    H162929   3.511   0.700  14.660  1.8412 -0.3365  1.5094
13838TIP3    H262930   3.522   0.553  14.691 -0.7757 -0.8789  0.1230
13839TIP3   OH262931   2.358   5.656   4.100  0.3035  0.1279  0.3437
13839TIP3    H162932   2.442   5.702   4.097  1.3244 -1.6160  0.6319
13839TIP3    H262933   2.368   5.584   4.038 -0.7048 -0.5226  0.9141
13840TIP3   OH262934   2.655   4.823  12.943  0.8070 -0.2054 -0.4568
13840TIP3    H162935   2.590   4.820  13.013 -0.5540 -0.2810 -1.6785
13840TIP3    H262936   2.717   4.891  12.970 -1.2263  1.7627 -0.4402
13841TIP3   OH262937   4.369   3.796   5.679  0.2323  0.3739 -0.4989
13841TIP3    H162938   4.340   3.770   5.591  0.2480 -0.2899 -0.3135
13841TIP3    H262939   4.306   3.863   5.706 -1.1632 -1.0185 -0.1132
13842TIP3   OH262940   3.708   5.305   5.827  0.4390  0.0223 -0.2007
13842TIP3    H162941   3.665   5.330   5.909  1.7318 -1.7932  1.1141
13842TIP3    H262942   3.738   5.387   5.790  0.4319  0.8506  1.5248
13843TIP3   OH262943   2.417   2.025   4.859  0.4164 -0.1892 -0.2131
13843TIP3    H162944   2.406   1.976   4.777  0.2970  1.3847 -1.1828
13843TIP3    H262945   2.401   1.960   4.928 -0.3743 -1.3501 -1.4343
13844TIP3   OH262946   0.488   5.626   2.897 -0.4767 -0.3780 -0.2279
13844TIP3    H162947   0.537   5.707   2.882  1.3735 -1.5721 -1.0826
13844TIP3    H262948   0.466   5.594   2.809  0.9855 -1.9996 -0.0649
13845TIP3   OH262949   2.131   2.802   1.352  0.3140  0.0505 -0.0396
13845TIP3    H162950   2.084   2.884   1.339  0.9973  0.3937 -0.3732
13845TIP3    H262951   2.159   2.776   1.264  1.6583  0.4015  0.2588
13846TIP3   OH262952   5.229   2.887   4.232 -0.0997 -0.6050  0.4910
13846TIP3    H162953   5.242   2.793   4.225  2.1253 -0.3024 -0.3287
13846TIP3    H262954   5.271   2.911   4.315 -0.0308 -0.2434  0.3534
13847TIP3   OH262955   2.803   1.902  15.153 -0.0644  0.3142  0.7361
13847TIP3    H162956   2.740   1.969  15.179  1.5557  1.4146  1.9979
13847TIP3    H262957   2.872   1.907  15.219  2.0361  0.1163 -1.3244
13848TIP3   OH262958   4.120   1.891  13.760 -0.0946  0.2814 -0.1330
13848TIP3    H162959   4.121   1.964  13.823  1.5730 -1.9586  2.7045
13848TIP3    H262960   4.034   1.897  13.719 -0.6232  2.9276  1.0631
13849TIP3   OH262961   6.303   4.256   0.624  0.2871  1.0226  0.4619
13849TIP3    H162962   6.279   4.289   0.711  0.5437  0.8907  0.5832
13849TIP3    H262963   6.397   4.239   0.630  0.5307  2.0439 -0.1848
13850TIP3   OH262964   0.539   3.665   0.859  0.6901  0.0207 -0.2738
13850TIP3    H162965   0.600   3.731   0.824  0.7892 -0.4530 -1.0217
13850TIP3    H262966   0.573   3.582   0.827  1.0833 -0.5052  1.4180
13851TIP3   OH262967   0.760   3.639   3.517  0.0468  0.5023 -0.5238
13851TIP3    H162968   0.773   3.567   3.579  0.3207  0.5994 -0.4663
13851TIP3    H262969   0.665   3.648   3.509  0.0138  0.4636 -0.1497
13852TIP3   OH262970   3.197   2.246  13.019  0.0013  0.1372 -0.0575
13852TIP3    H162971   3.121   2.297  12.991 -0.8812 -1.1859 -0.1456
13852TIP3    H262972   3.272   2.303  13.001 -1.0071  1.8517  0.8874
13853TIP3   OH262973   3.600   3.463  17.153  0.7208  0.3635  0.1550
13853TIP3    H162974   3.586   3.521  17.078  0.3490 -0.1143 -0.1519
13853TIP3    H262975   3.514   3.425  17.170  0.2138  2.3100  2.3967
13854TIP3   OH262976   2.552   4.674   1.618  0.1010 -0.2403  0.3661
13854TIP3    H162977   2.587   4.752   1.661  2.0799 -0.2933 -0.9847
13854TIP3    H262978   2.616   4.605   1.638 -0.8036 -1.1310  0.2568
13855TIP3   OH262979   0.352   2.064  13.736  0.2727  0.4054  0.3956
13855TIP3    H162980   0.370   2.071  13.642  0.5985  1.8622  0.5555
13855TIP3    H262981   0.388   1.978  13.760  0.5956  0.2082 -0.7090
13856TIP3   OH262982   2.542   2.926   2.915  0.0440  0.2790 -0.7637
13856TIP3    H162983   2.579   3.007   2.880  1.1946  0.1290  0.0504
13856TIP3    H262984   2.600   2.902   2.987 -1.8538  0.2142  0.8252
13857TIP3   OH262985   1.733   5.923  15.111  0.6555 -0.1595  0.0690
13857TIP3    H162986   1.651   5.876  15.122 -0.4413  1.5899 -0.2111
13857TIP3    H262987   1.709   6.001  15.061  2.2324  1.0526  1.1080
13858TIP3   OH262988   1.222   3.910  13.058  0.3793  0.0352 -0.5626
13858TIP3    H162989   1.284   3.845  13.025  1.3637 -0.5132  2.1267
13858TIP3    H262990   1.273   3.962  13.120 -1.8719 -0.5965  1.9815
13859TIP3   OH262991   2.661   5.611  13.471  0.2813  0.1978  0.1995
13859TIP3    H162992   2.699   5.579  13.389  0.2750  1.6088 -0.3836
13859TIP3    H262993   2.583   5.557  13.484  1.2287 -1.2113  0.2181
13860TIP3   OH262994   1.193   1.943  11.269  0.5844 -0.1142 -0.2269
13860TIP3    H162995   1.115   1.973  11.224  0.9332  0.7883 -0.2546
13860TIP3    H262996   1.208   2.008  11.338  1.6607  0.1020 -0.6310
13861TIP3   OH262997   1.022   2.079  15.956 -0.4965 -0.1496 -0.1991
13861TIP3    H162998   1.038   1.986  15.970 -1.5453 -0.9625 -3.4319
13861TIP3    H262999   1.099   2.110  15.909 -0.1755  0.6234  0.8164
13862TIP3   OH263000   0.550   4.778   1.216 -0.2627 -0.2612  0.2982
13862TIP3    H163001   0.494   4.701   1.225  1.4182 -1.3722  1.8162
13862TIP3    H263002   0.619   4.766   1.281  0.6893  1.9978 -0.1913
13863TIP3   OH263003   4.057   6.269   0.509  0.4117 -0.2496  0.1439
13863TIP3    H163004   4.081   6.215   0.434 -4.0601 -0.6203 -1.3239
13863TIP3    H263005   4.077   6.359   0.483 -1.6090 -0.3160 -1.8787
13864TIP3   OH263006   2.594   0.587  12.241 -0.6798 -0.4702 -0.7066
13864TIP3    H163007   2.555   0.671  12.218 -0.4715 -0.5159 -1.2392
13864TIP3    H263008   2.688   0.600  12.230 -0.6220 -0.6822 -0.4885
13865TIP3   OH263009   4.650   3.958   1.419 -0.5466  0.1043 -0.1628
13865TIP3    H163010   4.580   4.011   1.458 -0.2669 -1.3394  2.5659
13865TIP3    H263011   4.729   4.010   1.432 -0.6639  0.3291 -0.3239
13866TIP3   OH263012   5.587   4.459  11.916  0.0129  0.1725 -0.3305
13866TIP3    H163013   5.636   4.389  11.873  0.5917  0.9669 -0.9995
13866TIP3    H263014   5.518   4.481  11.853  0.0921  0.4824 -0.3090
13867TIP3   OH263015   0.951   6.562  16.474 -0.2322  0.6135  0.0463
13867TIP3    H163016   0.888   6.625  16.508 -0.4250  0.4218  0.0460
13867TIP3    H263017   0.974   6.596  16.387 -0.9950  0.2274 -0.3177
13868TIP3   OH263018   4.298   1.261   0.229  0.0570  0.2283  0.1964
13868TIP3    H163019   4.366   1.329   0.233 -0.2674  0.5757 -0.1224
13868TIP3    H263020   4.258   1.273   0.143 -1.2712  0.8730  0.8833
13869TIP3   OH263021   6.081   1.125   2.203 -0.7129  0.5343  0.2663
13869TIP3    H163022   6.117   1.207   2.169 -0.9780  0.4949 -0.1144
13869TIP3    H263023   6.151   1.089   2.258 -1.0003  1.5558  1.3300
13870TIP3   OH263024   6.353   5.999   0.955  0.1331 -0.2613 -0.5531
13870TIP3    H163025   6.387   6.035   0.873  1.6367 -1.3416 -0.4372
13870TIP3    H263026   6.409   5.924   0.974 -1.4024 -1.2146  0.4615
13871TIP3   OH263027   6.756   1.586   2.245 -0.2817  0.4470 -0.3387
13871TIP3    H163028   6.755   1.607   2.338  0.7736 -1.5074  0.1629
13871TIP3    H263029   6.663   1.573   2.222 -0.4393 -0.6496  0.8421
13872TIP3   OH263030   6.300   4.290  12.825  0.1252  0.3532  0.0548
13872TIP3    H163031   6.228   4.303  12.763  0.0007 -1.1518 -0.1486
13872TIP3    H263032   6.377   4.273  12.770  0.4988  1.2017  0.2892
13873TIP3   OH263033   4.263   2.444   2.141  0.3975  0.1630  0.5773
13873TIP3    H163034   4.215   2.467   2.221 -1.2011  1.4686 -0.6735
13873TIP3    H263035   4.256   2.349   2.135 -0.8780  0.2012  1.1470
13874TIP3   OH263036   0.560   6.582   2.394 -0.3999 -0.7688  0.3403
13874TIP3    H163037   0.552   6.597   2.300 -1.9652 -1.3592  0.3463
13874TIP3    H263038   0.574   6.669   2.431  1.8968 -0.6997 -0.5439
13875TIP3   OH263039   5.714   2.869  12.632  0.3158 -0.1615 -0.2657
13875TIP3    H163040   5.685   2.785  12.668  0.9073 -0.6540 -0.8994
13875TIP3    H263041   5.770   2.906  12.700  0.1927 -0.3694 -0.0519
13876TIP3   OH263042   4.903   0.905   1.631  0.0914  0.2184 -0.6202
13876TIP3    H163043   4.840   0.950   1.687 -0.6271  1.4144 -2.3236
13876TIP3    H263044   4.850   0.854   1.570  0.7177  1.0460 -1.9207
13877TIP3   OH263045   4.227   3.461   1.259 -0.5272 -0.4037 -0.4060
13877TIP3    H163046   4.193   3.550   1.258 -1.9694 -0.9111 -0.0255
13877TIP3    H263047   4.321   3.470   1.245 -0.3826  1.2835  1.2671
13878TIP3   OH263048   5.457   1.549  16.745  0.1001 -0.2275 -0.2009
13878TIP3    H163049   5.507   1.568  16.823  1.2877 -1.6231 -0.5802
13878TIP3    H263050   5.510   1.582  16.673 -0.3515 -0.1402 -0.4996
13879TIP3   OH263051   3.214   2.040   1.021 -0.1278  0.1898  1.2267
13879TIP3    H163052   3.207   1.972   0.955 -1.2989  0.0273  1.4986
13879TIP3    H263053   3.240   2.118   0.972 -2.0534  0.3488  0.3385
13880TIP3   OH263054   1.940   6.468   2.645 -0.5392  0.8328 -0.4050
13880TIP3    H163055   1.895   6.500   2.724  1.2742  1.6138  0.3782
13880TIP3    H263056   2.017   6.526   2.637  0.6454 -0.8006 -1.3021
13881TIP3   OH263057   5.323   4.843   1.154 -0.0524  0.1457  0.3183
13881TIP3    H163058   5.235   4.821   1.187 -0.0134  0.0387  0.3514
13881TIP3    H263059   5.376   4.766   1.175 -0.4013 -0.6410 -1.4367
13882TIP3   OH263060   5.971   2.676   3.241  0.1902 -0.1232  0.2769
13882TIP3    H163061   5.948   2.730   3.166  1.0015 -0.3677 -0.1671
13882TIP3    H263062   5.912   2.703   3.310 -1.3492 -0.6754 -0.7747
13883TIP3   OH263063   0.992   6.285  12.505  0.1550  0.3373  0.1193
13883TIP3    H163064   0.981   6.378  12.486  0.0170  0.5090  0.9987
13883TIP3    H263065   1.071   6.280  12.559  1.5538 -0.3331 -1.9040
13884TIP3   OH263066   4.005   0.330   0.974  0.0484 -0.7071 -0.2171
13884TIP3    H163067   3.986   0.292   1.060 -1.7612 -1.0706 -0.7278
13884TIP3    H263068   3.926   0.312   0.922 -0.6153  2.9879 -0.7546
13885TIP3   OH263069   3.698   1.710   4.102 -0.3542  0.1951  0.4738
13885TIP3    H163070   3.760   1.771   4.062 -1.3838  2.2420  1.8334
13885TIP3    H263071   3.707   1.725   4.196  0.0064 -2.4766  0.9429
13886TIP3   OH263072   2.588   3.835   3.470  0.3407 -0.0315 -0.1893
13886TIP3    H163073   2.641   3.909   3.440 -1.0983  1.1628  0.0399
13886TIP3    H263074   2.568   3.856   3.561  0.9810 -1.3724  0.2719
13887TIP3   OH263075   6.697   0.591  12.120 -0.3748 -0.4343  0.2866
13887TIP3    H163076   6.782   0.625  12.091 -0.3007  0.2457  1.2637
13887TIP3    H263077   6.719   0.512  12.171 -0.4283 -0.9717 -0.5026
13888TIP3   OH263078   6.086   1.853   3.003 -0.3561  0.2153  0.3267
13888TIP3    H163079   6.021   1.816   3.062  0.2973 -1.6480 -0.0572
13888TIP3    H263080   6.156   1.886   3.060 -1.3369  1.7333  0.7128
13889TIP3   OH263081   0.745   1.254  11.421  0.2901 -0.2745 -0.2802
13889TIP3    H163082   0.719   1.298  11.502 -0.7495  0.2632 -0.8810
13889TIP3    H263083   0.688   1.178  11.415 -0.1505  0.0932 -0.8669
13890TIP3   OH263084   2.112   4.442  14.825 -0.2346  0.2736 -0.2032
13890TIP3    H163085   2.193   4.490  14.808  0.4794  0.1597  2.4249
13890TIP3    H263086   2.135   4.351  14.810 -0.3291  0.3525 -0.8826
13891TIP3   OH263087   3.164   2.473   2.823 -0.1344  0.1884  0.2348
13891TIP3    H163088   3.167   2.424   2.906  3.2096  0.6760  0.5248
13891TIP3    H263089   3.161   2.406   2.756  3.3062 -0.5761  0.6664
13892TIP3   OH263090   1.364   3.592  15.118 -0.6477 -0.5042 -0.5924
13892TIP3    H163091   1.354   3.664  15.055 -0.8701 -0.3817 -0.4151
13892TIP3    H263092   1.295   3.531  15.095 -1.0004 -0.2578 -0.1912
13893TIP3   OH263093   1.807   6.385  12.407  0.5140  0.5654 -0.4700
13893TIP3    H163094   1.799   6.456  12.343  1.1719  0.1180 -1.0665
13893TIP3    H263095   1.862   6.421  12.476  0.1280  0.9199 -0.3417
13894TIP3   OH263096   3.361   2.955   0.401  0.5981 -0.5284 -0.0264
13894TIP3    H163097   3.302   3.012   0.352  1.3851  0.5106  0.2050
13894TIP3    H263098   3.313   2.932   0.480  0.8591  1.1221  0.6404
13895TIP3   OH263099   0.740   2.994  13.542 -0.1482 -0.5798 -0.3485
13895TIP3    H163100   0.820   2.943  13.526 -0.9556 -2.0446  0.0748
13895TIP3    H263101   0.689   2.985  13.461 -0.4229 -0.6965 -0.1645
13896TIP3   OH263102   0.567   3.898   1.940 -0.2585 -0.2903 -0.1530
13896TIP3    H163103   0.498   3.888   2.006  0.3300 -1.0436  0.3633
13896TIP3    H263104   0.630   3.830   1.962  0.5602  0.2748 -0.7328
13897TIP3   OH263105   4.209   1.859   5.927  0.0134  0.0461 -0.8675
13897TIP3    H163106   4.164   1.847   5.843  0.8635 -0.5510 -1.2556
13897TIP3    H263107   4.290   1.905   5.904 -1.2675  3.0469  0.0789
13898TIP3   OH263108   3.065   3.059   2.412  0.4140  0.2888 -0.3796
13898TIP3    H163109   3.148   3.011   2.419  0.2946  0.1326  0.0264
13898TIP3    H263110   3.027   3.030   2.329  1.7680  1.9881 -1.6458
13899TIP3   OH263111   6.120   2.321   2.952 -0.3670  0.4992  0.1005
13899TIP3    H163112   6.067   2.243   2.937 -0.7669  0.8030 -0.0888
13899TIP3    H263113   6.111   2.373   2.872 -0.1617  0.7748  0.2496
13900TIP3   OH263114   4.386   3.023  12.953  0.3388  0.3420 -1.0291
13900TIP3    H163115   4.399   2.976  12.871  0.3697  0.7809 -1.2812
13900TIP3    H263116   4.399   3.115  12.930 -0.0524  0.5039 -0.6179
13901TIP3   OH263117   2.169   4.384   3.573  0.6709 -0.0176 -1.0276
13901TIP3    H163118   2.243   4.324   3.559  0.8569 -0.1489  0.3802
13901TIP3    H263119   2.179   4.414   3.663 -1.8714 -1.2459 -0.2403
13902TIP3   OH263120   2.965   4.342   6.409 -0.7338 -0.5224 -0.2286
13902TIP3    H163121   3.043   4.333   6.354 -1.0690  1.9393 -1.2402
13902TIP3    H263122   2.975   4.274   6.476  1.2941 -1.5323 -1.4512
13903TIP3   OH263123   3.576   3.113  13.147  0.5067 -0.3567  0.7571
13903TIP3    H163124   3.638   3.060  13.097  0.3396 -1.0105  1.2331
13903TIP3    H263125   3.626   3.191  13.173 -0.2397  1.7458 -3.2447
13904TIP3   OH263126   5.525   2.742   2.786  0.1477  0.0194  0.3876
13904TIP3    H163127   5.600   2.742   2.846  0.0823  0.7772  0.4734
13904TIP3    H263128   5.520   2.651   2.755  1.7408  0.1617 -0.3985
13905TIP3   OH263129   4.329   4.056  11.731  0.6461 -0.2249 -0.3024
13905TIP3    H163130   4.242   4.017  11.738  1.1668 -1.4172 -0.0980
13905TIP3    H263131   4.317   4.132  11.675 -1.0848  1.4541  2.1470
13906TIP3   OH263132   5.997   4.119  13.463 -0.0637  1.0173 -0.3349
13906TIP3    H163133   6.084   4.124  13.502 -0.1754 -1.4170  0.3401
13906TIP3    H263134   6.011   4.136  13.370  1.4890 -1.2683 -0.5953
13907TIP3   OH263135   4.541   4.776   1.052 -0.3838 -0.6332 -0.0880
13907TIP3    H163136   4.584   4.746   0.972 -1.9210 -1.1097 -0.7948
13907TIP3    H263137   4.521   4.868   1.036  0.4249 -0.3948  0.2676
13908TIP3   OH263138   5.253   0.638  12.415 -0.8993 -0.1600 -0.3944
13908TIP3    H163139   5.183   0.578  12.441 -1.6430  1.3878  1.4616
13908TIP3    H263140   5.283   0.676  12.498  2.9039 -1.4966 -0.9891
13909TIP3   OH263141   1.582   3.892  12.079  0.5770  0.1284  0.2144
13909TIP3    H163142   1.636   3.899  12.001  0.1728 -0.3565 -0.1128
13909TIP3    H263143   1.593   3.801  12.108 -2.9948 -1.2827 -2.0634
13910TIP3   OH263144   1.515   5.593  12.244  0.0240  0.6189  0.2431
13910TIP3    H163145   1.458   5.655  12.199  0.9598  1.2107 -0.1433
13910TIP3    H263146   1.503   5.612  12.337 -1.3929 -0.1474  0.2542
13911TIP3   OH263147   4.315   6.453  15.989  0.2396  0.2779  0.3261
13911TIP3    H163148   4.318   6.433  15.895  1.1570  0.4187  0.3124
13911TIP3    H263149   4.278   6.374  16.029 -1.5055  0.7599 -0.2795
13912TIP3   OH263150   2.766   4.110  10.929  0.2068  0.3780  0.2304
13912TIP3    H163151   2.762   4.192  10.880 -0.9769 -0.1335 -0.5607
13912TIP3    H263152   2.693   4.059  10.896  0.2886 -0.5816  1.4788
13913TIP3   OH263153   4.675   2.857   4.301 -0.5981  0.2244  0.3377
13913TIP3    H163154   4.616   2.925   4.335  0.6550  0.6348  1.8000
13913TIP3    H263155   4.758   2.872   4.347  0.0013 -1.7065 -0.0205
13914TIP3   OH263156   0.254   5.247  11.717 -0.6656  0.2758 -0.1665
13914TIP3    H163157   0.266   5.222  11.625  0.5712 -2.5207  0.6382
13914TIP3    H263158   0.342   5.261  11.750 -1.0296  0.3576  0.8010
13915TIP3   OH263159   1.047   1.053  14.736  0.0416 -0.0822 -0.2810
13915TIP3    H163160   1.025   1.135  14.782 -1.9001  0.1825 -1.5623
13915TIP3    H263161   0.964   1.024  14.699  0.6748 -2.6755  0.1294
13916TIP3   OH263162   0.352   3.133   1.920 -0.5204 -0.0415  0.6004
13916TIP3    H163163   0.298   3.071   1.870  0.8040  0.1467 -1.1337
13916TIP3    H263164   0.309   3.218   1.908  0.0284  0.0735 -0.6023
13917TIP3   OH263165   3.479   2.863   1.861 -0.0966  0.5158  0.0164
13917TIP3    H163166   3.551   2.849   1.923 -0.6237  1.6753  0.9225
13917TIP3    H263167   3.406   2.814   1.899 -0.3207  0.9341  0.1247
13918TIP3   OH263168   6.758   1.456   1.985  0.2579  0.1614 -0.5718
13918TIP3    H163169   6.694   1.506   2.036  2.3478  1.3578  1.0559
13918TIP3    H263170   6.733   1.365   1.998 -2.1243  0.6087 -1.4778
13919TIP3   OH263171   2.591   3.520  12.175  0.6807  0.0126  0.3823
13919TIP3    H163172   2.587   3.465  12.253  1.3877 -1.2090 -0.3992
13919TIP3    H263173   2.674   3.567  12.183  0.1834  0.8108  0.9414
13920TIP3   OH263174   2.571   4.280   5.781 -0.5379 -0.2890  0.1853
13920TIP3    H163175   2.507   4.219   5.744 -0.8678  0.7233 -1.0114
13920TIP3    H263176   2.646   4.225   5.805 -1.4783 -1.3725  0.7576
13921TIP3   OH263177   1.922   4.353   1.704  0.0966  0.0215  0.0402
13921TIP3    H163178   1.927   4.381   1.795  0.2030 -0.8685  0.3234
13921TIP3    H263179   1.873   4.271   1.707  0.0158  0.0334 -0.7167
13922TIP3   OH263180   2.245   5.578  16.913 -0.5371  0.1545 -0.8467
13922TIP3    H163181   2.170   5.630  16.886 -0.9774 -0.1325 -0.2192
13922TIP3    H263182   2.207   5.507  16.965  0.0888 -0.5441 -1.3336
13923TIP3   OH263183   1.459   4.434  13.706 -0.5400 -0.0474  0.1687
13923TIP3    H163184   1.378   4.411  13.661 -0.7038  0.1164  0.3754
13923TIP3    H263185   1.455   4.529  13.716  0.0463  0.0542 -0.5153
13924TIP3   OH263186   3.014   1.201  13.910  0.6045 -0.1846  0.6157
13924TIP3    H163187   2.932   1.242  13.883  1.0739 -0.0601 -0.6836
13924TIP3    H263188   3.018   1.214  14.005 -0.3199  0.8096  0.5300
13925TIP3   OH263189   3.763   2.792   5.583 -0.0741  0.4434 -0.6120
13925TIP3    H163190   3.853   2.762   5.599  0.2015  1.4687 -0.1697
13925TIP3    H263191   3.772   2.886   5.567 -1.1814  0.7339  0.4253
13926TIP3   OH263192   1.864   6.488  10.374 -0.4949  0.5473  0.1936
13926TIP3    H163193   1.803   6.515  10.306 -0.1960  0.2513 -0.1975
13926TIP3    H263194   1.826   6.521  10.455 -0.0968  2.2369 -0.2728
13927TIP3   OH263195   6.485   6.758   5.806 -0.1393  0.6932  0.2505
13927TIP3    H163196   6.572   6.732   5.775 -0.1824 -0.3928  0.9949
13927TIP3    H263197   6.495   6.852   5.826  0.4950  0.8847 -0.8731
13928TIP3   OH263198   4.569   5.307   5.419  0.0492 -0.5028  0.2321
13928TIP3    H163199   4.489   5.291   5.468 -0.0249 -0.3425  0.1638
13928TIP3    H263200   4.539   5.335   5.332  0.1657  0.4148  0.4724
13929TIP3   OH263201   4.684   5.345   4.966  0.0112 -0.3412  0.0671
13929TIP3    H163202   4.652   5.415   5.023  2.1363 -0.5328  1.6257
13929TIP3    H263203   4.718   5.279   5.027 -0.0446 -1.7867 -1.4134
13930TIP3   OH263204   0.527   3.080  16.742 -0.0901 -0.0593  0.5487
13930TIP3    H163205   0.516   3.095  16.836 -0.0243 -1.0752  0.7323
13930TIP3    H263206   0.621   3.087  16.728 -0.2020  1.2184  0.3421
13931TIP3   OH263207   2.842   1.841  13.444 -0.2964  0.1896  0.1033
13931TIP3    H163208   2.894   1.821  13.522 -1.0185 -1.7057  0.1484
13931TIP3    H263209   2.907   1.860  13.376  0.4246 -0.5160  0.5690
13932TIP3   OH263210   3.523   1.897  16.004  0.0057 -0.4554  0.1839
13932TIP3    H163211   3.470   1.827  15.964 -0.9282  0.4427 -0.2045
13932TIP3    H263212   3.613   1.873  15.983 -0.3254 -1.2918 -0.3645
13933TIP3   OH263213   1.531   3.268  13.447 -0.1812  0.1186 -0.1326
13933TIP3    H163214   1.580   3.241  13.369 -0.7252 -0.1117 -0.4009
13933TIP3    H263215   1.599   3.288  13.512  0.2730  0.1318 -0.6024
13934TIP3   OH263216   6.039   0.491   2.496 -0.1814 -0.6231 -0.5715
13934TIP3    H163217   5.981   0.563   2.473 -1.7706 -1.3546  0.9700
13934TIP3    H263218   6.051   0.442   2.414 -1.5901 -0.3630 -0.9486
13935TIP3   OH263219   1.231   0.105  15.805  0.5503  0.2512  0.4260
13935TIP3    H163220   1.197   0.016  15.805  0.8336  0.1341 -0.4893
13935TIP3    H263221   1.155   0.160  15.783  1.0977 -0.1179 -2.9819
13936TIP3   OH263222   4.811   2.676  14.180  0.1469  0.1724 -0.0007
13936TIP3    H163223   4.737   2.679  14.119  0.9703  0.6010 -1.0109
13936TIP3    H263224   4.770   2.677  14.267 -1.0217  1.2005 -0.5240
13937TIP3   OH263225   3.369   6.625  11.870 -0.2269 -0.5967  0.0900
13937TIP3    H163226   3.378   6.720  11.866 -0.2530 -0.6132 -0.6277
13937TIP3    H263227   3.369   6.604  11.963  2.0473 -0.1215  0.2487
13938TIP3   OH263228   3.137   4.957  16.244 -0.5354 -0.3188  0.5265
13938TIP3    H163229   3.169   4.955  16.334 -0.0551  0.3101  0.3782
13938TIP3    H263230   3.164   4.873  16.206  0.1177 -0.1824  0.6829
13939TIP3   OH263231   0.657   6.702   1.532 -0.0152 -0.2331 -0.3641
13939TIP3    H163232   0.566   6.673   1.542  0.3809 -0.9642  1.7185
13939TIP3    H263233   0.704   6.654   1.600  1.5105  1.8789  0.1465
13940TIP3   OH263234   1.560   3.387   4.016 -0.5142 -0.3172 -0.4664
13940TIP3    H163235   1.543   3.480   3.998  1.3366  0.8959  3.1000
13940TIP3    H263236   1.641   3.368   3.968  0.5932  0.8067  0.8493
13941TIP3   OH263237   1.927   4.321  13.881  0.5220 -0.4461 -0.2665
13941TIP3    H163238   1.936   4.364  13.966 -2.5560 -1.3682  0.6592
13941TIP3    H263239   2.000   4.259  13.878  1.0631  0.0358  1.4423
13942TIP3   OH263240   0.403   5.105   3.484  0.1719  0.0598 -0.1518
13942TIP3    H163241   0.385   5.011   3.480  1.0445 -0.1826  1.0824
13942TIP3    H263242   0.422   5.129   3.393 -0.5183 -0.8464 -0.5516
13943TIP3   OH263243   4.864   5.220   4.087 -0.6599  0.6681 -0.0242
13943TIP3    H163244   4.828   5.230   3.998 -0.6670  0.4853 -0.0434
13943TIP3    H263245   4.854   5.126   4.105  0.5958  0.4518 -0.3637
13944TIP3   OH263246   1.707   2.648   5.838 -0.3432  0.3682  0.0376
13944TIP3    H163247   1.679   2.574   5.893 -1.1106 -0.8021 -1.8171
13944TIP3    H263248   1.651   2.721   5.866 -0.8160 -0.2393  0.7133
13945TIP3   OH263249   0.319   6.266  15.158 -0.5747  0.2020  0.4989
13945TIP3    H163250   0.326   6.171  15.167 -0.3505  0.3249  1.7124
13945TIP3    H263251   0.380   6.301  15.223 -1.4189  1.1864  0.7870
13946TIP3   OH263252   6.747   3.622   6.104 -0.0245 -0.5287  0.2044
13946TIP3    H163253   6.755   3.542   6.051  2.0146 -0.8089  0.8681
13946TIP3    H263254   6.717   3.591   6.189  1.5220 -0.7295  0.7050
13947TIP3   OH263255   3.434   0.571  11.693 -0.0464  0.2858  0.1109
13947TIP3    H163256   3.479   0.617  11.764 -0.7434  2.0265 -0.5256
13947TIP3    H263257   3.498   0.508  11.661  1.6064  1.9903 -0.1153
13948TIP3   OH263258   4.337   0.913   0.953 -0.7782 -0.0847 -0.0479
13948TIP3    H163259   4.343   0.884   0.862 -0.3739  2.1427 -0.7948
13948TIP3    H263260   4.265   0.975   0.954 -1.5880 -0.9873  1.4626
13949TIP3   OH263261   4.483   5.741  15.428  0.0733 -0.2744 -0.3249
13949TIP3    H163262   4.464   5.824  15.472  0.6665 -0.2847 -0.0409
13949TIP3    H263263   4.538   5.766  15.354  0.2157 -0.4069 -0.2641
13950TIP3   OH263264   0.720   2.089   4.826 -0.1175  0.0613  0.5178
13950TIP3    H163265   0.769   2.017   4.865 -1.4822 -0.7648  0.7868
13950TIP3    H263266   0.640   2.095   4.879 -0.2368  1.4918  0.2253
13951TIP3   OH263267   3.841   2.477  16.021 -0.1917  0.2606  0.0764
13951TIP3    H163268   3.771   2.515  16.074 -1.4628  0.4572 -1.6697
13951TIP3    H263269   3.872   2.401  16.072 -1.7642  0.0975  0.8225
13952TIP3   OH263270   5.419   1.660   0.115  0.2189 -0.0312  0.2323
13952TIP3    H163271   5.376   1.662   0.200 -0.6056  1.3091 -0.1667
13952TIP3    H263272   5.346   1.652   0.052  0.6226  0.9637 -0.4004
13953TIP3   OH263273   3.214   5.648  15.002 -0.2019 -0.3144 -0.9767
13953TIP3    H163274   3.271   5.575  14.981 -0.2401 -0.4280 -0.6854
13953TIP3    H263275   3.144   5.643  14.936  0.3376  0.0734 -1.5949
13954TIP3   OH263276   0.358   1.598   1.063  0.0872 -0.0682  0.3238
13954TIP3    H163277   0.425   1.625   1.000 -0.3731  1.8679  0.5941
13954TIP3    H263278   0.402   1.535   1.120  0.8634 -0.9130 -1.1512
13955TIP3   OH263279   5.583   2.943   0.856 -0.7013 -0.3000 -0.2700
13955TIP3    H163280   5.488   2.936   0.860 -0.6836 -1.2208 -1.0141
13955TIP3    H263281   5.612   2.858   0.821  0.3829  0.0108 -0.1763
13956TIP3   OH263282   1.243   6.607  14.654  0.1625  0.4440 -0.3788
13956TIP3    H163283   1.261   6.635  14.744 -1.0334 -1.0873  0.3905
13956TIP3    H263284   1.213   6.687  14.610  3.3286  1.8432 -0.2553
13957TIP3   OH263285   4.513   4.975  16.524  0.4236 -0.3369 -0.3070
13957TIP3    H163286   4.440   4.939  16.473  2.6028 -3.5015 -1.5553
13957TIP3    H263287   4.571   5.013  16.458  0.4733  1.1690  0.5619
13958TIP3   OH263288   6.375   3.111  11.796  0.0514  0.4487  0.3852
13958TIP3    H163289   6.319   3.159  11.857 -1.0523 -0.2015 -0.0996
13958TIP3    H263290   6.353   3.147  11.710  1.6244  1.3877  0.3391
13959TIP3   OH263291   0.352   4.820   2.664  0.1567 -0.2571  0.2060
13959TIP3    H163292   0.276   4.769   2.691  0.1179 -0.3471 -0.0769
13959TIP3    H263293   0.418   4.754   2.640 -0.6600 -0.2168 -2.4334
13960TIP3   OH263294   5.346   5.832  13.211 -0.8219 -0.0998  0.4140
13960TIP3    H163295   5.360   5.866  13.123 -2.5418  2.0565  0.8918
13960TIP3    H263296   5.434   5.807  13.241  0.2287  1.7913 -0.8740
13961TIP3   OH263297   1.219   1.522   0.494  0.0035  0.4132  0.5194
13961TIP3    H163298   1.152   1.561   0.550 -0.7167 -0.1682  0.0830
13961TIP3    H263299   1.180   1.522   0.406  0.6712  0.2849  0.2166
13962TIP3   OH263300   2.154   0.455  12.683 -0.0921 -0.7713 -0.1310
13962TIP3    H163301   2.185   0.496  12.603 -0.7796 -0.4597 -0.2487
13962TIP3    H263302   2.178   0.363  12.675 -0.1343 -0.7347 -0.6827
13963TIP3   OH263303   3.328   2.565  15.346  0.1681  0.5803 -0.3690
13963TIP3    H163304   3.414   2.531  15.321  0.3511  1.4658 -1.0407
13963TIP3    H263305   3.347   2.628  15.416  0.0759  0.7948 -0.5358
13964TIP3   OH263306   2.102   2.928  11.738  0.1692 -0.6041  0.2350
13964TIP3    H163307   2.056   2.958  11.660 -1.1736  0.9638  1.5468
13964TIP3    H263308   2.159   3.001  11.762 -0.4108 -0.5011  1.4100
13965TIP3   OH263309   6.296   6.735   4.540 -0.2019 -0.4682  0.2328
13965TIP3    H163310   6.349   6.808   4.508  0.8212 -0.1449  2.4507
13965TIP3    H263311   6.349   6.657   4.523  0.3861 -0.2863  1.1109
13966TIP3   OH263312   1.379   3.241   0.884 -1.0929 -0.8268  0.1870
13966TIP3    H163313   1.456   3.191   0.909 -0.3297  0.8035  1.2313
13966TIP3    H263314   1.412   3.308   0.824 -1.6043  0.1439  0.9592
13967TIP3   OH263315   1.143   6.517   6.152 -0.3812 -0.3846  0.2957
13967TIP3    H163316   1.160   6.593   6.095 -0.2327 -1.4946 -1.2132
13967TIP3    H263317   1.230   6.482   6.170 -0.4781 -0.4643  0.6063
13968TIP3   OH263318   0.558   4.028  11.709  0.1087  0.4997  0.0731
13968TIP3    H163319   0.636   4.032  11.764 -0.3770  0.6358  0.7651
13968TIP3    H263320   0.485   4.029  11.771 -0.4375 -2.7145 -0.3474
13969TIP3   OH263321   3.157   5.342  10.626  0.2594  0.3509  0.1463
13969TIP3    H163322   3.135   5.387  10.544  1.3769  0.6682 -0.0023
13969TIP3    H263323   3.248   5.313  10.613 -0.0049 -0.8134  0.7473
13970TIP3   OH263324   0.735   3.632  12.189  0.3911  1.0209 -0.3642
13970TIP3    H163325   0.700   3.567  12.128 -0.5269  0.6259  0.5452
13970TIP3    H263326   0.789   3.582  12.250  0.5696  1.2765 -0.3105
13971TIP3   OH263327   2.558   4.211  15.690  0.3629  0.0928 -0.4082
13971TIP3    H163328   2.467   4.236  15.706 -0.3400  0.1196 -3.7131
13971TIP3    H263329   2.558   4.116  15.697 -0.6577 -0.1775 -3.0626
13972TIP3   OH263330   1.301   5.780   4.146  0.9120 -0.2662 -0.8666
13972TIP3    H163331   1.341   5.813   4.227 -0.7155  0.3955 -0.2904
13972TIP3    H263332   1.319   5.848   4.081  0.5941  0.1049 -0.5707
13973TIP3   OH263333   2.554   5.802  11.634 -0.3205 -0.0115  0.1342
13973TIP3    H163334   2.552   5.753  11.552  2.8809 -0.6855  0.3224
13973TIP3    H263335   2.504   5.881  11.616 -1.8702 -1.2942 -1.5982
13974TIP3   OH263336   5.901   3.443  12.429  0.0028  0.1412  0.0846
13974TIP3    H163337   5.900   3.391  12.349 -1.9590  1.7199 -1.0078
13974TIP3    H263338   5.906   3.534  12.399  2.2131  0.7250  1.8856
13975TIP3   OH263339   4.265   5.948  13.558  0.4322  0.3306  0.2528
13975TIP3    H163340   4.295   5.990  13.478  2.1424 -0.7105  0.2917
13975TIP3    H263341   4.344   5.909  13.596 -0.6691 -0.9088  1.3927
13976TIP3   OH263342   3.841   0.551   3.710 -0.3847  0.8888 -0.0517
13976TIP3    H163343   3.841   0.456   3.700 -1.0045  0.5680  2.2453
13976TIP3    H263344   3.831   0.565   3.805  0.3398  3.2434 -0.2532
13977TIP3   OH263345   4.564   2.430   5.948  0.4149  0.1473 -0.4782
13977TIP3    H163346   4.601   2.346   5.920  0.5983  0.8525 -2.5693
13977TIP3    H263347   4.612   2.452   6.028  1.3387 -1.0864 -0.6580
13978TIP3   OH263348   0.279   6.672  11.654 -0.5112 -0.4197  0.3924
13978TIP3    H163349   0.345   6.722  11.701 -0.4476 -0.4666  0.3535
13978TIP3    H263350   0.290   6.582  11.685 -1.3672 -0.2301  1.3053
13979TIP3   OH263351   6.572   1.052   5.567  0.4141  0.2070 -0.2000
13979TIP3    H163352   6.596   1.092   5.651  0.9571  1.2473 -0.8394
13979TIP3    H263353   6.593   1.119   5.501  1.1311 -1.0482 -1.2815
13980TIP3   OH263354   5.267   0.351  16.779  0.2059 -0.1360 -0.0540
13980TIP3    H163355   5.357   0.347  16.747  0.1775  1.6071 -0.4560
13980TIP3    H263356   5.237   0.260  16.779  1.4452 -0.5749 -1.4053
13981TIP3   OH263357   5.313   1.603   4.259  0.1479  0.0204 -0.2789
13981TIP3    H163358   5.248   1.641   4.200 -1.3573 -0.4303  1.0261
13981TIP3    H263359   5.336   1.673   4.319 -0.4624 -0.3093  0.3465
13982TIP3   OH263360   2.167   6.550  15.339 -0.0298  0.4144 -0.1355
13982TIP3    H163361   2.140   6.581  15.252 -0.9287  1.1098  0.3708
13982TIP3    H263362   2.093   6.572  15.396  0.9472  0.8492  0.9985
13983TIP3   OH263363   6.202   3.539   6.507  0.2156 -0.1488 -0.2489
13983TIP3    H163364   6.250   3.577   6.580  1.6466 -0.2024 -1.1214
13983TIP3    H263365   6.264   3.479   6.466 -1.4652 -2.3015  0.1637
13984TIP3   OH263366   6.635   2.929  16.447  0.1833 -0.2188  0.5089
13984TIP3    H163367   6.650   2.957  16.357  0.0470 -1.5974  0.0313
13984TIP3    H263368   6.610   3.008  16.494 -1.0230  0.2923 -0.9532
13985TIP3   OH263369   3.666   6.585   3.370 -0.5557  0.0015 -0.0074
13985TIP3    H163370   3.658   6.537   3.453 -0.6883 -1.0913 -0.6296
13985TIP3    H263371   3.755   6.621   3.373  0.2814 -1.8900 -0.3103
13986TIP3   OH263372   6.348   5.752  16.708 -0.7550 -0.7222 -0.2320
13986TIP3    H163373   6.350   5.817  16.778 -0.7506 -0.0172 -0.8741
13986TIP3    H263374   6.429   5.701  16.720  1.5902  2.1676 -2.2739
13987TIP3   OH263375   0.049   5.424  12.828 -0.1026 -0.1568 -0.2434
13987TIP3    H163376   0.003   5.358  12.776 -0.6384 -2.2999  2.6773
13987TIP3    H263377   0.132   5.383  12.853  0.0558  0.6962  0.7239
13988TIP3   OH263378   2.815   2.526  14.717 -0.9301  0.3121  0.2994
13988TIP3    H163379   2.787   2.541  14.627  0.0088 -0.2010 -0.0773
13988TIP3    H263380   2.864   2.445  14.715 -0.9313  0.2687  1.2876
13989TIP3   OH263381   6.052   5.505  14.066 -0.1784  0.0013  0.3013
13989TIP3    H163382   6.074   5.541  13.980  0.4046  0.4987  0.6464
13989TIP3    H263383   6.097   5.421  14.070  0.4023  0.3136  0.4007
13990TIP3   OH263384   5.751   3.207   0.618  0.1079  0.0546  0.3347
13990TIP3    H163385   5.747   3.160   0.535  1.8508 -1.7181  1.1774
13990TIP3    H263386   5.831   3.175   0.660 -0.2547  1.5568  2.3116
13991TIP3   OH263387   5.568   4.750  14.369  0.6430 -0.4919 -0.2363
13991TIP3    H163388   5.546   4.663  14.402 -1.5069 -0.0211 -0.2286
13991TIP3    H263389   5.484   4.784  14.336  1.1488  2.0332  0.8422
13992TIP3   OH263390   2.325   6.735  12.248 -0.1108 -0.2377 -0.2518
13992TIP3    H163391   2.306   6.641  12.256  0.0804 -0.4101 -1.5838
13992TIP3    H263392   2.342   6.748  12.155  0.6569  0.9823  0.0397
13993TIP3   OH263393   2.467   5.013  13.639 -0.4878 -0.3949 -0.2618
13993TIP3    H163394   2.556   4.990  13.665 -0.2243  1.0735  0.2679
13993TIP3    H263395   2.423   5.036  13.722 -1.3173 -0.9448 -0.5342
13994TIP3   OH263396   1.899   6.677   4.420  0.4531 -0.3127  0.0509
13994TIP3    H163397   1.811   6.642   4.434  1.3812 -2.9144  0.0298
13994TIP3    H263398   1.898   6.708   4.330 -0.9065  1.4153  0.5941
13995TIP3   OH263399   2.051   5.560   5.314 -0.2575 -0.2154 -0.4047
13995TIP3    H163400   1.992   5.519   5.251 -1.0748  1.5699 -0.8697
13995TIP3    H263401   2.117   5.604   5.260 -0.8054  1.0979 -0.0502
13996TIP3   OH263402   2.892   3.991   0.787  0.1294 -0.1718 -0.1297
13996TIP3    H163403   2.898   4.052   0.861 -0.3253 -0.6557  0.3179
13996TIP3    H263404   2.811   4.016   0.742  0.0519 -0.3096 -0.0671
13997TIP3   OH263405   5.565   1.678  14.149 -0.0749  0.2490 -0.5536
13997TIP3    H163406   5.643   1.670  14.093 -0.3317 -1.2002 -0.7541
13997TIP3    H263407   5.554   1.591  14.186  0.1531  1.2019  1.8924
13998TIP3   OH263408   4.246   1.152   6.014  0.3145  0.2045  0.1629
13998TIP3    H163409   4.198   1.228   6.047 -0.0374  0.8941 -1.8255
13998TIP3    H263410   4.292   1.185   5.937  1.9977 -1.0666  0.5756
13999TIP3   OH263411   5.443   0.486   5.569  0.1054  0.3758  0.4712
13999TIP3    H163412   5.475   0.412   5.619  1.2060  1.5585  1.5950
13999TIP3    H263413   5.424   0.451   5.482  5.0677 -0.4386 -0.5910
14000TIP3   OH263414   1.704   3.897   4.164 -0.2547  0.1590 -0.1643
14000TIP3    H163415   1.667   3.882   4.077  1.2491 -1.9735 -0.5143
14000TIP3    H263416   1.798   3.897   4.151  0.0037  0.0731  1.4385
14001TIP3   OH263417   2.129   6.519  12.279  0.1426 -0.2392  0.2465
14001TIP3    H163418   2.129   6.436  12.232 -0.4831 -0.3750  0.4722
14001TIP3    H263419   2.082   6.579  12.222  1.5719  0.2759 -0.4291
14002TIP3   OH263420   3.343   3.443   1.596 -0.3918 -0.6780  0.5708
14002TIP3    H163421   3.333   3.397   1.679 -1.6855 -0.8661  0.3400
14002TIP3    H263422   3.369   3.532   1.621 -2.6861 -0.1469  1.3515
14003TIP3   OH263423   1.691   3.933   1.242  0.6807  0.2379  0.3819
14003TIP3    H163424   1.721   4.013   1.287 -0.1522  0.9331 -0.2686
14003TIP3    H263425   1.698   3.955   1.149 -0.3383 -0.1536  0.2079
14004TIP3   OH263426   0.484   1.170   4.489  0.2154 -0.0207 -0.5634
14004TIP3    H163427   0.465   1.112   4.415  0.1738 -0.9894  0.1842
14004TIP3    H263428   0.486   1.112   4.565 -2.2360  1.2278  0.5976
14005TIP3   OH263429   6.442   4.344  14.053 -0.0749 -0.6954 -0.0607
14005TIP3    H163430   6.476   4.256  14.037 -1.2725 -0.8457 -2.0038
14005TIP3    H263431   6.505   4.403  14.011  0.5185 -0.6154  0.9029
14006TIP3   OH263432   0.647   0.084   2.349 -0.1856 -0.0011  0.1088
14006TIP3    H163433   0.623   0.174   2.326  1.0857  1.3589  3.5032
14006TIP3    H263434   0.631   0.078   2.443  4.1495 -1.7305  0.9921
14007TIP3   OH263435   4.797   3.045  16.469  0.2596 -0.1015  0.2111
14007TIP3    H163436   4.857   3.055  16.543 -2.3577  1.9066  2.2712
14007TIP3    H263437   4.713   3.021  16.509 -1.1485  0.5116 -2.1576
14008TIP3   OH263438   6.069   1.237  16.026 -0.2513  0.3012  0.0405
14008TIP3    H163439   6.139   1.294  16.058  0.8991 -1.5815  1.0602
14008TIP3    H263440   6.106   1.196  15.947  0.1363 -1.2156  0.9589
14009TIP3   OH263441   5.918   4.798   3.467 -0.4750 -0.1990  0.7759
14009TIP3    H163442   5.970   4.836   3.538 -0.5573  1.5821 -0.0607
14009TIP3    H263443   5.828   4.801   3.500 -0.3180 -1.1393  1.3195
14010TIP3   OH263444   0.708   0.544  17.222 -0.5277  0.1092  0.0098
14010TIP3    H163445   0.653   0.618  17.246 -1.4970 -0.8447  0.8794
14010TIP3    H263446   0.731   0.503  17.306 -1.0339 -1.2745 -0.5022
14011TIP3   OH263447   6.056   2.372   0.497  0.2581 -0.0864 -0.2811
14011TIP3    H163448   6.063   2.450   0.553  0.5820  0.4523 -1.0474
14011TIP3    H263449   5.966   2.375   0.464  0.1071 -0.3337  0.0981
14012TIP3   OH263450   4.990   3.578   0.606 -0.2616  0.3670  0.7816
14012TIP3    H163451   5.004   3.511   0.672 -1.2713 -1.2907 -0.5702
14012TIP3    H263452   4.938   3.646   0.650  1.1718  0.5230  2.3054
14013TIP3   OH263453   5.756   1.728  14.568 -0.3360 -0.3268  0.0191
14013TIP3    H163454   5.672   1.738  14.612 -0.8353 -0.2918 -0.9067
14013TIP3    H263455   5.804   1.664  14.621 -1.3480 -1.1186  0.0112
14014TIP3   OH263456   2.071   2.205  16.418  0.1951 -0.2435 -0.4484
14014TIP3    H163457   2.134   2.138  16.392  0.8285  0.6327 -1.2270
14014TIP3    H263458   1.986   2.165  16.404  0.5655 -1.2505  0.0864
14015TIP3   OH263459   1.246   5.065   1.847  0.5020 -0.0883 -0.4390
14015TIP3    H163460   1.328   5.078   1.896  0.0972  1.7796 -0.1880
14015TIP3    H263461   1.213   4.981   1.878  1.4213 -0.0246  0.7865
14016TIP3   OH263462   4.083   1.874  15.901 -0.3325 -0.1959 -0.1402
14016TIP3    H163463   4.157   1.933  15.886 -1.7380  1.4491 -0.9243
14016TIP3    H263464   4.055   1.848  15.813 -0.4108 -1.2134  0.1661
14017TIP3   OH263465   1.326   5.009   5.372 -0.1198  0.5405 -0.6369
14017TIP3    H163466   1.333   4.939   5.307 -0.1312  0.6373 -0.7439
14017TIP3    H263467   1.235   5.039   5.364  0.1076  1.1300 -1.1825
14018TIP3   OH263468   0.747   5.733  14.331  0.1877 -0.3627 -0.6688
14018TIP3    H163469   0.657   5.730  14.363  0.4191 -1.3684 -0.0553
14018TIP3    H263470   0.757   5.653  14.280  0.5136  0.1228 -1.3778
14019TIP3   OH263471   5.000   4.996  13.064  0.0123 -0.0902  0.1212
14019TIP3    H163472   4.954   4.916  13.040  0.1267 -0.1452  0.0830
14019TIP3    H263473   4.989   5.053  12.988  0.5796 -0.3535 -0.1715
14020TIP3   OH263474   2.117   5.584  13.065  0.2061 -0.3002  0.1878
14020TIP3    H163475   2.133   5.534  13.145 -0.7433  1.3060  1.4400
14020TIP3    H263476   2.083   5.668  13.095  1.8975  1.2360 -1.8000
14021TIP3   OH263477   5.726   0.929  16.108 -0.3648  0.4628 -0.5101
14021TIP3    H163478   5.683   0.883  16.036 -0.9654 -1.0256  0.7450
14021TIP3    H263479   5.657   0.985  16.145 -0.1265  1.0354 -0.9253
14022TIP3   OH263480   2.091   4.849  12.157  0.1291 -0.3261 -0.4237
14022TIP3    H163481   2.015   4.869  12.212 -1.3329 -1.0519 -2.0659
14022TIP3    H263482   2.078   4.758  12.131 -0.1620  0.4485 -3.2789
14023TIP3   OH263483   1.524   3.198   0.471 -0.4655  0.1353  0.3946
14023TIP3    H163484   1.620   3.204   0.464 -0.4002 -1.2557 -0.2816
14023TIP3    H263485   1.509   3.147   0.550 -0.6093 -0.1869  0.1655
14024TIP3   OH263486   4.345   0.982   1.933  0.2628  0.5285 -0.3363
14024TIP3    H163487   4.298   0.997   1.850  0.6619 -1.4014 -0.9718
14024TIP3    H263488   4.302   0.905   1.971  2.0386 -0.5022 -0.3089
14025TIP3   OH263489   2.776   2.036   3.711  0.9317 -0.3264  0.4755
14025TIP3    H163490   2.746   2.007   3.797  0.2392  0.9709  0.6898
14025TIP3    H263491   2.853   1.982   3.693  0.7170 -1.0399  1.6240
14026TIP3   OH263492   4.952   6.221   1.092  0.4986  0.0401 -0.2005
14026TIP3    H163493   5.002   6.183   1.165 -1.1868 -1.0721  0.4558
14026TIP3    H263494   4.866   6.240   1.130 -0.1834  0.1333 -1.7123
14027TIP3   OH263495   3.801   2.138   2.790 -0.6062 -0.2467  0.7306
14027TIP3    H163496   3.803   2.114   2.883 -0.0269  1.1879  1.1226
14027TIP3    H263497   3.893   2.154   2.768 -0.9672  2.7311  0.8877
14028TIP3   OH263498   3.148   2.746   2.929 -0.1324  0.2594 -0.2315
14028TIP3    H163499   3.204   2.682   2.886 -0.2636 -0.0576  0.0653
14028TIP3    H263500   3.082   2.768   2.864 -0.1383  0.0270 -0.3043
14029TIP3   OH263501   3.873   2.406   0.872 -0.0063  0.0861  0.1208
14029TIP3    H163502   3.838   2.444   0.953  0.4349  0.0169  0.3452
14029TIP3    H263503   3.949   2.355   0.901 -1.2190 -1.8953  0.0001
14030TIP3   OH263504   0.271   6.428  11.334 -0.5294 -0.1617  0.1773
14030TIP3    H163505   0.221   6.403  11.257 -0.5042 -1.9600  0.7067
14030TIP3    H263506   0.334   6.358  11.346  0.9689  1.1900  0.5652
14031TIP3   OH263507   2.376   6.166  17.266 -0.3046  0.4221 -0.8224
14031TIP3    H163508   2.315   6.102  17.302 -0.6725  1.3821  0.2989
14031TIP3    H263509   2.458   6.117  17.254  0.2205  0.2900  2.4656
14032TIP3   OH263510   1.785   0.181  10.716 -0.2397  0.4451 -0.5100
14032TIP3    H163511   1.711   0.124  10.696 -0.1137 -0.7024  1.8979
14032TIP3    H263512   1.746   0.265  10.737 -0.8314  0.0090  0.1832
14033TIP3   OH263513   4.001   3.777  14.326  0.7331 -0.1604 -0.4783
14033TIP3    H163514   3.940   3.717  14.370 -0.4560  0.9962 -0.4982
14033TIP3    H263515   3.949   3.816  14.255  1.7575  0.2228 -1.0403
14034TIP3   OH263516   1.099   1.226  11.445  0.1360  0.2373 -0.1570
14034TIP3    H163517   1.190   1.210  11.421  0.9180  1.0086  2.0375
14034TIP3    H263518   1.053   1.144  11.424  0.9320  0.4194 -2.8836
14035TIP3   OH263519   1.378   3.384   0.335  0.0432  0.4463 -0.0721
14035TIP3    H163520   1.384   3.346   0.247 -0.6810  0.1509 -0.0068
14035TIP3    H263521   1.437   3.331   0.388 -0.2920 -0.0403 -0.1732
14036TIP3   OH263522   2.361   1.554  14.951 -0.3059 -0.0089 -0.0683
14036TIP3    H163523   2.286   1.613  14.961  0.1460  0.9892 -2.0548
14036TIP3    H263524   2.324   1.475  14.912 -0.1106  1.3221 -3.2093
14037TIP3   OH263525   0.349   0.020  13.092  0.6068  1.0537 -0.4635
14037TIP3    H163526   0.320   0.101  13.052  0.4215  1.6862  0.9076
14037TIP3    H263527   0.300   0.014  13.174  1.0089 -0.1743 -0.2847
14038TIP3   OH263528   2.645   6.522   4.793  0.2087  0.5950  0.2744
14038TIP3    H163529   2.667   6.541   4.701  0.1136  0.7100  0.2744
14038TIP3    H263530   2.704   6.451   4.818 -0.4677 -0.1405 -0.1846
14039TIP3   OH263531   0.954   2.061   4.103 -0.3660 -0.7935  0.9464
14039TIP3    H163532   0.875   2.019   4.069 -0.2271 -0.4919  0.2338
14039TIP3    H263533   0.924   2.143   4.141 -0.1791  0.3169 -1.1550
14040TIP3   OH263534   1.491   3.357  16.153 -0.3574  0.0403 -0.4225
14040TIP3    H163535   1.479   3.264  16.136 -0.5251  0.2613 -1.5758
14040TIP3    H263536   1.457   3.401  16.075  1.3045  0.9978 -0.6624
14041TIP3   OH263537   4.527   5.408  16.960 -0.4114  0.0794 -0.1012
14041TIP3    H163538   4.531   5.391  16.866  1.5250 -0.6400  0.0591
14041TIP3    H263539   4.618   5.419  16.986 -0.9574  0.8643  1.6073
14042TIP3   OH263540   0.204   4.059   6.486 -0.2425  0.0182  0.3112
14042TIP3    H163541   0.115   4.093   6.476 -0.3842 -0.2735  0.5552
14042TIP3    H263542   0.254   4.133   6.519 -0.4600  0.1074  0.4460
14043TIP3   OH263543   4.343   6.391  12.201 -0.3741  0.2994  0.6514
14043TIP3    H163544   4.429   6.431  12.188  0.3280 -1.1714  0.5715
14043TIP3    H263545   4.350   6.344  12.284 -0.6570 -0.8693  0.0475
14044TIP3   OH263546   3.355   5.695   4.897  0.3158 -0.1691 -0.1736
14044TIP3    H163547   3.375   5.741   4.815  0.7491  1.0717  0.6095
14044TIP3    H263548   3.365   5.602   4.875  0.1143  0.1275 -1.6089
14045TIP3   OH263549   6.517   0.830   0.752  0.6586  0.7918  0.1287
14045TIP3    H163550   6.450   0.762   0.745  1.2603  0.2353 -0.4149
14045TIP3    H263551   6.498   0.875   0.834  0.3918 -0.2017  0.6191
14046TIP3   OH263552   3.445   2.258   5.750 -0.4760 -0.7500 -0.2277
14046TIP3    H163553   3.518   2.303   5.707 -1.6900  0.9615 -0.6161
14046TIP3    H263554   3.458   2.276   5.843 -1.3715  1.2143 -0.4237
14047TIP3   OH263555   6.572   2.310   6.739 -0.0511  0.9843  0.3883
14047TIP3    H163556   6.654   2.353   6.763  0.9218 -0.7378  0.2601
14047TIP3    H263557   6.540   2.272   6.820  2.3746 -3.3782 -0.3979
14048TIP3   OH263558   1.624   5.004  14.630  0.2309  0.4300 -0.2401
14048TIP3    H163559   1.536   4.973  14.652  1.6079 -1.6953  3.0833
14048TIP3    H263560   1.680   4.928  14.646  2.9323  2.3451  0.0204
14049TIP3   OH263561   0.833   5.401  12.508 -0.5800 -0.9849 -0.2442
14049TIP3    H163562   0.858   5.313  12.535 -1.2861 -1.4289 -0.9855
14049TIP3    H263563   0.740   5.393  12.484 -0.7919  0.0750  0.1578
14050TIP3   OH263564   0.348   4.315  13.778  0.1211  0.5359 -0.2634
14050TIP3    H163565   0.442   4.296  13.773  0.3289  1.5471 -0.4634
14050TIP3    H263566   0.335   4.386  13.714 -0.4199  1.7070  1.0949
14051TIP3   OH263567   1.843   0.626  13.888 -0.4708 -0.4547  0.0471
14051TIP3    H163568   1.797   0.627  13.804 -1.0198 -0.3234  0.3424
14051TIP3    H263569   1.773   0.613  13.953 -0.0562 -0.5167  0.4846
14052TIP3   OH263570   0.645   0.154   6.097 -0.3331 -0.0659 -0.1996
14052TIP3    H163571   0.727   0.112   6.071  0.9429  0.4894  2.5798
14052TIP3    H263572   0.669   0.212   6.168 -2.7985  2.0392 -0.9249
14053TIP3   OH263573   5.675   2.229  17.058 -0.5191  0.4070  0.4483
14053TIP3    H163574   5.758   2.213  17.014 -1.4378  1.6743 -1.9089
14053TIP3    H263575   5.695   2.296  17.124  0.2245  1.2413 -0.5965
14054TIP3   OH263576   4.877   0.090  14.168 -0.1752 -0.1517  0.2430
14054TIP3    H163577   4.959   0.081  14.119 -0.8616  1.7982 -1.4242
14054TIP3    H263578   4.890   0.169  14.221 -1.5349  1.2851 -1.4289
14055TIP3   OH263579   4.577   2.241  15.574  0.4456  0.1586  0.5215
14055TIP3    H163580   4.492   2.267  15.539  0.6462  0.9065  0.5739
14055TIP3    H263581   4.618   2.192  15.502  0.0352 -0.0723  0.4432
14056TIP3   OH263582   6.631   2.922  17.033  0.3773  0.3280 -0.2737
14056TIP3    H163583   6.726   2.912  17.025  0.3917  1.5741 -2.2611
14056TIP3    H263584   6.620   2.995  17.095  0.6265 -0.9800  1.3726
14057TIP3   OH263585   5.091   3.425   1.991 -0.7357 -0.0436  0.3292
14057TIP3    H163586   5.112   3.336   1.963 -0.2199 -0.0144  0.6239
14057TIP3    H263587   5.126   3.481   1.922 -1.4656 -0.0801 -0.0907
14058TIP3   OH263588   2.927   1.020  16.111 -0.3811  0.0406  0.3285
14058TIP3    H163589   2.949   1.076  16.037 -0.3048  1.8383  1.6427
14058TIP3    H263590   2.832   1.032  16.123 -0.9003 -2.2022 -0.9711
14059TIP3   OH263591   4.580   6.705  15.630 -0.6356  0.4731 -0.2814
14059TIP3    H163592   4.638   6.758  15.575 -1.2798  0.9443 -0.5112
14059TIP3    H263593   4.498   6.754  15.634 -0.6882  0.3311  0.8927
14060TIP3   OH263594   0.766   5.995   3.808  0.2319  0.0126  0.1208
14060TIP3    H163595   0.824   5.936   3.856  0.3991  1.4512  1.7783
14060TIP3    H263596   0.815   6.076   3.801 -0.6689  0.5112 -0.5749
14061TIP3   OH263597   1.226   1.796  12.201 -0.4728 -0.2080  0.5326
14061TIP3    H163598   1.308   1.755  12.172 -0.5876 -0.1432  0.1192
14061TIP3    H263599   1.222   1.777  12.295 -1.3733 -2.6991  0.0766
14062TIP3   OH263600   4.835   6.443  13.806 -0.1940  0.3468  0.2539
14062TIP3    H163601   4.816   6.357  13.768  0.8897  0.2910 -0.2155
14062TIP3    H263602   4.777   6.449  13.882 -1.5689 -0.0327 -0.7339
14063TIP3   OH263603   2.488   3.131  12.198 -0.1256 -0.3232 -0.4761
14063TIP3    H163604   2.430   3.055  12.211 -1.1512  0.3731 -0.8493
14063TIP3    H263605   2.495   3.171  12.285  0.1979 -0.6853 -0.3318
14064TIP3   OH263606   1.887   6.463   3.239  0.1724  0.3351  0.0706
14064TIP3    H163607   1.791   6.457   3.239  0.1099  0.9129 -1.1289
14064TIP3    H263608   1.911   6.444   3.148  1.0543  1.9633 -0.0614
14065TIP3   OH263609   4.137   0.175  11.480  0.3245  0.9335  0.1804
14065TIP3    H163610   4.108   0.127  11.557  0.4213  1.0929  0.3188
14065TIP3    H263611   4.059   0.221  11.449  0.5830  1.9750  1.0064
14066TIP3   OH263612   1.512   1.835   6.097  0.1892  0.3843  0.0086
14066TIP3    H163613   1.565   1.771   6.144 -0.3262  0.4503  0.7040
14066TIP3    H263614   1.571   1.873   6.033  0.8930  0.2254  0.5495
14067TIP3   OH263615   4.739   2.263  17.037 -0.0707 -0.7507  0.3043
14067TIP3    H163616   4.799   2.266  16.963  0.6489 -0.7293  0.8782
14067TIP3    H263617   4.686   2.343  17.029  0.2202 -0.5879  0.0013
14068TIP3   OH263618   0.233   3.178   1.057 -0.3502 -0.2958  0.2654
14068TIP3    H163619   0.280   3.134   1.127 -1.2994 -0.0698  1.0637
14068TIP3    H263620   0.298   3.188   0.987  1.0273  0.7256  1.6186
14069TIP3   OH263621   4.845   4.102   3.458  0.6681  0.1138 -0.6138
14069TIP3    H163622   4.878   4.022   3.418  2.0803  0.5200 -0.3326
14069TIP3    H263623   4.785   4.072   3.526 -0.1379 -0.6330 -1.6150
14070TIP3   OH263624   3.036   5.648  16.150 -0.5631  0.4548  0.0872
14070TIP3    H163625   3.131   5.638  16.160 -0.7194 -0.2891  0.8290
14070TIP3    H263626   3.023   5.647  16.055 -0.0722 -1.8479  0.0054
14071TIP3   OH263627   2.782   3.518  14.373 -0.3860 -0.2892 -0.2663
14071TIP3    H163628   2.732   3.444  14.340 -0.4660  0.1469 -1.1584
14071TIP3    H263629   2.822   3.557  14.294 -0.4251  0.6658  0.1738
14072TIP3   OH263630   5.942   3.179  13.095 -0.1739  0.1525 -0.9171
14072TIP3    H163631   5.873   3.241  13.117  0.3036  0.2447  0.3875
14072TIP3    H263632   6.022   3.232  13.091  0.1481 -0.2747 -0.3351
14073TIP3   OH263633   0.971   4.351   6.096  0.5629 -0.1196  0.4775
14073TIP3    H163634   0.946   4.286   6.161  1.7334 -1.5121 -0.3977
14073TIP3    H263635   0.968   4.304   6.012  1.1848  1.0253 -0.2195
14074TIP3   OH263636   3.131   1.559  13.743 -0.5435  0.3615  0.1496
14074TIP3    H163637   3.160   1.469  13.728  1.3840  0.8087  0.8701
14074TIP3    H263638   3.037   1.558  13.723  0.1055 -0.9258 -3.5036
14075TIP3   OH263639   0.996   2.093   4.562  0.0690 -0.2282  0.1377
14075TIP3    H163640   1.019   2.001   4.551 -0.1647 -0.2208 -0.4497
14075TIP3    H263641   0.900   2.094   4.558  0.0924  0.1016 -0.3599
14076TIP3   OH263642   2.286   6.002   0.709  0.7491  0.2852 -0.0287
14076TIP3    H163643   2.280   6.080   0.765 -0.5572  2.4691 -2.9682
14076TIP3    H263644   2.216   5.945   0.740 -0.0720  1.5129  0.4513
14077TIP3   OH263645   6.462   3.202  11.063 -0.1024  0.1818  0.4535
14077TIP3    H163646   6.419   3.117  11.074 -0.3893  0.1545 -0.6883
14077TIP3    H263647   6.554   3.184  11.080 -0.1935 -0.3119  0.4608
14078TIP3   OH263648   2.809   6.651   0.744 -0.5872  0.2039  0.0052
14078TIP3    H163649   2.789   6.699   0.825  0.7043 -1.5154  1.4331
14078TIP3    H263650   2.823   6.719   0.678  1.0919  1.8204  1.9065
14079TIP3   OH263651   2.249   3.156   1.985 -0.0591  0.4047 -0.3196
14079TIP3    H163652   2.173   3.107   1.954 -0.8276  2.4968 -1.9739
14079TIP3    H263653   2.324   3.098   1.968 -1.1762 -1.3736  0.6265
14080TIP3   OH263654   3.833   6.529  16.643  0.2099 -0.2216 -0.0066
14080TIP3    H163655   3.833   6.579  16.562 -0.7362 -0.7140 -0.3254
14080TIP3    H263656   3.767   6.461  16.630  0.1779 -0.4295  1.0943
14081TIP3   OH263657   5.975   1.531   6.200  0.0801 -0.6165 -0.5601
14081TIP3    H163658   5.901   1.475   6.178  0.3952 -0.3327 -2.5608
14081TIP3    H263659   5.944   1.585   6.273 -0.9154 -1.9693  0.0591
14082TIP3   OH263660   4.960   5.518   6.011  0.3829  0.1665 -0.3243
14082TIP3    H163661   4.988   5.610   6.008 -1.6265  0.8255 -0.0957
14082TIP3    H263662   4.903   5.507   5.936 -0.8406 -0.3782  0.6516
14083TIP3   OH263663   0.488   2.855  15.623 -0.3460 -0.1174  0.3991
14083TIP3    H163664   0.434   2.799  15.568 -1.4719  2.4193 -1.2332
14083TIP3    H263665   0.578   2.838  15.593 -0.7581 -0.3009 -0.7748
14084TIP3   OH263666   3.008   1.753  12.509  0.5997 -0.0526 -0.3185
14084TIP3    H163667   3.075   1.687  12.494  2.2633  1.4868 -0.0328
14084TIP3    H263668   3.000   1.799  12.426  0.6017  0.3917 -0.0730
14085TIP3   OH263669   5.777   2.628  13.603 -0.0043 -0.6009  0.5057
14085TIP3    H163670   5.722   2.681  13.545  0.8800  0.5328  0.6743
14085TIP3    H263671   5.768   2.538  13.570 -1.1170 -0.2767 -0.1104
14086TIP3   OH263672   1.082   1.566   5.330  0.2301  0.0825  0.0979
14086TIP3    H163673   1.169   1.562   5.292  0.3835 -0.1454  0.4673
14086TIP3    H263674   1.087   1.640   5.392  0.5367 -0.6981  1.0315
14087TIP3   OH263675   3.027   5.068   3.221  0.2169  0.0416 -0.0459
14087TIP3    H163676   3.110   5.114   3.230  0.2656 -0.2237  1.0285
14087TIP3    H263677   2.988   5.103   3.141  1.2226  0.3814 -0.3977
14088TIP3   OH263678   4.645   0.010   0.469 -0.0781 -0.6600 -0.3292
14088TIP3    H163679   4.626   0.098   0.437  1.3169 -1.0612 -2.4607
14088TIP3    H263680   4.740   0.002   0.464 -0.1778 -2.2613 -0.1084
14089TIP3   OH263681   3.680   0.779   6.290 -0.4540  0.7487  0.5037
14089TIP3    H163682   3.723   0.728   6.222  0.7235  3.0383 -0.6067
14089TIP3    H263683   3.695   0.730   6.371  0.5350 -0.6550 -0.4970
14090TIP3   OH263684   4.722   1.632   0.544  0.2976 -0.2925  0.1438
14090TIP3    H163685   4.739   1.567   0.476 -1.6950 -0.3050 -0.4076
14090TIP3    H263686   4.695   1.581   0.620  0.0832 -0.1687  0.1511
14091TIP3   OH263687   2.439   0.120  16.094  0.7379  0.2930 -0.6810
14091TIP3    H163688   2.437   0.057  16.166  1.0859  2.3290  1.2112
14091TIP3    H263689   2.366   0.094  16.037  0.2107 -1.1627  0.5982
14092TIP3   OH263690   3.680   4.439   2.273 -0.0239 -0.0938 -0.0840
14092TIP3    H163691   3.647   4.527   2.294  1.6386  1.2932 -2.7501
14092TIP3    H263692   3.738   4.417   2.346 -0.6419  0.9100  0.7434
14093TIP3   OH263693   4.635   3.858  11.965 -0.6182  0.3240 -0.0613
14093TIP3    H163694   4.664   3.856  12.056 -0.5477 -0.2559 -0.0912
14093TIP3    H263695   4.663   3.943  11.932  1.0537 -0.1973 -0.0797
14094TIP3   OH263696   4.646   3.503  15.206  0.5591 -0.2546  0.3981
14094TIP3    H163697   4.648   3.419  15.162  0.4120  0.1643 -0.4286
14094TIP3    H263698   4.698   3.490  15.285  1.3341 -0.8564 -0.1961
14095TIP3   OH263699   4.778   2.656  11.274  0.1155 -0.4330  0.4214
14095TIP3    H163700   4.849   2.602  11.239  0.0145  0.5211 -1.3223
14095TIP3    H263701   4.702   2.633  11.221 -0.1511  0.7523  0.2770
14096TIP3   OH263702   6.317   5.153  16.348  0.1741 -0.1641  0.5283
14096TIP3    H163703   6.383   5.196  16.403 -0.9675 -0.1382  1.9323
14096TIP3    H263704   6.238   5.204  16.362 -0.3667 -0.6980 -0.4805
14097TIP3   OH263705   3.443   1.979  11.828  0.2978 -0.0485  0.3510
14097TIP3    H163706   3.455   2.067  11.863 -1.6801 -0.0663  1.2766
14097TIP3    H263707   3.366   1.987  11.772  0.9372 -0.9131 -0.6601
14098TIP3   OH263708   5.110   4.760  13.469  0.3619  0.7251  0.0679
14098TIP3    H163709   5.046   4.702  13.428 -0.5020  1.2397  0.6579
14098TIP3    H263710   5.127   4.828  13.404  1.5829 -0.3114 -0.7323
14099TIP3   OH263711   0.401   3.021   4.301 -0.0526 -0.1726  0.0450
14099TIP3    H163712   0.352   2.997   4.380 -2.6916  0.5155 -1.2719
14099TIP3    H263713   0.454   3.095   4.328  0.2070 -0.8505  1.5128
14100TIP3   OH263714   6.741   1.758  10.720 -0.1314 -0.1802  0.0061
14100TIP3    H163715   6.771   1.830  10.776 -0.6445 -1.1771  1.6261
14100TIP3    H263716   6.804   1.758  10.647  0.4017  1.3313  0.4139
14101TIP3   OH263717   0.593   0.407   0.850 -0.0031 -0.7007  0.0925
14101TIP3    H163718   0.552   0.328   0.815  2.8526 -1.5178 -1.8088
14101TIP3    H263719   0.626   0.453   0.773  0.2172  1.3100  1.3073
14102TIP3   OH263720   2.394   5.041   0.340  0.0755  0.1396 -0.8004
14102TIP3    H163721   2.335   5.041   0.415  0.3419  1.6678 -0.5750
14102TIP3    H263722   2.418   5.132   0.327  0.7407 -0.2008 -2.2038
14103TIP3   OH263723   2.056   2.192   2.601  0.4704 -0.6717  0.3244
14103TIP3    H163724   2.133   2.193   2.658 -0.3095 -0.2876  1.4199
14103TIP3    H263725   1.990   2.242   2.650 -0.2393 -0.3408 -0.9241
14104TIP3   OH263726   4.372   6.612  16.474  0.1422 -0.4169  0.2909
14104TIP3    H163727   4.353   6.595  16.382  0.1756 -0.6903  0.3359
14104TIP3    H263728   4.288   6.599  16.519  0.2292 -0.7206  0.3626
14105TIP3   OH263729   4.461   5.969   2.411  0.0932 -0.2838  0.0184
14105TIP3    H163730   4.436   5.960   2.503 -1.4387  0.3609 -0.3128
14105TIP3    H263731   4.533   6.032   2.411  0.0880 -0.2757  0.7676
14106TIP3   OH263732   1.257   1.534   4.123 -0.2811  0.0403 -0.6961
14106TIP3    H163733   1.286   1.461   4.179  0.7266 -0.0540 -1.3170
14106TIP3    H263734   1.162   1.538   4.136 -0.0872 -0.0632  0.9115
14107TIP3   OH263735   1.252   0.828  17.148  0.6828  0.5443 -0.1050
14107TIP3    H163736   1.166   0.853  17.183  1.7473  1.9105  1.7194
14107TIP3    H263737   1.255   0.867  17.061 -0.0851  1.5260  0.2892
14108TIP3   OH263738   6.172   6.729  13.983 -0.1809 -0.0104 -0.3850
14108TIP3    H163739   6.250   6.689  13.945  1.0280  0.1802  1.7315
14108TIP3    H263740   6.137   6.784  13.913  1.5541 -0.1510 -1.4251
14109TIP3   OH263741   4.612   0.298   5.469 -0.2389 -0.2808 -0.0626
14109TIP3    H163742   4.548   0.228   5.457  0.2044 -0.5327 -1.1152
14109TIP3    H263743   4.561   0.370   5.506 -1.2299 -0.3531 -1.2071
14110TIP3   OH263744   2.179   4.350  15.562 -0.4837  0.3128 -0.1557
14110TIP3    H163745   2.094   4.309  15.544 -0.0449 -0.2201 -1.0947
14110TIP3    H263746   2.207   4.313  15.645 -0.6659 -0.3511 -0.3880
14111TIP3   OH263747   2.623   2.006  17.044  0.4421  0.0094  0.2137
14111TIP3    H163748   2.620   1.931  16.984  0.5887  0.3620 -0.2437
14111TIP3    H263749   2.689   1.983  17.109  1.2387  0.1678 -0.5170
14112TIP3   OH263750   3.987   3.626   1.113 -0.0105  0.6828 -0.6569
14112TIP3    H163751   4.046   3.678   1.059  0.6724  0.5540 -0.0496
14112TIP3    H263752   4.007   3.652   1.203 -0.5738  0.3233 -0.4224
14113TIP3   OH263753   0.979   3.495   5.974  0.0060  0.4291 -0.6290
14113TIP3    H163754   0.978   3.528   6.064 -1.7594  0.4306 -0.6261
14113TIP3    H263755   1.050   3.543   5.932  0.7509  0.5574  0.6984
14114TIP3   OH263756   6.464   6.708   4.171  0.3970  0.2203 -0.5238
14114TIP3    H163757   6.548   6.756   4.172  0.0445  0.8644 -0.9430
14114TIP3    H263758   6.407   6.759   4.228  0.0445  0.2477 -0.8968
14115TIP3   OH263759   4.956   3.697  11.905 -0.0112  0.4958 -0.2540
14115TIP3    H163760   5.038   3.650  11.918 -0.3514 -0.1204 -0.3235
14115TIP3    H263761   4.953   3.714  11.811 -1.0955 -1.6131 -0.6589
14116TIP3   OH263762   0.384   5.579  13.335  0.3801 -0.0348  0.8304
14116TIP3    H163763   0.318   5.526  13.291  1.9500 -1.3749  0.0029
14116TIP3    H263764   0.439   5.612  13.265  0.9628  0.5596  1.5512
14117TIP3   OH263765   6.459   2.465  14.142 -0.0500 -0.1286  0.3694
14117TIP3    H163766   6.381   2.429  14.184 -0.0370 -0.1336  0.3893
14117TIP3    H263767   6.530   2.445  14.202  0.1289 -1.0190 -0.1069
14118TIP3   OH263768   5.467   5.263   2.455  0.4651  0.0494 -0.0879
14118TIP3    H163769   5.447   5.183   2.504  0.3092  0.1633  0.0341
14118TIP3    H263770   5.533   5.235   2.391  0.7339 -0.0830  0.2415
14119TIP3   OH263771   6.412   6.280   5.778 -0.0584 -0.4887 -0.3111
14119TIP3    H163772   6.417   6.234   5.694 -1.1636 -2.7961  0.7914
14119TIP3    H263773   6.358   6.357   5.760 -2.6935 -2.3988 -1.2365
14120TIP3   OH263774   6.254   0.757  14.178  0.4574 -0.5512  0.5875
14120TIP3    H163775   6.237   0.696  14.107  0.2953  0.5344 -0.3345
14120TIP3    H263776   6.314   0.822  14.141  1.3283 -0.6138  1.8057
14121TIP3   OH263777   2.615   0.700   2.290  0.6002 -0.1676  0.1324
14121TIP3    H163778   2.674   0.736   2.356  0.6314  0.4504 -0.2146
14121TIP3    H263779   2.641   0.609   2.281  1.4202  0.0598  0.0850
14122TIP3   OH263780   0.369   6.456  11.812 -0.4612 -0.1835 -0.2136
14122TIP3    H163781   0.447   6.436  11.864 -1.6146 -1.0389  1.2371
14122TIP3    H263782   0.307   6.494  11.874 -1.8890 -1.2583 -0.9191
14123TIP3   OH263783   1.305   4.138   3.398 -0.0851  0.5513  0.2099
14123TIP3    H163784   1.316   4.050   3.362 -2.1778  0.7569 -1.1066
14123TIP3    H263785   1.314   4.196   3.322 -1.1050  1.2754  0.6243
14124TIP3   OH263786   4.473   3.899   2.129  0.6968  0.0903  0.6965
14124TIP3    H163787   4.404   3.956   2.162 -1.4571 -1.5718 -0.5532
14124TIP3    H263788   4.554   3.936   2.162 -0.5753  3.4728  0.4456
14125TIP3   OH263789   0.634   0.640   5.690  0.6942 -0.5667  0.1634
14125TIP3    H163790   0.681   0.701   5.746 -1.1654 -0.2520  1.4815
14125TIP3    H263791   0.690   0.562   5.687  0.8161 -0.6439  2.5950
14126TIP3   OH263792   4.694   0.377   1.027  0.5748 -0.0491 -0.0484
14126TIP3    H163793   4.638   0.334   0.962 -0.0863  0.0194  0.4562
14126TIP3    H263794   4.639   0.382   1.105  1.2938  0.0318  0.4621
14127TIP3   OH263795   1.999   6.621   1.457 -0.4675 -0.3409 -0.7392
14127TIP3    H163796   1.907   6.637   1.434 -1.5627 -0.3848  2.8772
14127TIP3    H263797   2.031   6.707   1.486 -0.4898 -0.9168  1.1337
14128TIP3   OH263798   1.828   2.426  14.735 -0.1529 -0.0587  0.0279
14128TIP3    H163799   1.860   2.431  14.644 -1.8103 -1.8083 -0.7140
14128TIP3    H263800   1.889   2.366  14.778 -0.6508 -1.0213 -0.5723
14129TIP3   OH263801   5.974   3.140  12.636  0.0220  0.3288 -0.3616
14129TIP3    H163802   5.956   3.085  12.560 -1.7908  0.8145 -0.3487
14129TIP3    H263803   6.068   3.131  12.652  0.5612  0.6255 -2.9764
14130TIP3   OH263804   3.588   0.846   5.410  0.3302 -0.2726  0.2883
14130TIP3    H163805   3.566   0.933   5.442 -0.0460  0.7962 -2.5585
14130TIP3    H263806   3.512   0.819   5.358  1.8104 -0.6574 -1.8479
14131TIP3   OH263807   2.853   2.684   2.210  0.6215  0.2283  0.1386
14131TIP3    H163808   2.884   2.594   2.212 -0.1081 -0.0304 -0.0531
14131TIP3    H263809   2.806   2.695   2.292  0.0829  0.2022 -0.1618
14132TIP3   OH263810   3.625   2.585   2.992  0.0356  0.5481 -0.4056
14132TIP3    H163811   3.622   2.498   2.953  1.9195  0.7188 -1.0047
14132TIP3    H263812   3.562   2.636   2.941 -0.7022 -0.2998 -0.3801
14133TIP3   OH263813   4.911   5.345  11.410  0.5268 -0.4336 -0.1833
14133TIP3    H163814   5.000   5.377  11.394  0.5290  0.5626  1.5393
14133TIP3    H263815   4.922   5.279  11.479 -0.1047  0.1880  0.5395
14134TIP3   OH263816   6.457   3.336  15.813  0.1886 -0.7366 -0.1259
14134TIP3    H163817   6.428   3.386  15.889  0.3342 -2.2353  0.9548
14134TIP3    H263818   6.377   3.307  15.770  0.1015 -1.0133  0.2239
14135TIP3   OH263819   3.051   0.202  15.675  0.1582 -0.4514 -0.1516
14135TIP3    H163820   3.030   0.132  15.737 -0.1615  0.7771  1.1689
14135TIP3    H263821   3.111   0.161  15.612  1.5018 -1.4419  1.6821
14136TIP3   OH263822   6.707   2.190  11.626 -0.1762  0.5166  0.2087
14136TIP3    H163823   6.691   2.232  11.541 -1.0781  0.3422  0.2868
14136TIP3    H263824   6.694   2.096  11.609  1.5151  0.2625  0.1094
14137TIP3   OH263825   4.636   2.573   4.797  0.2290  0.4629 -0.0263
14137TIP3    H163826   4.708   2.624   4.760  0.6533 -0.5758 -0.6741
14137TIP3    H263827   4.622   2.611   4.884  1.3639  0.8738 -0.0075
14138TIP3   OH263828   5.440   5.142  11.366 -0.0093 -0.6857 -0.8952
14138TIP3    H163829   5.361   5.115  11.412 -0.5912  1.2056 -0.6973
14138TIP3    H263830   5.497   5.178  11.434 -0.5003  1.2896 -1.4802
14139TIP3   OH263831   5.224   6.644  17.169 -0.4129 -0.0182  0.1346
14139TIP3    H163832   5.230   6.576  17.102 -0.3644  0.8024 -0.7148
14139TIP3    H263833   5.274   6.717  17.133 -0.2652  0.3873  1.1389
14140TIP3   OH263834   6.584   0.866  13.571 -0.1177  0.1651 -0.4460
14140TIP3    H163835   6.637   0.945  13.557 -1.0689  0.9471  0.1684
14140TIP3    H263836   6.502   0.884  13.525 -0.6992 -0.0578  0.4701
14141TIP3   OH263837   5.113   5.944  11.474  0.0034 -0.0651  0.4738
14141TIP3    H163838   5.124   5.988  11.558 -0.0598 -0.8880  0.9218
14141TIP3    H263839   5.097   6.015  11.412 -1.8793  0.4524  1.4718
14142TIP3   OH263840   0.583   4.613  13.696 -0.0202  0.1432 -0.1690
14142TIP3    H163841   0.666   4.593  13.740  0.5536  2.1702 -0.2343
14142TIP3    H263842   0.605   4.617  13.603 -0.2041  0.6313 -0.1934
14143TIP3   OH263843   2.503   4.521   6.412 -0.1790 -0.4508  0.5878
14143TIP3    H163844   2.598   4.506   6.414 -0.0943  0.0325  0.2340
14143TIP3    H263845   2.484   4.562   6.497  0.3123  1.6462 -0.2494
14144TIP3   OH263846   3.228   3.293  16.099 -0.0288 -0.1068  0.5635
14144TIP3    H163847   3.141   3.268  16.128 -0.1320 -0.8243 -0.3183
14144TIP3    H263848   3.282   3.292  16.179 -1.0084  1.2823  1.2807
14145TIP3   OH263849   3.202   6.305   4.026  0.3573 -0.0049 -0.6179
14145TIP3    H163850   3.113   6.337   4.013  0.0905 -0.0234  0.9462
14145TIP3    H263851   3.257   6.375   3.992 -0.2511  0.6798 -0.2323
14146TIP3   OH263852   4.351   0.104  16.151  0.1717 -0.1934 -0.6260
14146TIP3    H163853   4.378   0.015  16.128  1.6308 -0.2684  1.1174
14146TIP3    H263854   4.360   0.107  16.246  0.1525  1.8227 -0.6524
14147TIP3   OH263855   5.778   1.428   0.284 -0.9366 -0.6254 -0.3570
14147TIP3    H163856   5.745   1.470   0.204 -1.1270 -0.5282 -0.2291
14147TIP3    H263857   5.701   1.421   0.341 -0.4992  0.7381  0.4377
14148TIP3   OH263858   3.714   1.167  11.326  0.1384 -0.1035  0.5976
14148TIP3    H163859   3.693   1.133  11.239 -1.1305 -0.3251  0.9705
14148TIP3    H263860   3.668   1.251  11.331  0.5499  0.1063  0.9018
14149TIP3   OH263861   3.213   2.339  15.201  0.0893 -0.4712  0.3478
14149TIP3    H163862   3.229   2.433  15.213 -2.0419  0.1091 -0.8905
14149TIP3    H263863   3.256   2.319  15.118 -2.7002  0.4112 -1.4494
14150TIP3   OH263864   2.996   4.718   3.628 -0.0468  0.4076 -0.0885
14150TIP3    H163865   2.976   4.703   3.535 -1.2513 -0.6430  0.3095
14150TIP3    H263866   3.026   4.633   3.660  0.9163  0.9043  0.3768
14151TIP3   OH263867   2.760   2.179   1.319 -0.1633 -0.2596 -0.1340
14151TIP3    H163868   2.689   2.230   1.280  1.1288  0.2591 -1.8885
14151TIP3    H263869   2.822   2.165   1.248  0.7486 -2.0971  0.9475
14152TIP3   OH263870   4.874   2.272  15.942 -0.3559  0.0507 -0.6820
14152TIP3    H163871   4.818   2.324  16.000  3.0081  0.3949  2.6468
14152TIP3    H263872   4.871   2.184  15.979 -0.1866 -0.3785 -1.6611
14153TIP3   OH263873   5.654   5.536  14.585  0.3818 -0.1635 -0.1245
14153TIP3    H163874   5.568   5.499  14.564 -1.7229  3.5939  1.0510
14153TIP3    H263875   5.680   5.583  14.506  0.8959 -0.4734 -0.1436
14154TIP3   OH263876   0.524   6.553  15.058  0.3558  0.8101  0.2486
14154TIP3    H163877   0.487   6.494  14.993 -1.5109  1.8388  0.2889
14154TIP3    H263878   0.606   6.584  15.019 -0.3302  0.7917 -1.2640
14155TIP3   OH263879   2.830   4.340   2.681  0.9358  0.2774 -0.0132
14155TIP3    H163880   2.757   4.278   2.693  1.0719 -0.0151 -0.6710
14155TIP3    H263881   2.809   4.412   2.741 -0.5631  0.7896 -1.0763
14156TIP3   OH263882   2.244   1.854  16.628  0.3834  0.3408  0.2487
14156TIP3    H163883   2.327   1.824  16.666 -0.1997 -0.3225  1.0482
14156TIP3    H263884   2.262   1.865  16.535  1.1208 -0.7024  0.2586
14157TIP3   OH263885   6.477   5.556  11.391  0.9859  0.4237 -0.4540
14157TIP3    H163886   6.417   5.577  11.320 -0.3007  1.0852  0.7930
14157TIP3    H263887   6.505   5.466  11.373 -1.7113 -0.5431 -0.1622
14158TIP3   OH263888   4.399   2.055   5.797  0.4859  0.2236 -0.3292
14158TIP3    H163889   4.469   2.069   5.861 -0.1705  2.1765  0.0342
14158TIP3    H263890   4.425   2.109   5.722 -0.3061  0.4412 -0.4492
14159TIP3   OH263891   5.625   6.139  13.680  0.5964  0.2877 -0.3209
14159TIP3    H163892   5.549   6.129  13.737  1.5369 -0.5172  0.8457
14159TIP3    H263893   5.670   6.216  13.713  1.2269 -0.2700  0.1328
14160TIP3   OH263894   1.939   2.861  15.643 -0.2949 -0.2551  0.1067
14160TIP3    H163895   1.854   2.877  15.602 -0.1460 -0.1741 -0.1713
14160TIP3    H263896   1.955   2.938  15.698 -0.3065 -0.1751 -0.0019
14161TIP3   OH263897   5.574   4.396   0.905  0.0815  0.3915  0.0679
14161TIP3    H163898   5.601   4.473   0.855 -0.5293  0.3900 -0.2629
14161TIP3    H263899   5.501   4.359   0.857 -0.5296  0.3895  0.9653
14162TIP3   OH263900   2.837   5.006   6.646  0.2832 -0.0504  0.0088
14162TIP3    H163901   2.824   5.054   6.565 -1.0529  1.0713  0.8303
14162TIP3    H263902   2.898   5.059   6.697  1.2464 -0.8314 -0.3099
14163TIP3   OH263903   0.139   5.053  16.974 -0.6572 -0.0037 -0.3348
14163TIP3    H163904   0.184   4.968  16.969  0.3632  0.3359  1.9042
14163TIP3    H263905   0.054   5.033  17.014 -0.5853 -0.0351 -0.1953
14164TIP3   OH263906   0.585   1.321  16.729 -0.0758  0.4036 -0.3004
14164TIP3    H163907   0.600   1.371  16.649  1.1015 -0.5874 -0.7380
14164TIP3    H263908   0.526   1.250  16.702 -1.2314  1.1600  0.1715
14165TIP3   OH263909   0.985   5.267  10.636 -0.0217  0.6945 -1.4159
14165TIP3    H163910   0.942   5.280  10.720  0.0442  1.4094 -1.4897
14165TIP3    H263911   1.065   5.319  10.641  0.3713  0.1365 -1.6368
14166TIP3   OH263912   4.462   5.679   2.305 -0.1313  0.0152 -0.1646
14166TIP3    H163913   4.421   5.683   2.391 -0.4896 -0.7251 -0.2923
14166TIP3    H263914   4.429   5.756   2.259 -0.6229 -0.0521  0.0671
14167TIP3   OH263915   2.302   4.491   1.616 -0.1872 -0.0498 -0.6036
14167TIP3    H163916   2.284   4.549   1.543  0.2117  0.0535 -0.6260
14167TIP3    H263917   2.383   4.526   1.655 -1.2171  0.8360  0.8552
14168TIP3   OH263918   5.601   4.464  13.224  0.4545 -0.3498  0.4128
14168TIP3    H163919   5.509   4.438  13.223 -0.0418  1.2397 -1.4930
14168TIP3    H263920   5.640   4.410  13.292 -1.8823 -1.0295  1.3201
14169TIP3   OH263921   5.658   0.726  14.635 -0.2654  0.3359  0.2034
14169TIP3    H163922   5.686   0.754  14.548 -0.6670  0.9659  0.2747
14169TIP3    H263923   5.729   0.753  14.694 -1.1217  2.2288  0.4329
14170TIP3   OH263924   0.425   6.459   1.780  0.1855 -0.3514  0.6690
14170TIP3    H163925   0.357   6.501   1.832  1.3924  0.5641  1.5548
14170TIP3    H263926   0.422   6.367   1.807 -2.4957 -0.9679 -1.3101
14171TIP3   OH263927   6.580   6.420  12.518 -0.0187 -0.1899 -0.2264
14171TIP3    H163928   6.602   6.441  12.427  0.2779  0.9011  0.0822
14171TIP3    H263929   6.622   6.335  12.533 -0.3839 -0.5647 -1.2062
14172TIP3   OH263930   5.894   6.073  11.370 -0.6063  0.0776  0.8127
14172TIP3    H163931   5.987   6.049  11.378 -0.4056  0.4941 -0.0807
14172TIP3    H263932   5.855   6.000  11.321 -0.6341  0.1600  0.7117
14173TIP3   OH263933   1.048   0.415  13.565  0.3305 -0.5655  0.2918
14173TIP3    H163934   1.108   0.390  13.636  0.6661  1.2792  0.7334
14173TIP3    H263935   1.096   0.482  13.516 -0.3305 -1.0296 -1.0340
14174TIP3   OH263936   2.394   4.229   2.672 -0.5251 -0.7186 -0.1235
14174TIP3    H163937   2.342   4.164   2.719  0.2455 -0.4431  1.1658
14174TIP3    H263938   2.485   4.209   2.697 -0.1843  0.1015 -0.6723
14175TIP3   OH263939   5.649   6.088   1.800 -0.3093  0.3693  0.2821
14175TIP3    H163940   5.618   6.008   1.757  2.3406 -0.3513 -0.4578
14175TIP3    H263941   5.627   6.076   1.892 -2.9790  0.3801 -0.2759
14176TIP3   OH263942   3.925   4.891   2.198  0.0584  0.2655 -0.2344
14176TIP3    H163943   4.000   4.949   2.182  0.2554 -0.0988 -0.6347
14176TIP3    H263944   3.848   4.949   2.191  0.2312  0.4085 -0.9997
14177TIP3   OH263945   2.676   2.140   5.330  1.0548 -0.1611  0.5222
14177TIP3    H163946   2.615   2.203   5.368 -0.7074 -0.4302 -1.6924
14177TIP3    H263947   2.738   2.194   5.280 -0.4432 -0.0798 -1.3592
14178TIP3   OH263948   5.132   4.350  15.139 -0.3415 -0.2721  0.4877
14178TIP3    H163949   5.156   4.391  15.222  0.9874 -0.4747  0.2180
14178TIP3    H263950   5.138   4.256  15.156  0.4381 -0.3112  0.0233
14179TIP3   OH263951   4.192   1.051  16.935  0.2349  0.4340 -0.6091
14179TIP3    H163952   4.214   1.059  17.028  1.2976 -0.2758 -0.7677
14179TIP3    H263953   4.097   1.041  16.933  0.0071  2.1241  0.2642
14180TIP3   OH263954   3.587   6.634   0.197 -0.6960  0.2977  0.2213
14180TIP3    H163955   3.641   6.686   0.138  0.2084  0.1428  0.8948
14180TIP3    H263956   3.600   6.544   0.168 -1.4802  0.3490 -0.3165
14181TIP3   OH263957   5.149   6.065  14.198 -0.3341  0.3850  0.3688
14181TIP3    H163958   5.228   6.120  14.196 -0.4956  0.6058 -0.7909
14181TIP3    H263959   5.103   6.088  14.117  0.3575 -2.5764 -0.9944
14182TIP3   OH263960   1.562   0.973  17.069 -0.0459  0.0910  0.5866
14182TIP3    H163961   1.497   0.906  17.050  0.6966 -0.3696 -0.4403
14182TIP3    H263962   1.540   1.004  17.157 -0.6164 -1.2510  0.9377
14183TIP3   OH263963   0.533   1.569  12.314  0.1135  0.2510  0.1269
14183TIP3    H163964   0.456   1.516  12.291 -0.3069  0.9622 -0.1365
14183TIP3    H263965   0.510   1.611  12.396  0.3957  0.1333  0.2688
14184TIP3   OH263966   1.578   4.493   0.068  0.3300 -0.0763  0.0191
14184TIP3    H163967   1.575   4.436  -0.009  0.0488 -0.7448  0.5186
14184TIP3    H263968   1.524   4.449   0.133 -0.2278  0.9733  0.2842
14185TIP3   OH263969   0.010   4.315  16.492 -0.1365 -0.2484  0.1750
14185TIP3    H163970   0.008   4.348  16.582  1.1889  0.4707 -0.0343
14185TIP3    H263971   0.057   4.382  16.443  1.6479 -1.9189 -0.5022
14186TIP3   OH263972   0.910   2.859   6.127 -0.2822 -0.0740  0.6363
14186TIP3    H163973   0.890   2.881   6.218 -2.8615 -0.6250  0.2814
14186TIP3    H263974   0.851   2.787   6.106  1.7179 -1.3688 -0.9020
14187TIP3   OH263975   5.174   2.280  16.561 -0.1087  0.4243  0.1369
14187TIP3    H163976   5.163   2.211  16.626 -2.2776 -0.1729 -0.7879
14187TIP3    H263977   5.190   2.359  16.614 -0.2576 -0.3123  1.3294
14188TIP3   OH263978   6.605   2.127  13.938  0.3378 -0.1079  0.3846
14188TIP3    H163979   6.608   2.161  14.027  1.5970 -0.3154  0.4417
14188TIP3    H263980   6.647   2.195  13.885 -1.2385  0.4338 -0.2109
14189TIP3   OH263981   2.397   2.464  11.390  0.6368  0.1024  0.2789
14189TIP3    H163982   2.311   2.456  11.350  1.9316 -1.4140 -2.4252
14189TIP3    H263983   2.432   2.547  11.356  0.1282  0.9612  1.7536
14190TIP3   OH263984   1.268   3.346  12.804  0.2785 -0.6348  0.1943
14190TIP3    H163985   1.333   3.334  12.873  0.7541  0.6309 -0.0045
14190TIP3    H263986   1.196   3.394  12.846  1.1340  1.3125 -0.4427
14191TIP3   OH263987   0.275   4.724  16.227  0.3650  0.1289 -0.1645
14191TIP3    H163988   0.355   4.776  16.226  0.4914 -0.0109  0.8948
14191TIP3    H263989   0.303   4.637  16.197  0.5212  0.2106 -0.2537
14192TIP3   OH263990   6.633   1.142   0.887  0.2175 -0.2482 -0.1783
14192TIP3    H163991   6.635   1.152   0.792 -0.2595  0.5186 -0.1127
14192TIP3    H263992   6.704   1.196   0.919  0.5543 -0.7225 -0.1082
14193TIP3   OH263993   2.757   1.433   0.015 -0.0844  0.1383 -0.3830
14193TIP3    H163994   2.702   1.401   0.087 -0.5280  1.2564 -0.2136
14193TIP3    H263995   2.811   1.357  -0.009 -1.5156 -0.9254 -0.3928
14194TIP3   OH263996   4.094   5.913  12.203 -0.4876 -0.4967 -0.2646
14194TIP3    H163997   4.057   6.000  12.190 -0.8101 -0.6098 -0.1013
14194TIP3    H263998   4.183   5.920  12.168 -0.3812  0.0033  0.0966
14195TIP3   OH263999   3.538   5.039   5.158  0.5030  0.1464 -0.2778
14195TIP3    H164000   3.483   4.975   5.203  1.0517  0.2624  0.5644
14195TIP3    H264001   3.542   5.114   5.218  0.9525  0.4451 -0.6732
14196TIP3   OH264002   2.170   1.335  14.899 -0.1941  0.3273 -0.4195
14196TIP3    H164003   2.168   1.303  14.808  0.4232 -1.1680  0.0600
14196TIP3    H264004   2.178   1.255  14.952  0.3688  1.2376  0.9123
14197TIP3   OH264005   0.939   1.840   2.345 -0.2952  0.1723  0.1258
14197TIP3    H164006   0.985   1.798   2.418 -1.4602  0.4961  1.0978
14197TIP3    H264007   0.956   1.784   2.270 -0.0652 -0.8627  0.9230
14198TIP3   OH264008   1.712   4.003  16.969 -0.1383 -0.3540 -0.1761
14198TIP3    H164009   1.757   3.926  17.004 -0.5679  0.2710  1.8894
14198TIP3    H264010   1.773   4.038  16.903  1.9907 -0.1550  1.7486
14199TIP3   OH264011   0.596   4.140   0.107  0.0372 -0.1071 -0.4991
14199TIP3    H164012   0.625   4.090   0.183 -0.5337  0.9272  0.4243
14199TIP3    H264013   0.676   4.154   0.056  0.6051 -0.0143  0.3943
14200TIP3   OH264014   3.328   1.452   2.711 -0.4178 -0.2449 -0.0812
14200TIP3    H164015   3.367   1.382   2.659 -1.1425 -0.4626 -0.3500
14200TIP3    H264016   3.397   1.480   2.770  0.7895  0.7308 -1.8739
14201TIP3   OH264017   1.937   3.241  12.331 -0.0914 -0.4729  0.0321
14201TIP3    H164018   2.023   3.229  12.292 -0.3054  1.0929 -1.0399
14201TIP3    H264019   1.902   3.152  12.340  1.1277 -1.0496 -0.6576
14202TIP3   OH264020   4.635   3.622  16.202  0.8270 -1.2788 -0.3464
14202TIP3    H164021   4.540   3.630  16.189  0.8817 -0.3500 -0.2980
14202TIP3    H264022   4.645   3.562  16.276  0.1677  0.3354  1.1386
14203TIP3   OH264023   1.320   5.415  17.127 -0.1937 -0.0320 -0.2819
14203TIP3    H164024   1.301   5.484  17.191 -0.2839  1.5752 -1.9531
14203TIP3    H264025   1.409   5.435  17.096  0.3461 -1.5234  0.1979
14204TIP3   OH264026   6.347   4.944  14.002 -0.3552  0.1001  0.2107
14204TIP3    H164027   6.316   4.861  14.037  1.0832 -0.6208 -0.1129
14204TIP3    H264028   6.440   4.928  13.983 -0.1317  1.6849 -0.1633
14205TIP3   OH264029   3.037   0.953  17.002  0.5101 -0.2164  0.1538
14205TIP3    H164030   3.019   0.877  17.057 -1.4215  0.4290  0.4771
14205TIP3    H264031   2.986   0.937  16.922  2.9860 -0.9696 -1.4032
14206TIP3   OH264032   2.215   2.420   3.586 -0.2775 -0.2436 -0.6207
14206TIP3    H164033   2.200   2.460   3.671  1.3139 -1.4315  0.2765
14206TIP3    H264034   2.165   2.339   3.587  0.1407 -0.5071 -0.6003
14207TIP3   OH264035   2.450   5.118  16.453 -0.5470 -0.0054 -0.0619
14207TIP3    H164036   2.405   5.060  16.514 -0.8014 -2.2867 -2.2180
14207TIP3    H264037   2.512   5.060  16.407  0.8199  1.9411 -0.7852
14208TIP3   OH264038   5.116   1.833  13.606 -0.3289  0.4540 -0.4511
14208TIP3    H164039   5.204   1.816  13.573  0.7881 -0.1574  2.5280
14208TIP3    H264040   5.065   1.852  13.528  2.4009  0.7561 -2.3131
14209TIP3   OH264041   5.136   0.890   4.180 -0.2393 -0.3578  0.5311
14209TIP3    H164042   5.198   0.839   4.232  0.9038 -0.5290 -0.9134
14209TIP3    H264043   5.157   0.981   4.201  2.4757 -0.2750 -1.9062
14210TIP3   OH264044   2.764   4.830   0.978 -0.5680  0.8407  0.3461
14210TIP3    H164045   2.750   4.737   0.993 -1.2714  0.7839 -0.5438
14210TIP3    H264046   2.802   4.835   0.890  1.9522  1.2446  1.3471
14211TIP3   OH264047   1.747   4.819  11.899  1.0224  0.8025 -0.3177
14211TIP3    H164048   1.838   4.811  11.926  0.5212 -0.1066  1.2762
14211TIP3    H264049   1.699   4.834  11.981 -0.4596 -0.7938 -0.8182
14212TIP3   OH264050   3.367   4.258   4.604  0.3524 -0.0176  0.5276
14212TIP3    H164051   3.315   4.336   4.621  0.5264 -0.0237  1.1178
14212TIP3    H264052   3.456   4.290   4.593  0.7237 -0.2478  2.3981
14213TIP3   OH264053   5.932   6.496  16.344 -0.1686 -0.3485 -0.2725
14213TIP3    H164054   5.942   6.570  16.284 -1.8489  0.5020  0.4250
14213TIP3    H264055   6.021   6.471  16.366  0.4500  0.9908 -1.1080
14214TIP3   OH264056   5.745   3.827  12.926  0.2984 -0.4869 -0.0379
14214TIP3    H164057   5.684   3.848  12.996 -0.8947 -1.1168 -0.8633
14214TIP3    H264058   5.820   3.788  12.970  0.0122  0.0679  0.9691
14215TIP3   OH264059   6.339   5.487   5.873 -0.3634 -0.2676 -0.0790
14215TIP3    H164060   6.354   5.554   5.940 -1.6951  1.1887 -1.1567
14215TIP3    H264061   6.378   5.408   5.909  1.5146  1.1248  1.1510
14216TIP3   OH264062   2.446   3.877   4.636  0.2326 -0.2626  0.7669
14216TIP3    H164063   2.406   3.944   4.692  0.3635  0.0078  0.5386
14216TIP3    H264064   2.379   3.856   4.572  0.6002  0.5115  0.1116
14217TIP3   OH264065   4.162   0.454   4.447  0.3234 -1.0380 -0.1352
14217TIP3    H164066   4.226   0.519   4.419 -0.3446 -1.1163 -1.9390
14217TIP3    H264067   4.215   0.378   4.472  0.9760 -0.9719 -1.2390
14218TIP3   OH264068   0.095   6.074  14.313 -0.1933  0.3070  0.1512
14218TIP3    H164069   0.066   5.983  14.309  0.0636  0.2637 -1.2127
14218TIP3    H264070   0.150   6.085  14.236 -1.1585  1.9353 -0.3645
14219TIP3   OH264071   0.950   3.711  15.226  0.5507  0.0064  0.0142
14219TIP3    H164072   0.946   3.615  15.233 -0.8574  0.0823  0.5506
14219TIP3    H264073   0.991   3.739  15.307  0.7598 -0.1345 -0.0427
14220TIP3   OH264074   0.963   5.099  16.430  0.7499  0.2214 -0.3134
14220TIP3    H164075   0.975   5.106  16.335  0.2197 -0.8834 -0.4690
14220TIP3    H264076   0.868   5.091  16.442  0.9117 -1.2135  0.1876
14221TIP3   OH264077   2.592   2.136   2.038 -0.2276 -0.1092 -0.6364
14221TIP3    H164078   2.524   2.201   2.021  1.6476  1.6133 -1.9941
14221TIP3    H264079   2.570   2.102   2.125 -1.8473  1.6224 -0.2870
14222TIP3   OH264080   0.265   0.881   4.415 -0.5924 -0.1226  0.9183
14222TIP3    H164081   0.303   0.950   4.361 -1.0369 -0.3777  0.2690
14222TIP3    H264082   0.179   0.865   4.377  0.0044 -1.9463  0.2176
14223TIP3   OH264083   0.183   3.726  13.902 -0.1584 -0.0407  0.0390
14223TIP3    H164084   0.212   3.750  13.814  1.1415 -1.3558  0.0797
14223TIP3    H264085   0.215   3.798  13.958 -0.2757  0.3871 -0.4342
14224TIP3   OH264086   4.376   4.069   0.401 -0.6180 -0.3160  0.0527
14224TIP3    H164087   4.318   4.123   0.346 -1.5229 -0.8521  0.4591
14224TIP3    H264088   4.352   4.093   0.490 -1.7652 -2.0950  0.2748
14225TIP3   OH264089   6.280   5.906  15.440 -0.2300 -0.0746  0.3321
14225TIP3    H164090   6.238   5.877  15.359  0.2640  0.4739 -0.1392
14225TIP3    H264091   6.226   5.871  15.510 -1.1008  0.0737 -0.2520
14226TIP3   OH264092   5.055   4.748  15.223 -0.3708  0.0907 -0.0952
14226TIP3    H164093   4.989   4.681  15.208  1.8146 -2.4286  0.6071
14226TIP3    H264094   5.036   4.781  15.311 -0.2793 -1.2015  0.4331
14227TIP3   OH264095   4.394   0.587  11.761 -0.4812  0.5874 -0.4964
14227TIP3    H164096   4.350   0.590  11.676 -1.2431 -1.2946 -0.1977
14227TIP3    H264097   4.469   0.646  11.750 -0.7393  0.6405 -2.3638
14228TIP3   OH264098   5.651   0.107  11.627 -0.1637 -0.1777 -0.3000
14228TIP3    H164099   5.723   0.045  11.637  1.6008  1.9647  1.2151
14228TIP3    H264100   5.611   0.084  11.543  0.3917 -3.2764  0.1499
14229TIP3   OH264101   0.697   2.163   4.062  0.4110 -0.2230  0.3956
14229TIP3    H164102   0.720   2.148   3.970 -1.5771  1.3113 -0.4256
14229TIP3    H264103   0.753   2.237   4.088 -1.7682  2.0851 -0.9401
14230TIP3   OH264104   1.472   0.955  14.848 -0.5871  0.2049 -0.7454
14230TIP3    H164105   1.395   0.920  14.893  0.3314  1.5874  2.0965
14230TIP3    H264106   1.532   0.881  14.842 -0.7601 -0.0262  0.2767
14231TIP3   OH264107   4.869   6.437   2.519 -0.0936  0.6653  0.1788
14231TIP3    H164108   4.844   6.377   2.589 -0.3342  1.0677  0.4417
14231TIP3    H264109   4.964   6.428   2.512 -0.1299  0.2556  0.2182
14232TIP3   OH264110   3.046   5.433   5.873  0.4513  0.1883 -0.2706
14232TIP3    H164111   3.136   5.403   5.886 -0.2594 -2.0794 -0.1378
14232TIP3    H264112   2.999   5.356   5.842 -1.5143  1.2415 -0.0841
14233TIP3   OH264113   5.951   4.522   0.396 -0.7492 -0.2750 -0.5798
14233TIP3    H164114   5.902   4.576   0.459  2.9920  2.6814  0.1512
14233TIP3    H264115   6.006   4.467   0.451 -0.7883 -1.0920 -1.3453
14234TIP3   OH264116   2.579   0.366  14.950  0.8698  0.0861  0.2942
14234TIP3    H164117   2.531   0.443  14.920  2.4933  0.3186 -2.0081
14234TIP3    H264118   2.622   0.332  14.871 -0.2353 -3.5709  1.0646
14235TIP3   OH264119   3.019   3.168  16.225 -0.3227 -0.3653 -0.3407
14235TIP3    H164120   3.035   3.075  16.207 -2.1272 -0.4759 -1.6752
14235TIP3    H264121   2.980   3.170  16.312  1.1374 -0.6779  0.3421
14236TIP3   OH264122   0.513   3.232  13.707 -0.1721 -0.6721 -0.3850
14236TIP3    H164123   0.440   3.293  13.719  0.3969 -0.1446  0.4450
14236TIP3    H264124   0.471   3.150  13.680 -0.9219  0.1802 -1.9554
14237TIP3   OH264125   2.472   6.394  14.425  0.3032 -0.1277 -0.0369
14237TIP3    H164126   2.555   6.407  14.379 -0.3041  1.5130 -0.7699
14237TIP3    H264127   2.406   6.397  14.355 -0.4258 -0.6698  0.6162
14238TIP3   OH264128   5.193   1.557   4.906  0.0474  0.4106  0.1381
14238TIP3    H164129   5.288   1.565   4.903  0.6567 -4.0414  0.9034
14238TIP3    H264130   5.170   1.517   4.822 -0.8566 -0.5034  0.8043
14239TIP3   OH264131   2.778   6.430  14.059  0.9605 -0.1222  0.4767
14239TIP3    H164132   2.786   6.525  14.057 -0.5823  0.1120  2.3563
14239TIP3    H264133   2.819   6.404  14.142  0.1255 -0.9258  0.6544
14240TIP3   OH264134   0.164   4.038   4.004  0.5023  0.0351  0.1303
14240TIP3    H164135   0.222   4.072   3.936 -0.1031 -1.1622 -1.0423
14240TIP3    H264136   0.146   3.948   3.977 -0.1123 -0.3353  1.6600
14241TIP3   OH264137   4.459   5.326  12.588  0.0878 -0.1170  0.6602
14241TIP3    H164138   4.364   5.322  12.586  0.1386 -2.3811  1.0396
14241TIP3    H264139   4.486   5.307  12.498  0.2060  0.0685  0.6549
14242TIP3   OH264140   4.738   5.280  15.940 -0.3508  0.3172  0.3138
14242TIP3    H164141   4.644   5.272  15.929 -0.3853  0.1032  0.7509
14242TIP3    H264142   4.753   5.267  16.034  0.2829 -1.4168  0.0192
14243TIP3   OH264143   1.092   5.803   1.587  0.4977 -0.0692 -0.3282
14243TIP3    H164144   1.018   5.778   1.642  0.6525  0.2190  0.0208
14243TIP3    H264145   1.100   5.898   1.599  0.1250  0.1071 -1.3584
14244TIP3   OH264146   3.432   0.084  15.609 -0.1438 -0.1909  0.8012
14244TIP3    H164147   3.361   0.142  15.635  0.2066  0.0452  1.2516
14244TIP3    H264148   3.507   0.143  15.595 -0.1756 -0.3697 -0.2131
14245TIP3   OH264149   4.912   5.694   4.866 -0.0035 -1.1422  0.0933
14245TIP3    H164150   4.996   5.659   4.834  0.1147  0.3556 -1.3905
14245TIP3    H264151   4.920   5.789   4.854 -1.5721 -0.8962  0.7961
14246TIP3   OH264152   6.081   4.063   9.965  0.2283  0.2624 -0.0569
14246TIP3    H164153   5.992   4.043   9.938 -0.2696  2.0456  0.1478
14246TIP3    H264154   6.127   3.979   9.963 -1.4688 -0.6894 -0.0741
14247TIP3   OH264155   1.826   5.249  15.905 -0.2808 -0.4188 -0.5092
14247TIP3    H164156   1.864   5.170  15.945 -0.0344 -0.7128 -1.3056
14247TIP3    H264157   1.851   5.244  15.813 -0.7628  0.2970 -0.6900
14248TIP3   OH264158   4.497   3.319   3.158 -0.4887 -0.6211  0.3259
14248TIP3    H164159   4.560   3.256   3.193 -0.5057 -1.7404 -1.5299
14248TIP3    H264160   4.549   3.376   3.102 -0.5833  0.6954  1.5027
14249TIP3   OH264161   5.606   5.237  12.261 -0.3626 -0.6889  0.0160
14249TIP3    H164162   5.582   5.182  12.336  0.5616  0.0772  0.9072
14249TIP3    H264163   5.528   5.239  12.206 -0.7120 -2.1163  0.4344
14250TIP3   OH264164   2.173   0.486  14.750  0.0232  0.0047 -0.1214
14250TIP3    H164165   2.258   0.519  14.777  0.1067 -0.7944  0.6123
14250TIP3    H264166   2.192   0.407  14.699 -0.2796 -0.2753  0.1924
14251TIP3   OH264167   1.953   2.250   5.838  0.3858 -0.3247  0.0410
14251TIP3    H164168   1.949   2.272   5.931  0.4792  0.0716 -0.0459
14251TIP3    H264169   1.861   2.246   5.810  0.3316 -1.2323  0.3262
14252TIP3   OH264170   2.241   2.325  12.002  0.4610  0.0803 -0.5865
14252TIP3    H164171   2.280   2.243  12.032 -0.1966  0.4743  1.4891
14252TIP3    H264172   2.146   2.309  12.004  0.3320  0.8153 -0.4099
14253TIP3   OH264173   0.972   5.781  16.687  0.0023  0.2426 -0.5227
14253TIP3    H164174   0.977   5.706  16.628 -0.3216  1.4624 -2.1904
14253TIP3    H264175   0.951   5.744  16.772 -0.3789 -1.5249 -1.3477
14254TIP3   OH264176   3.868   3.353   3.715 -0.1544 -0.0736  0.2201
14254TIP3    H164177   3.798   3.409   3.684 -0.2680 -0.8724 -1.0081
14254TIP3    H264178   3.941   3.369   3.655  0.7991  0.8859  1.5866
14255TIP3   OH264179   6.075   0.595   4.666  0.2242  0.4660 -0.3368
14255TIP3    H164180   6.056   0.676   4.713 -0.8031  0.2295 -0.3292
14255TIP3    H264181   6.091   0.622   4.576 -0.8083  0.6179 -0.4847
14256TIP3   OH264182   2.752   3.489   1.343 -0.1725 -0.1526 -0.6797
14256TIP3    H164183   2.790   3.469   1.257 -0.7279  0.6744 -1.1390
14256TIP3    H264184   2.681   3.550   1.323  1.3828  2.2148  0.6154
14257TIP3   OH264185   0.272   5.623   1.450 -0.6134  0.3181  0.0198
14257TIP3    H164186   0.185   5.632   1.490 -1.0876  1.7389 -1.2497
14257TIP3    H264187   0.293   5.710   1.418 -0.1294 -0.6596 -2.5479
14258TIP3   OH264188   3.250   4.021  13.938 -0.0868 -0.4890  0.4094
14258TIP3    H164189   3.169   3.978  13.910  0.1614 -0.4663 -0.3568
14258TIP3    H264190   3.226   4.114  13.944 -0.0593 -0.4506 -0.0460
14259TIP3   OH264191   3.705   2.782   3.525 -0.6273 -0.0125  0.0132
14259TIP3    H164192   3.698   2.744   3.613 -0.5166  0.9651  0.4518
14259TIP3    H264193   3.653   2.723   3.471 -1.9600  0.1886  1.0086
14260TIP3   OH264194   2.340   5.984  11.551  0.0567 -0.1161 -0.0578
14260TIP3    H164195   2.341   6.078  11.532 -0.5719 -0.1755 -0.4333
14260TIP3    H264196   2.256   5.969  11.595 -0.9286 -0.8529 -2.0482
14261TIP3   OH264197   1.964   3.477  11.463  0.4286  0.1670 -0.1739
14261TIP3    H164198   1.918   3.444  11.540  1.7365 -0.2653  0.4517
14261TIP3    H264199   2.007   3.557  11.493  1.7857 -0.5438 -0.1332
14262TIP3   OH264200   6.130   0.986   3.205  0.5536 -0.3236  0.5099
14262TIP3    H164201   6.140   0.910   3.147  2.6535 -1.0862  1.7265
14262TIP3    H264202   6.206   1.041   3.184 -2.0758  2.7327 -1.9563
14263TIP3   OH264203   3.594   2.517  14.448  0.5002  0.4985  0.1193
14263TIP3    H164204   3.630   2.551  14.366  0.4299 -2.0464 -1.0706
14263TIP3    H264205   3.671   2.489  14.498  0.4700  0.6167  0.2310
14264TIP3   OH264206   3.549   0.046   0.619  0.2912 -0.6446 -0.2773
14264TIP3    H164207   3.481   0.083   0.563  0.0021 -1.3025 -0.3585
14264TIP3    H264208   3.622   0.108   0.612  1.2720 -1.9693 -3.4621
14265TIP3   OH264209   1.417   6.146  14.393 -0.2035 -0.4978  0.2361
14265TIP3    H164210   1.421   6.238  14.420 -0.7885 -0.0731 -1.0418
14265TIP3    H264211   1.345   6.109  14.444 -0.0333 -0.2251  0.6783
14266TIP3   OH264212   1.332   1.895   3.599 -0.5006 -0.1335 -0.5982
14266TIP3    H164213   1.252   1.905   3.547 -0.5423 -0.3739 -0.5780
14266TIP3    H264214   1.392   1.961   3.563 -0.3039 -0.7258 -1.3678
14267TIP3   OH264215   6.711   0.573  14.506  0.1897  0.2510 -0.0766
14267TIP3    H164216   6.789   0.539  14.462 -0.5701  0.3138 -1.5346
14267TIP3    H264217   6.662   0.618  14.437 -0.8354  0.7535  0.9418
14268TIP3   OH264218   0.443   5.638  15.904 -0.6135  0.2548  0.5400
14268TIP3    H164219   0.352   5.605  15.904 -0.4853 -0.2153 -0.9747
14268TIP3    H264220   0.490   5.574  15.850  0.4504  0.9337  0.6559
14269TIP3   OH264221   5.014   0.270  16.226  0.2440  0.1128 -0.6087
14269TIP3    H164222   5.009   0.179  16.255  0.2513  0.2489 -0.1738
14269TIP3    H264223   4.938   0.312  16.264  0.8686  0.5580  0.1911
14270TIP3   OH264224   0.410   3.065   1.250  0.4713  1.1808 -0.0345
14270TIP3    H164225   0.414   3.093   1.341  0.8241  1.5131 -0.1476
14270TIP3    H264226   0.492   3.017   1.236  0.4991  1.2803 -0.2206
14271TIP3   OH264227   0.710   2.822   3.794  0.5292 -0.9852 -0.2696
14271TIP3    H164228   0.763   2.806   3.716 -0.8915  0.5617 -1.6397
14271TIP3    H264229   0.625   2.785   3.774  0.3188 -1.1452  0.8380
14272TIP3   OH264230   1.717   4.801   2.797  0.2274 -0.0148 -0.1683
14272TIP3    H164231   1.631   4.762   2.813  0.6766 -0.9322  0.1018
14272TIP3    H264232   1.769   4.776   2.874  1.1097 -0.5994 -0.9271
14273TIP3   OH264233   3.921   1.928   5.506  0.1449  0.2605 -0.0565
14273TIP3    H164234   4.014   1.914   5.488  0.1796  0.2206  0.1548
14273TIP3    H264235   3.876   1.900   5.426  0.3122  0.2427 -0.1426
14274TIP3   OH264236   0.809   3.947  16.441 -0.1175  0.3916 -0.6907
14274TIP3    H164237   0.717   3.923  16.455  0.6275 -1.8475  0.8743
14274TIP3    H264238   0.827   4.013  16.508 -0.1460 -0.4255  0.1293
14275TIP3   OH264239   1.648   2.259   3.264  0.1634 -0.5362 -0.1524
14275TIP3    H164240   1.716   2.285   3.202 -0.3942  0.3166 -0.4204
14275TIP3    H264241   1.568   2.301   3.231  0.1038  1.0814  1.8703
14276TIP3   OH264242   5.185   0.994   6.542  0.2923  0.6521 -0.2196
14276TIP3    H164243   5.268   0.947   6.541  0.0564  0.2364 -0.4769
14276TIP3    H264244   5.207   1.080   6.578  0.9676  0.7951 -0.9477
14277TIP3   OH264245   0.306   2.608   4.669 -0.6319  0.5033 -0.2137
14277TIP3    H164246   0.362   2.619   4.747 -1.1245 -1.2132  0.4214
14277TIP3    H264247   0.322   2.518   4.641 -2.3178  0.3059 -0.6177
14278TIP3   OH264248   6.756   3.420  13.700  0.8189 -0.0267  0.3253
14278TIP3    H164249   6.675   3.404  13.748 -0.6844  2.1846 -1.3278
14278TIP3    H264250   6.824   3.419  13.768 -0.9701  1.0912  2.2488
14279TIP3   OH264251   2.636   6.131  16.081 -0.0745 -0.4367  0.2479
14279TIP3    H164252   2.645   6.038  16.063 -0.4215 -0.5575  0.6878
14279TIP3    H264253   2.701   6.173  16.024  1.6934 -1.1142  1.6438
14280TIP3   OH264254   2.334   0.820   1.713 -0.5378 -0.2234  0.1098
14280TIP3    H164255   2.376   0.754   1.768 -0.7489  0.0023  0.5388
14280TIP3    H264256   2.276   0.770   1.655 -0.4133 -0.4448  0.1747
14281TIP3   OH264257   5.273   3.196  12.621 -0.4253 -0.1644 -0.2536
14281TIP3    H164258   5.295   3.289  12.625  1.0928 -0.4071 -1.8494
14281TIP3    H264259   5.350   3.151  12.655 -1.6046 -0.8725  1.6755
14282TIP3   OH264260   0.360   0.200   1.108 -0.4785 -0.1628  0.0221
14282TIP3    H164261   0.439   0.147   1.095 -0.6532 -0.9296  1.7038
14282TIP3    H264262   0.380   0.284   1.068  0.2160 -1.1502 -1.8054
14283TIP3   OH264263   0.122   2.682   3.829 -0.1292  0.1452  0.2669
14283TIP3    H164264   0.067   2.683   3.751 -0.3090  0.0429  0.3917
14283TIP3    H264265   0.094   2.604   3.877 -0.3923  0.5046  0.6998
14284TIP3   OH264266   2.897   0.176  11.852  0.1428 -0.6098 -0.2352
14284TIP3    H164267   2.943   0.217  11.925 -0.2395  0.6878 -0.6865
14284TIP3    H264268   2.889   0.084  11.877  1.1001 -0.4371  0.7907
14285TIP3   OH264269   5.060   4.246  15.914  0.3681 -0.3692 -0.0472
14285TIP3    H164270   5.066   4.234  16.009 -1.9247 -0.0327  0.2050
14285TIP3    H264271   5.080   4.160  15.878 -0.9591 -1.1183  0.9031
14286TIP3   OH264272   1.077   4.292   4.172 -0.2860 -0.2284  0.1649
14286TIP3    H164273   0.985   4.267   4.170 -0.4722  0.4410  0.0058
14286TIP3    H264274   1.123   4.213   4.198 -1.1499  0.0575  2.9618
14287TIP3   OH264275   6.700   4.103  12.155  0.1387 -0.5862 -0.4890
14287TIP3    H164276   6.722   4.060  12.238 -2.3946 -0.9849  0.0476
14287TIP3    H264277   6.718   4.195  12.170 -1.2437 -0.5016  0.9143
14288TIP3   OH264278   1.502   0.393   5.690  0.0784 -0.4531  0.7759
14288TIP3    H164279   1.529   0.333   5.759  2.6395  1.3226  1.4728
14288TIP3    H264280   1.409   0.411   5.709  0.0088 -2.0087  2.1640
14289TIP3   OH264281   5.099   5.229  12.253 -0.4099  0.2925  0.0227
14289TIP3    H164282   5.068   5.304  12.304 -0.6910 -0.5571  1.1379
14289TIP3    H264283   5.140   5.171  12.318  2.4385  0.7615 -1.2018
14290TIP3   OH264284   0.912   1.585   5.772  0.2838 -0.1258  0.1679
14290TIP3    H164285   0.878   1.591   5.861 -3.2055  2.4367 -1.0757
14290TIP3    H264286   0.879   1.501   5.740 -1.2683  0.3444  0.4052
14291TIP3   OH264287   0.339   4.936   3.172  0.3438  0.4693 -0.4227
14291TIP3    H164288   0.384   5.001   3.119 -0.0583 -0.1418 -1.5540
14291TIP3    H264289   0.267   4.906   3.116 -0.0271 -0.2738  0.4347
14292TIP3   OH264290   1.712   1.787   3.899 -0.2936  0.6413 -0.0882
14292TIP3    H164291   1.704   1.694   3.920 -0.0237  0.5911 -0.2038
14292TIP3    H264292   1.629   1.826   3.928 -0.5912  0.2857 -0.4539
14293TIP3   OH264293   6.480   6.276   2.612  0.5109  0.2862 -0.3447
14293TIP3    H164294   6.475   6.370   2.632 -1.5602  0.2118 -0.2864
14293TIP3    H264295   6.538   6.271   2.537  3.3903  1.2291  1.6372
14294TIP3   OH264296   2.290   2.437   4.747  0.0892  0.5058  0.2703
14294TIP3    H164297   2.271   2.449   4.654  0.7123  1.5655  0.2629
14294TIP3    H264298   2.244   2.509   4.790  1.0340  0.9122  0.6184
14295TIP3   OH264299   1.631   3.843  12.757 -0.8161 -0.1423  0.3702
14295TIP3    H164300   1.723   3.817  12.757 -1.1894 -1.5685  0.4239
14295TIP3    H264301   1.613   3.864  12.849 -0.7497 -0.6862  0.5131
14296TIP3   OH264302   3.258   0.018  14.181  0.2167  0.4677  0.2092
14296TIP3    H164303   3.345   0.023  14.219  0.7890  0.3908 -1.0332
14296TIP3    H264304   3.227  -0.070  14.204  0.1234  0.7860  1.3389
14297TIP3   OH264305   3.658   1.461   5.682 -0.1592  0.2939  0.2896
14297TIP3    H164306   3.576   1.416   5.697  0.6056 -1.8910 -1.5185
14297TIP3    H264307   3.724   1.408   5.726  0.6084  0.3188 -0.7664
14298TIP3   OH264308   1.320   3.666  16.472 -0.5970  0.0960  0.0254
14298TIP3    H164309   1.296   3.755  16.500 -0.9949 -0.7689  2.8073
14298TIP3    H264310   1.236   3.621  16.461 -0.4033 -0.3685  0.3725
14299TIP3   OH264311   6.768   3.801   4.375  0.5377 -0.0662 -0.7295
14299TIP3    H164312   6.723   3.846   4.303 -0.4110 -1.1833 -0.8639
14299TIP3    H264313   6.757   3.708   4.355  1.2526 -0.3785  0.2715
14300TIP3   OH264314   6.596   3.616  16.214 -0.1375  0.0585 -0.2001
14300TIP3    H164315   6.658   3.669  16.164  0.1396  1.9910  1.9897
14300TIP3    H264316   6.512   3.661  16.203 -0.7127 -1.2165 -1.2691
14301TIP3   OH264317   0.739   4.483  16.789 -0.1897 -0.3381  0.1594
14301TIP3    H164318   0.713   4.517  16.874  0.4853  0.3263  0.1052
14301TIP3    H264319   0.690   4.401  16.780  0.1542 -0.6972  1.4173
14302TIP3   OH264320   0.114   1.031   5.138  0.1551 -0.7515  0.2301
14302TIP3    H164321   0.137   0.989   5.221 -0.3665  1.4870  1.6056
14302TIP3    H264322   0.193   1.080   5.114 -0.3630  0.2605  0.5381
14303TIP3   OH264323   0.178   0.951   2.887  0.6466 -0.4523  0.2460
14303TIP3    H164324   0.176   0.897   2.807 -0.7126 -2.9795  1.8319
14303TIP3    H264325   0.255   0.920   2.935  0.3794 -0.3116  0.7708
14304TIP3   OH264326   6.021   1.812  13.106  0.4080  0.0852 -0.0022
14304TIP3    H164327   6.053   1.740  13.052  0.7903  1.0888 -1.1760
14304TIP3    H264328   5.944   1.777  13.150  0.6057 -1.0464 -0.5298
14305TIP3   OH264329   3.226   6.032  17.105  0.5124 -0.2249 -0.0166
14305TIP3    H164330   3.197   5.953  17.152  0.1955 -1.6340 -2.4345
14305TIP3    H264331   3.320   6.020  17.095  0.8966  0.9659  1.7499
14306TIP3   OH264332   3.021   1.685  14.614  0.2552 -0.2557  0.5424
14306TIP3    H164333   3.048   1.599  14.582  0.4311 -0.5019  1.3239
14306TIP3    H264334   3.096   1.742  14.597 -0.0002 -0.1629 -0.3149
14307TIP3   OH264335   5.688   0.587  16.127  0.2915 -0.6521  0.6971
14307TIP3    H164336   5.770   0.587  16.078  0.0437  0.6564  0.2529
14307TIP3    H264337   5.713   0.610  16.217  0.5338 -1.3775  0.8247
14308TIP3   OH264338   5.179   5.425  11.051 -0.3702 -0.2944  0.8246
14308TIP3    H164339   5.186   5.491  10.982 -1.6040 -1.6571 -0.6787
14308TIP3    H264340   5.262   5.376  11.045 -0.0538  0.2168  0.9833
14309TIP3   OH264341   6.603   1.385  15.034  0.5593  0.0854 -0.1057
14309TIP3    H164342   6.549   1.438  15.093  0.0461  0.8279 -1.2100
14309TIP3    H264343   6.687   1.430  15.032  0.7186 -0.1877  0.3969
14310TIP3   OH264344   5.558   3.073  14.295  0.1161  0.2439  0.5703
14310TIP3    H164345   5.524   3.163  14.293  0.7312  0.5125  1.3913
14310TIP3    H264346   5.639   3.079  14.346  1.5906 -0.3251 -1.5883
14311TIP3   OH264347   4.016   5.525  15.815 -0.0534 -0.2293  0.0194
14311TIP3    H164348   3.970   5.531  15.899 -1.4538 -0.1233 -0.7205
14311TIP3    H264349   4.065   5.443  15.820  1.2640  0.6094  1.5857
14312TIP3   OH264350   5.501   5.756   4.506 -0.5422  0.0359  0.0665
14312TIP3    H164351   5.499   5.842   4.464  0.4548  0.1390  0.2194
14312TIP3    H264352   5.580   5.713   4.472 -1.4880 -1.1793 -0.6929
14313TIP3   OH264353   1.839   4.592   3.695  0.1112  0.0588 -0.3180
14313TIP3    H164354   1.807   4.502   3.688  0.9414 -0.3305  0.5533
14313TIP3    H264355   1.760   4.645   3.704 -0.3878 -0.5852 -0.8046
14314TIP3   OH264356   4.919   6.386   3.674 -0.1797 -0.0201 -0.1505
14314TIP3    H164357   4.859   6.361   3.604 -0.5097  1.1733 -0.3032
14314TIP3    H264358   4.909   6.481   3.683  0.5773 -0.0117  0.8478
14315TIP3   OH264359   6.720   0.069  11.204 -0.0010 -0.1723  0.2759
14315TIP3    H164360   6.686  -0.014  11.169  0.5842 -0.0334 -0.6364
14315TIP3    H264361   6.758   0.044  11.289  0.6711 -0.9564 -0.2362
14316TIP3   OH264362   5.445   6.642   2.927  0.1415  0.3549  0.1854
14316TIP3    H164363   5.458   6.663   2.834  0.6315  0.2854  0.2381
14316TIP3    H264364   5.479   6.718   2.974 -1.5057  1.0799  0.2797
14317TIP3   OH264365   0.858   1.908   4.990  0.8387 -0.4982 -0.0396
14317TIP3    H164366   0.849   1.814   5.008  1.9723 -0.5625  0.3064
14317TIP3    H264367   0.827   1.950   5.071 -2.4831 -0.3956 -1.2059
14318TIP3   OH264368   1.795   0.833  15.337  0.1164 -0.4871 -0.0550
14318TIP3    H164369   1.863   0.840  15.404  1.1731  2.2459 -1.2584
14318TIP3    H264370   1.715   0.861  15.381  0.7918  1.2364  0.1408
14319TIP3   OH264371   1.302   0.361   3.835  0.4327  0.5027 -0.9490
14319TIP3    H164372   1.383   0.407   3.856 -0.3207  1.3097  0.3108
14319TIP3    H264373   1.323   0.268   3.849  1.3549  0.6262 -1.4366
14320TIP3   OH264374   1.017   0.302   3.757 -0.4201 -0.5899 -0.2080
14320TIP3    H164375   1.097   0.349   3.780 -0.8229  0.0164 -0.0233
14320TIP3    H264376   1.044   0.210   3.749 -0.0446 -0.6804  1.6197
14321TIP3   OH264377   4.327   5.609  16.183  0.1824 -0.3976 -0.2380
14321TIP3    H164378   4.342   5.609  16.089 -0.6991 -0.9830 -0.3972
14321TIP3    H264379   4.252   5.550  16.195 -1.5501  1.8102  0.5176
14322TIP3   OH264380   5.030   4.900   2.309 -0.2847  0.5688  0.3840
14322TIP3    H164381   5.068   4.905   2.221  1.5080  1.4057  1.1731
14322TIP3    H264382   4.984   4.816   2.309  0.1692  0.2768 -1.1554
14323TIP3   OH264383   5.117   0.679  16.248  0.6336 -0.4293  0.0384
14323TIP3    H164384   5.178   0.752  16.254 -1.1535  1.0363  1.2288
14323TIP3    H264385   5.076   0.675  16.334 -1.2656 -1.0824 -0.8540
14324TIP3   OH264386   2.812   0.675  14.733 -0.1076 -0.2969  0.2881
14324TIP3    H164387   2.873   0.671  14.660 -0.4700  2.1303 -0.2352
14324TIP3    H264388   2.726   0.683  14.692 -0.1476  3.5953  0.7938
14325TIP3   OH264389   0.448   2.596  15.509  0.8119 -0.0577  0.8730
14325TIP3    H164390   0.495   2.528  15.462  2.2707  0.9254  0.8569
14325TIP3    H264391   0.356   2.569  15.506  1.1131 -0.9795 -0.8737
14326TIP3   OH264392   3.126   3.219  13.375  0.4978  0.5977  0.2254
14326TIP3    H164393   3.106   3.164  13.450 -1.6843  0.7257 -0.2058
14326TIP3    H264394   3.114   3.308  13.406  1.5568  0.7502  0.2364
14327TIP3   OH264395   3.044   6.302   3.552  0.1161 -0.0657 -0.0584
14327TIP3    H164396   2.968   6.360   3.545  0.1611 -0.0150 -0.1424
14327TIP3    H264397   3.094   6.319   3.471 -0.7688 -1.5320 -0.9536
14328TIP3   OH264398   0.181   6.020  13.639  0.1193 -0.1298 -0.1540
14328TIP3    H164399   0.229   6.050  13.716 -1.0438  0.2369  0.4521
14328TIP3    H264400   0.242   6.032  13.566  1.1134 -0.1485  0.6453
14329TIP3   OH264401   4.127   6.771   5.519  0.0222  0.1012  0.1504
14329TIP3    H164402   4.068   6.771   5.443 -0.4957  0.2476  0.5415
14329TIP3    H264403   4.082   6.717   5.584  1.2515 -1.4174 -0.2209
14330TIP3   OH264404   0.538   0.212  13.198  0.1256  0.0617 -0.1432
14330TIP3    H164405   0.549   0.224  13.293 -0.9177  0.7484 -0.0864
14330TIP3    H264406   0.476   0.140  13.191 -2.0382  1.8087 -0.1806
14331TIP3   OH264407   3.749   0.418  14.945 -0.4337  0.2080  0.0582
14331TIP3    H164408   3.716   0.412  14.856  0.7414 -0.7115 -0.3351
14331TIP3    H264409   3.758   0.512  14.961  1.5540  0.3815 -1.6702
14332TIP3   OH264410   6.608   0.664   5.659 -0.0230 -0.4442 -0.2133
14332TIP3    H164411   6.667   0.593   5.683  2.4785  1.6511  0.1944
14332TIP3    H264412   6.549   0.672   5.734  1.9720  0.1934  1.3494
14333TIP3   OH264413   3.756   1.510   2.201  0.2811  0.3566  0.3949
14333TIP3    H164414   3.812   1.441   2.236  5.2147  2.4746 -2.2782
14333TIP3    H264415   3.758   1.579   2.266 -0.0246  0.0849  0.6961
14334TIP3   OH264416   1.625   0.531   1.601  0.5602  0.2957 -0.4613
14334TIP3    H164417   1.677   0.523   1.681 -0.5699 -2.1497  0.1272
14334TIP3    H264418   1.544   0.484   1.621  0.2355 -0.3451 -3.0276
14335TIP3   OH264419   3.914   4.887   4.494 -0.4630  0.4019  0.1973
14335TIP3    H164420   3.832   4.908   4.538  0.6662  2.2141  1.6110
14335TIP3    H264421   3.960   4.829   4.555  0.6586  2.0738  1.0410
14336TIP3   OH264422   6.133   4.433   2.540  0.2393  0.4305  0.5022
14336TIP3    H164423   6.052   4.381   2.544 -0.3403  1.3340  0.7914
14336TIP3    H264424   6.151   4.442   2.447 -1.9577  3.1351  0.2130
14337TIP3   OH264425   1.010   3.064  13.709 -0.2326 -0.5284 -0.1526
14337TIP3    H164426   0.918   3.088  13.693  0.1189  0.0386 -1.3982
14337TIP3    H264427   1.018   3.067  13.805 -1.4330 -0.2872 -0.0383
14338TIP3   OH264428   6.067   5.372   5.256 -0.7119  0.5158 -0.2307
14338TIP3    H164429   6.054   5.466   5.272 -0.9089  0.6813 -1.3155
14338TIP3    H264430   5.986   5.332   5.288 -1.7685  1.0083 -2.1678
14339TIP3   OH264431   6.687   3.533   3.939  0.0434 -0.3765 -0.3099
14339TIP3    H164432   6.775   3.501   3.916 -0.8017 -1.6777 -1.9632
14339TIP3    H264433   6.638   3.530   3.857 -1.0975  2.0357  0.1812
14340TIP3   OH264434   3.926   4.910  14.723 -0.1338  0.3595 -0.1697
14340TIP3    H164435   3.836   4.901  14.693  0.6121  1.4693 -3.0509
14340TIP3    H264436   3.960   4.821  14.729 -1.1276 -0.0106  0.0212
14341TIP3   OH264437   3.535   5.305   6.051  0.1143  0.1329 -0.5189
14341TIP3    H164438   3.603   5.341   6.106 -1.1730  1.4894  0.2530
14341TIP3    H264439   3.525   5.214   6.081  0.4823  0.3991  0.4378
14342TIP3   OH264440   2.512   2.850  14.489 -0.9020  0.8373 -0.2172
14342TIP3    H164441   2.451   2.778  14.505 -0.6566  0.9570  1.4744
14342TIP3    H264442   2.490   2.882  14.401 -1.1427 -1.1494 -0.9159
14343TIP3   OH264443   5.532   2.026  14.862 -0.1435  0.3020 -0.2451
14343TIP3    H164444   5.605   2.063  14.911  0.2828 -1.0587  0.1907
14343TIP3    H264445   5.514   2.090  14.794 -0.7218  2.2206  1.6367
14344TIP3   OH264446   2.983   3.058   4.689 -0.2822 -0.1462  0.0506
14344TIP3    H164447   2.965   2.991   4.623 -0.1340  0.1129 -0.2572
14344TIP3    H264448   3.060   3.104   4.655  0.3425 -0.5782  0.8439
14345TIP3   OH264449   1.493   1.996  12.052 -0.3617 -0.1444 -0.3928
14345TIP3    H164450   1.501   2.023  12.143  0.5834  1.5488 -0.9372
14345TIP3    H264451   1.582   1.972  12.027 -0.4529  0.2369 -1.1054
14346TIP3   OH264452   6.031   0.292   1.677  0.0435 -0.5474 -0.3470
14346TIP3    H164453   6.008   0.333   1.594  0.0730  0.7157  0.2324
14346TIP3    H264454   5.990   0.348   1.743  2.1058 -0.0348  0.5849
14347TIP3   OH264455   1.549   6.169   3.021 -0.3536 -0.4466 -0.4233
14347TIP3    H164456   1.568   6.263   3.026 -0.7640 -0.3090 -1.4171
14347TIP3    H264457   1.619   6.128   3.073 -0.2749  0.4099  0.1641
14348TIP3   OH264458   4.176   3.463  12.943  0.0062 -0.4374 -0.1503
14348TIP3    H164459   4.120   3.434  12.871  0.1291  0.1018 -0.4660
14348TIP3    H264460   4.237   3.390  12.957 -0.1762 -0.6439 -0.4256
14349TIP3   OH264461   3.730   3.263  16.754  0.0838 -0.0508 -0.2041
14349TIP3    H164462   3.677   3.205  16.809  0.6498  1.4459  2.0237
14349TIP3    H264463   3.738   3.215  16.671 -2.6446 -1.4229  0.1976
14350TIP3   OH264464   4.876   1.549  14.222 -0.1742 -0.3562  0.1446
14350TIP3    H164465   4.866   1.599  14.141  0.2439 -0.0155  0.3009
14350TIP3    H264466   4.930   1.604  14.278 -0.7461 -0.4380  0.7875
14351TIP3   OH264467   1.243   0.881   3.642  0.2929  0.1028 -0.3820
14351TIP3    H164468   1.227   0.914   3.730  0.8150  0.6875 -0.4985
14351TIP3    H264469   1.260   0.788   3.653 -2.3850 -0.4344 -0.1550
14352TIP3   OH264470   3.399   4.150  12.197  0.2329  0.0943  0.6852
14352TIP3    H164471   3.349   4.218  12.153 -0.4838 -0.4273  0.6843
14352TIP3    H264472   3.372   4.156  12.289 -2.1139 -2.1011  0.2364
14353TIP3   OH264473   5.043   6.652   4.574 -0.0676 -0.5641 -0.4230
14353TIP3    H164474   5.029   6.567   4.533  0.3063  0.1204 -2.0263
14353TIP3    H264475   5.138   6.666   4.570  0.3034 -1.4549  2.7651
14354TIP3   OH264476   3.799   2.926  15.670 -0.6650 -0.8114  0.4084
14354TIP3    H164477   3.792   3.021  15.678  1.0985 -0.6594  0.5647
14354TIP3    H264478   3.820   2.911  15.578 -1.0162 -1.0585  0.3670
14355TIP3   OH264479   3.023   2.826   3.527 -0.2287  0.9139 -0.0617
14355TIP3    H164480   3.003   2.910   3.486  0.1931  0.2262 -1.7381
14355TIP3    H264481   3.111   2.836   3.562  0.2002  0.8879 -1.1011
14356TIP3   OH264482   5.256   4.539   2.146 -0.8711 -0.2767 -0.1286
14356TIP3    H164483   5.208   4.480   2.087 -1.7692  0.6978 -0.3948
14356TIP3    H264484   5.259   4.492   2.229 -1.2397 -0.8706 -0.4410
14357TIP3   OH264485   5.817   6.747   4.460 -0.0999 -0.1758  0.2239
14357TIP3    H164486   5.751   6.737   4.392 -1.0740 -1.6041  1.3274
14357TIP3    H264487   5.850   6.836   4.448 -0.6577 -0.1782 -1.7119
14358TIP3   OH264488   3.448   4.453   5.819  0.6827 -0.6281  0.2990
14358TIP3    H164489   3.427   4.469   5.728 -0.0528  1.0354  0.7324
14358TIP3    H264490   3.406   4.369   5.839 -0.2416 -0.3784 -0.5423
14359TIP3   OH264491   5.314   1.369   1.108 -0.2676 -0.6622  0.4044
14359TIP3    H164492   5.367   1.340   1.034 -1.3651 -2.5518  0.3169
14359TIP3    H264493   5.224   1.362   1.079 -0.6706  1.7723  0.8275
14360TIP3   OH264494   2.636   2.205  11.989  0.4929 -0.8872 -0.5359
14360TIP3    H164495   2.574   2.142  11.951 -1.0246  0.1621  0.0667
14360TIP3    H264496   2.654   2.267  11.918  1.4218 -1.5726 -0.9148
14361TIP3   OH264497   3.425   1.742   1.282 -0.3776  0.0148 -0.1141
14361TIP3    H164498   3.494   1.746   1.349  1.5984 -0.2166 -2.0096
14361TIP3    H264499   3.382   1.827   1.287  0.8428  0.6270  0.3355
14362TIP3   OH264500   4.673   3.126   1.710 -0.3349  0.1565 -0.0271
14362TIP3    H164501   4.648   3.103   1.620  1.2709 -1.1784 -0.1836
14362TIP3    H264502   4.689   3.220   1.707 -2.1003  0.4739 -0.6668
14363TIP3   OH264503   4.701   5.676   1.260 -0.0401 -0.2430 -0.0084
14363TIP3    H164504   4.637   5.632   1.316  0.6244 -1.1022  0.1140
14363TIP3    H264505   4.784   5.665   1.306  0.4663 -0.6659 -0.9845
14364TIP3   OH264506   0.675   2.710   5.553 -0.0624 -0.2662  0.9475
14364TIP3    H164507   0.667   2.805   5.548 -0.7654 -0.3741 -0.4018
14364TIP3    H264508   0.595   2.677   5.512  1.1551 -1.4470 -0.5947
14365TIP3   OH264509   0.950   0.483   4.567  0.6934 -0.0828  0.6744
14365TIP3    H164510   1.045   0.477   4.567  0.7278  0.3656  0.0131
14365TIP3    H264511   0.931   0.576   4.582  0.4330  0.3624 -1.9195
14366TIP3   OH264512   0.358   2.274  12.078 -0.2972  0.0109  0.0863
14366TIP3    H164513   0.300   2.349  12.063 -1.0543 -0.3266  1.2474
14366TIP3    H264514   0.394   2.288  12.165  0.7187 -0.2309 -0.2839
14367TIP3   OH264515   2.609   1.746  14.404 -0.5435  0.7036 -0.1049
14367TIP3    H164516   2.543   1.813  14.419 -0.6213  0.7350 -0.5924
14367TIP3    H264517   2.693   1.791  14.416 -0.5672  1.1762 -1.5717
14368TIP3   OH264518   3.742   5.097  15.970 -0.5810  0.0717 -0.1359
14368TIP3    H164519   3.728   5.027  16.034  1.1914  0.8560  1.1888
14368TIP3    H264520   3.710   5.176  16.014  0.6117  0.6157 -0.2251
14369TIP3   OH264521   6.090   3.195   2.298 -0.2594  0.6396  0.1045
14369TIP3    H164522   6.168   3.223   2.346  1.2248  0.7681 -2.2173
14369TIP3    H264523   6.110   3.107   2.267 -0.8811  0.7868 -0.7870
14370TIP3   OH264524   2.412   0.909   5.426  0.7273  0.0715 -0.2694
14370TIP3    H164525   2.470   0.839   5.457 -1.2528 -0.7252  1.9448
14370TIP3    H264526   2.325   0.884   5.458 -0.3376  2.7195 -0.8379
14371TIP3   OH264527   4.180   4.650   5.154 -0.2843 -0.4210 -0.0195
14371TIP3    H164528   4.241   4.608   5.093 -1.2312 -1.2609 -0.4204
14371TIP3    H264529   4.139   4.720   5.102  0.8985  0.6906  0.4898
14372TIP3   OH264530   2.163   0.692  12.828 -0.0334 -0.4953 -0.2324
14372TIP3    H164531   2.237   0.730  12.780  0.4982 -1.1625  0.0393
14372TIP3    H264532   2.142   0.612  12.780 -0.5118 -0.3698 -0.2384
14373TIP3   OH264533   3.594   3.305   1.712 -0.2948  0.0458  0.4263
14373TIP3    H164534   3.515   3.300   1.766 -0.8091  0.0227 -0.3075
14373TIP3    H264535   3.623   3.214   1.703 -0.8394 -0.0753 -0.2246
14374TIP3   OH264536   0.486   2.350  17.074  1.2411  0.1642  0.1624
14374TIP3    H164537   0.424   2.408  17.031  1.1339  0.1361  0.2792
14374TIP3    H264538   0.543   2.409  17.124  3.3580  0.5183 -2.4467
14375TIP3   OH264539   4.890   3.924   5.333  0.3431  0.1180  0.0092
14375TIP3    H164540   4.804   3.896   5.299  1.3348 -1.8969 -1.0292
14375TIP3    H264541   4.897   4.015   5.306 -0.7879 -0.1592 -1.3789
14376TIP3   OH264542   3.371   5.076  12.894 -0.2857 -0.5236  0.5976
14376TIP3    H164543   3.341   5.036  12.812 -4.0228  0.1093  1.4596
14376TIP3    H264544   3.432   5.145  12.866 -0.9566 -0.7206 -1.5959
14377TIP3   OH264545   0.640   2.231   2.289  0.3237 -0.0875 -0.5614
14377TIP3    H164546   0.681   2.147   2.308  0.0997 -0.1083 -0.1632
14377TIP3    H264547   0.568   2.238   2.352  1.6600  1.3889  0.9030
14378TIP3   OH264548   4.861   1.666   1.157  0.4667  0.0232  0.3923
14378TIP3    H164549   4.804   1.742   1.170  0.7971  0.5287 -0.9051
14378TIP3    H264550   4.912   1.688   1.079  1.7348 -0.8446  0.9461
14379TIP3   OH264551   3.676   5.723   1.203 -0.4047 -0.3097  0.3148
14379TIP3    H164552   3.591   5.758   1.176 -0.1537 -1.4923 -2.4267
14379TIP3    H264553   3.726   5.718   1.121  2.5935  0.9792  1.9392
14380TIP3   OH264554   5.546   0.349  12.129 -0.0023  0.7692  0.3363
14380TIP3    H164555   5.581   0.438  12.135  0.8029  0.4896 -0.1189
14380TIP3    H264556   5.517   0.341  12.038  1.0179  0.1729  0.0537
14381TIP3   OH264557   3.753   2.289  17.268 -0.2462  0.6361 -0.5036
14381TIP3    H164558   3.749   2.233  17.346  0.5272  1.8124  0.4051
14381TIP3    H264559   3.846   2.309  17.257 -0.5398  2.0960 -0.5311
14382TIP3   OH264560   0.904   2.024   1.911  0.1130  0.0489 -0.3207
14382TIP3    H164561   0.881   2.095   1.850 -0.3375 -0.2625 -0.5244
14382TIP3    H264562   0.893   1.944   1.859 -0.2907 -0.2210  0.1702
14383TIP3   OH264563   4.950   3.750   1.805 -0.2809 -0.2786  0.1548
14383TIP3    H164564   5.014   3.691   1.766 -0.0743  0.1100 -0.0950
14383TIP3    H264565   4.866   3.725   1.766  0.2048  1.5327 -2.2412
14384TIP3   OH264566   3.822   5.732  15.539 -0.6872 -0.0540 -0.0371
14384TIP3    H164567   3.756   5.802  15.538  0.0906  0.7152  0.4510
14384TIP3    H264568   3.787   5.667  15.600 -0.7815  0.5683  0.5831
14385TIP3   OH264569   4.493   5.046   5.692  0.1050 -0.1943  0.4720
14385TIP3    H164570   4.532   5.082   5.771  0.3712  0.0981  0.2094
14385TIP3    H264571   4.558   4.983   5.660  0.7794  0.9372 -0.4533
14386TIP3   OH264572   1.178   3.410  14.959  0.2453  0.0177  0.0936
14386TIP3    H164573   1.115   3.338  14.965  0.3969 -0.2501 -1.3608
14386TIP3    H264574   1.258   3.370  14.927  0.3861  0.7894 -0.5590
14387TIP3   OH264575   6.755   1.832   4.236 -0.2183 -0.1771 -0.1554
14387TIP3    H164576   6.693   1.762   4.214 -0.4761  0.3373 -1.1227
14387TIP3    H264577   6.776   1.873   4.152  0.9411  0.0754  0.2420
14388TIP3   OH264578   0.050   5.922  16.826 -0.0313 -0.4074  0.1924
14388TIP3    H164579   0.133   5.943  16.870  0.0641  0.3845 -0.3402
14388TIP3    H264580  -0.011   5.902  16.897  0.9801 -2.4836  0.5606
14389TIP3   OH264581   5.579   1.051  12.477  0.0626  0.2686 -0.3113
14389TIP3    H164582   5.600   1.041  12.384  1.9151 -1.6000  0.2312
14389TIP3    H264583   5.662   1.038  12.522 -1.3261 -2.4173  1.7649
14390TIP3   OH264584   2.748   2.050   1.557 -0.0291 -0.1926 -0.1203
14390TIP3    H164585   2.756   2.093   1.472  1.7833  1.5045  0.8345
14390TIP3    H264586   2.694   2.109   1.609 -0.9578 -1.1247  0.0161
14391TIP3   OH264587   0.591   5.875   2.889  0.2581 -0.3132 -0.1700
14391TIP3    H164588   0.553   5.949   2.841 -1.8572 -2.3609 -1.9109
14391TIP3    H264589   0.617   5.912   2.973 -1.1016  2.3174 -0.7818
14392TIP3   OH264590   6.608   4.870  14.018 -0.5189  0.3434  0.3682
14392TIP3    H164591   6.631   4.800  14.079  1.8486  0.0803 -0.7141
14392TIP3    H264592   6.639   4.950  14.061 -0.2087  0.3321  0.1681
14393TIP3   OH264593   1.419   4.527   2.610 -0.1607  0.1304 -0.1932
14393TIP3    H164594   1.446   4.618   2.628  0.0341  0.6129 -2.5787
14393TIP3    H264595   1.409   4.524   2.515  0.8746 -2.6356 -0.3019
14394TIP3   OH264596   5.758   3.089  11.675 -0.4540  0.6770  0.4919
14394TIP3    H164597   5.851   3.112  11.675 -0.0701 -0.5191  3.3933
14394TIP3    H264598   5.715   3.163  11.717 -0.3609 -0.0176  1.8759
14395TIP3   OH264599   5.255   2.962  13.885  0.7950 -0.1089  0.3449
14395TIP3    H164600   5.171   2.937  13.924 -0.3533 -0.8582 -2.3494
14395TIP3    H264601   5.312   2.886  13.899 -0.6534 -1.8010 -2.1413
14396TIP3   OH264602   6.771   4.054  17.035 -0.0353  0.6372 -0.0326
14396TIP3    H164603   6.849   4.003  17.059  1.4936  1.5582 -2.6532
14396TIP3    H264604   6.778   4.134  17.086  0.1278  0.2736  0.5311
14397TIP3   OH264605   2.013   3.609  12.141 -0.2022  0.4336  0.4186
14397TIP3    H164606   2.099   3.575  12.114 -0.5757  0.0420 -0.3067
14397TIP3    H264607   1.982   3.658  12.065 -0.4676  0.8784  0.8105
14398TIP3   OH264608   5.575   5.742   5.417  0.1377  0.3075 -0.6712
14398TIP3    H164609   5.645   5.807   5.430  1.3432 -1.2693  1.2901
14398TIP3    H264610   5.541   5.761   5.330  2.1766  1.9311 -1.2047
14399TIP3   OH264611   3.940   4.901  16.919 -0.5164 -0.5425 -0.0547
14399TIP3    H164612   3.933   4.809  16.895  0.3359 -0.6319  0.0122
14399TIP3    H264613   4.021   4.907  16.969 -1.0304  0.0840  0.7313
14400TIP3   OH264614   6.432   5.099  17.211 -0.3852  0.2030  0.0677
14400TIP3    H164615   6.505   5.156  17.235 -0.8784  0.5902  0.6867
14400TIP3    H264616   6.458   5.061  17.127  0.7829 -0.1287  0.5584
14401TIP3   OH264617   5.109   5.625  15.106  0.3172 -0.1464  0.5451
14401TIP3    H164618   5.075   5.599  15.192 -2.4486 -1.4301 -0.8249
14401TIP3    H264619   5.040   5.601  15.044  2.7617 -0.5731 -2.2418
14402TIP3   OH264620   1.471   3.351  11.941  0.6999  0.3543  0.6801
14402TIP3    H164621   1.450   3.357  11.848 -1.0325  1.8177  1.1142
14402TIP3    H264622   1.524   3.429  11.959  1.3540 -0.1206  0.8705
14403TIP3   OH264623   6.339   2.518  17.056  0.4471  0.9361 -0.5811
14403TIP3    H164624   6.348   2.488  17.147  3.7367  0.1161 -1.0505
14403TIP3    H264625   6.342   2.438  17.004  0.0584  1.4895 -1.4779
14404TIP3   OH264626   1.468   5.999  15.951  0.1687  0.4423  0.1462
14404TIP3    H164627   1.442   6.072  15.895  1.7039  0.8779 -0.0375
14404TIP3    H264628   1.429   5.922  15.911 -1.2331  1.1056  0.1793
14405TIP3   OH264629   6.669   3.876  16.337  0.0472 -0.0785 -1.0164
14405TIP3    H164630   6.647   3.804  16.396  2.2397 -1.1619 -1.3942
14405TIP3    H264631   6.628   3.953  16.376 -1.7756 -1.3820 -0.2129
14406TIP3   OH264632   4.761   5.177   2.945 -0.4199 -0.4195 -0.4415
14406TIP3    H164633   4.833   5.217   2.994 -0.7501  0.7930 -0.9166
14406TIP3    H264634   4.682   5.211   2.986 -0.7303 -1.1671 -0.3982
14407TIP3   OH264635   6.441   4.594   4.545 -0.0717 -0.1417  0.0268
14407TIP3    H164636   6.433   4.506   4.508  1.1029 -1.2164  2.0823
14407TIP3    H264637   6.408   4.585   4.635 -0.3379  1.6446  0.1489
14408TIP3   OH264638   3.341   4.988  13.771  0.3077 -0.2885  0.2668
14408TIP3    H164639   3.419   5.010  13.823  0.6510 -0.4893 -0.1533
14408TIP3    H264640   3.278   5.057  13.792  1.3970  1.2303 -1.0935
14409TIP3   OH264641   1.802   4.843   1.417 -0.0988 -0.0829  0.6966
14409TIP3    H164642   1.762   4.839   1.504 -0.5155 -0.5506  0.4870
14409TIP3    H264643   1.766   4.768   1.370 -0.8158  0.8436 -0.2815
14410TIP3   OH264644   5.946   0.927   5.360  0.3651  0.0361  0.6236
14410TIP3    H164645   5.865   0.969   5.391  0.5687  0.2589  0.8585
14410TIP3    H264646   5.924   0.894   5.273  0.2765  0.8746  0.3183
14411TIP3   OH264647   0.962   0.051   1.440 -0.0513  0.3864  0.2674
14411TIP3    H164648   0.882   0.074   1.393  0.0162 -1.1107 -0.6410
14411TIP3    H264649   1.012  -0.002   1.379  1.8817  1.6405  0.6475
14412TIP3   OH264650   4.318   4.233  14.277  0.2693 -0.1445 -0.2058
14412TIP3    H164651   4.310   4.327  14.293  1.1239 -0.1897  0.5565
14412TIP3    H264652   4.404   4.210  14.312  0.6220 -0.9731 -1.5534
14413TIP3   OH264653   3.925   0.957   2.124 -0.5002 -0.5059 -0.2341
14413TIP3    H164654   3.951   1.021   2.058 -0.8328  1.1008  1.1351
14413TIP3    H264655   3.885   0.886   2.073  0.5696 -0.0058 -1.8535
14414TIP3   OH264656   6.227   4.337  10.985 -0.5953 -0.0259  0.4256
14414TIP3    H164657   6.323   4.335  10.984 -0.5537 -0.5810 -2.1679
14414TIP3    H264658   6.201   4.246  10.999 -0.8973  0.4814  4.1400
14415TIP3   OH264659   5.297   3.488   0.483 -0.0850  0.6248  0.2645
14415TIP3    H164660   5.213   3.464   0.522 -0.4918 -0.0188 -0.9564
14415TIP3    H264661   5.282   3.484   0.389  0.7598  2.5162  0.0048
14416TIP3   OH264662   5.307   0.087   1.367  0.0096  0.0765 -0.0051
14416TIP3    H164663   5.340   0.095   1.278 -2.9373  1.3443 -1.1179
14416TIP3    H264664   5.328   0.171   1.408  1.0925 -0.3909  0.4194
14417TIP3   OH264665   3.055   2.609  13.154  0.0396  0.5623  0.0825
14417TIP3    H164666   3.034   2.561  13.234  0.8258  0.1118  0.0315
14417TIP3    H264667   3.088   2.694  13.185  0.1986  0.4466  0.2345
14418TIP3   OH264668   2.937   4.377  10.688 -0.0158  0.1624  0.1923
14418TIP3    H164669   2.904   4.448  10.743 -1.1636  0.1908 -0.5034
14418TIP3    H264670   2.972   4.420  10.611  0.3365  0.0427  0.2859
14419TIP3   OH264671   1.222   2.955   2.584  0.4289 -0.2357  0.8977
14419TIP3    H164672   1.290   2.888   2.588 -0.2922 -1.4209 -2.9858
14419TIP3    H264673   1.269   3.035   2.560  0.7773 -0.3721  1.1140
14420TIP3   OH264674   6.344   1.231   4.844 -0.1347 -0.9125  0.0195
14420TIP3    H164675   6.423   1.238   4.789 -1.9018  0.8043 -2.5632
14420TIP3    H264676   6.341   1.313   4.892  0.7244 -1.8941  1.8739
14421TIP3   OH264677   2.697   0.896  17.239 -0.3785  0.8232 -0.2943
14421TIP3    H164678   2.792   0.891  17.241 -0.2953  2.1759  1.1073
14421TIP3    H264679   2.668   0.832  17.304 -0.3717  0.9993 -0.1138
14422TIP3   OH264680   4.772   6.402  11.345 -0.3634 -0.1249  0.8980
14422TIP3    H164681   4.833   6.352  11.291 -1.6522 -0.6643 -0.1101
14422TIP3    H264682   4.825   6.473  11.380  0.8875 -0.6725  0.2088
14423TIP3   OH264683   4.666   1.235  16.069 -0.6301  0.3517  0.3410
14423TIP3    H164684   4.695   1.144  16.075 -0.8373  0.1882 -0.9031
14423TIP3    H264685   4.737   1.280  16.024 -0.7613  0.7029  0.4818
14424TIP3   OH264686   5.672   5.368   1.467  0.0204 -0.4638 -0.1853
14424TIP3    H164687   5.750   5.340   1.515  2.0891  2.9924 -1.1645
14424TIP3    H264688   5.665   5.306   1.395  2.7582 -0.1619 -0.8244
14425TIP3   OH264689   1.544   4.431   3.015  0.3232  0.5011 -0.2151
14425TIP3    H164690   1.636   4.458   3.024 -0.1453  1.9604  0.6388
14425TIP3    H264691   1.506   4.497   2.957  0.1050 -0.8864 -1.6881
14426TIP3   OH264692   0.327   1.636  15.529 -0.1779 -0.5754  0.5721
14426TIP3    H164693   0.254   1.678  15.573  0.9389  1.9221  0.1974
14426TIP3    H264694   0.373   1.707  15.485  2.4483 -2.0309  0.7431
14427TIP3   OH264695   3.450   2.941   1.381  0.2666 -0.3350  0.8238
14427TIP3    H164696   3.497   2.881   1.439  0.5405 -0.5129  0.4274
14427TIP3    H264697   3.481   3.028   1.407 -0.1995 -0.3565  1.4594
14428TIP3   OH264698   3.756   1.269  14.895  0.1695 -0.1868 -0.4440
14428TIP3    H164699   3.665   1.241  14.897  0.2972 -0.5633  0.7372
14428TIP3    H264700   3.776   1.278  14.801 -0.7407 -1.1683 -0.7563
14429TIP3   OH264701   0.281   1.295   3.798 -0.0057 -0.1927 -0.2262
14429TIP3    H164702   0.238   1.296   3.883  0.8003 -0.6727  0.1972
14429TIP3    H264703   0.357   1.239   3.810 -0.4934 -1.2058 -1.5651
14430TIP3   OH264704   0.926   3.265  13.190 -0.0626 -0.1074 -0.5539
14430TIP3    H164705   0.980   3.337  13.222 -1.9010  1.2002 -0.2287
14430TIP3    H264706   0.847   3.268  13.245 -0.9667 -1.2146 -1.7373
14431TIP3   OH264707   2.353   3.730  11.324  0.0302 -0.6641  0.1061
14431TIP3    H164708   2.400   3.732  11.241 -1.1647  1.0656 -0.5718
14431TIP3    H264709   2.326   3.638  11.334 -1.6142 -0.5522 -2.4927
14432TIP3   OH264710   2.481   2.424   0.895 -0.1634  0.0638  0.0045
14432TIP3    H164711   2.495   2.412   0.801  2.0021  0.9731  0.1563
14432TIP3    H264712   2.387   2.436   0.904 -0.3608  0.4233 -2.0990
14433TIP3   OH264713   1.527   0.132  12.819 -0.1648  0.8321  0.1324
14433TIP3    H164714   1.573   0.213  12.800 -1.1971  1.5038  0.4510
14433TIP3    H264715   1.563   0.104  12.904  1.4881 -0.0259 -0.7944
14434TIP3   OH264716   0.178   4.081  13.684  0.5523 -0.1869  0.3131
14434TIP3    H164717   0.141   4.141  13.619 -0.4495 -0.1790  0.8639
14434TIP3    H264718   0.253   4.128  13.721  1.6642 -0.5342 -1.4088
14435TIP3   OH264719   2.480   3.932  16.333 -0.4993  0.0329  0.0918
14435TIP3    H164720   2.484   4.023  16.303 -0.0555  0.2073  0.6756
14435TIP3    H264721   2.547   3.887  16.282  0.4070  0.3754  0.9536
14436TIP3   OH264722   3.719   4.230   5.633 -0.0883 -0.1968  0.7404
14436TIP3    H164723   3.726   4.187   5.718  0.6781 -1.3707  0.1124
14436TIP3    H264724   3.809   4.256   5.612 -0.3832  0.7372  0.6152
14437TIP3   OH264725   6.124   0.948   0.828 -0.0405 -0.3482 -0.5156
14437TIP3    H164726   6.135   0.874   0.769  0.3047 -0.1124 -0.7531
14437TIP3    H264727   6.040   0.987   0.803  0.8149  0.6925 -1.9298
14438TIP3   OH264728   1.818   3.702  13.072 -0.0644 -0.5712 -0.0134
14438TIP3    H164729   1.748   3.766  13.062 -1.4809 -2.1469 -0.5281
14438TIP3    H264730   1.868   3.708  12.990  0.3030  0.3905  0.2627
14439TIP3   OH264731   5.636   3.636  14.326 -0.0944  0.1073  0.0651
14439TIP3    H164732   5.695   3.662  14.255 -1.4382 -1.0242 -1.5344
14439TIP3    H264733   5.678   3.559  14.364  0.4604  0.5140  0.2966
14440TIP3   OH264734   3.764   4.414   1.787  0.3320  0.7819 -0.3446
14440TIP3    H164735   3.707   4.491   1.793  0.4130  0.7317  3.7639
14440TIP3    H264736   3.852   4.450   1.774  0.1443  1.2572 -0.3068
14441TIP3   OH264737   3.832   0.288  13.032 -0.0383  0.1417  0.1236
14441TIP3    H164738   3.858   0.374  13.062 -2.2682  2.3725 -3.5798
14441TIP3    H264739   3.867   0.281  12.943 -2.0173 -1.6623 -0.6087
14442TIP3   OH264740   2.191   5.629   4.514 -0.8239  0.0414 -0.6436
14442TIP3    H164741   2.172   5.620   4.607  1.0507 -1.1785 -0.3166
14442TIP3    H264742   2.233   5.546   4.490  2.1970  1.7032 -1.6269
14443TIP3   OH264743   4.352   1.779  13.582  0.1388  0.3502  0.1425
14443TIP3    H164744   4.293   1.728  13.526 -1.6042 -0.6473  2.6910
14443TIP3    H264745   4.295   1.818  13.648  1.9900  2.1595  0.7802
14444TIP3   OH264746   1.983   2.776  16.421 -0.0735 -0.1279 -0.0876
14444TIP3    H164747   2.075   2.802  16.418 -0.3291  0.8191 -0.1045
14444TIP3    H264748   1.984   2.680  16.419  0.8352 -0.1003 -1.9306
14445TIP3   OH264749   2.297   3.380   1.342 -0.2020 -0.6695  0.5005
14445TIP3    H164750   2.298   3.475   1.338 -2.7200 -0.5038  1.6715
14445TIP3    H264751   2.293   3.360   1.436  2.7231 -2.0826  0.4332
14446TIP3   OH264752   2.022   1.426   0.421 -0.4806 -0.6383 -0.1169
14446TIP3    H164753   2.036   1.358   0.356 -0.0227  2.0800 -3.0704
14446TIP3    H264754   2.110   1.453   0.447 -0.6363 -0.1327 -0.1096
14447TIP3   OH264755   0.249   0.437  11.549  0.8939 -0.3345  0.7444
14447TIP3    H164756   0.179   0.501  11.559 -0.2834 -1.5827  0.7724
14447TIP3    H264757   0.259   0.397  11.636  0.9931 -0.8140  0.5183
14448TIP3   OH264758   4.638   0.453  14.455 -0.5367 -0.0368  0.3772
14448TIP3    H164759   4.675   0.504  14.527  1.0531  1.6730 -1.5169
14448TIP3    H264760   4.625   0.516  14.385 -3.2409 -1.4029 -0.4768
14449TIP3   OH264761   6.051   6.204  13.538  0.8864  0.0176  0.6841
14449TIP3    H164762   5.961   6.189  13.509  1.4957 -0.2548 -1.1861
14449TIP3    H264763   6.054   6.298  13.558  0.1059 -0.0378  1.0846
14450TIP3   OH264764   2.599   4.960   4.937  0.8465 -0.0967  0.2392
14450TIP3    H164765   2.691   4.947   4.918  0.7510 -0.8654  0.2687
14450TIP3    H264766   2.554   4.929   4.858  0.6705  1.8687 -0.4780
14451TIP3   OH264767   3.798   1.875  12.407  0.2811 -0.4350  0.0749
14451TIP3    H164768   3.832   1.787  12.418 -0.1671 -0.6345 -0.1006
14451TIP3    H264769   3.713   1.863  12.365 -0.6832 -0.0432  1.8096
14452TIP3   OH264770   2.401   0.708   2.587  0.1953  0.0741  0.1906
14452TIP3    H164771   2.399   0.675   2.677  0.1296  0.2154  0.2412
14452TIP3    H264772   2.481   0.761   2.582  1.8755 -2.3798 -0.7080
14453TIP3   OH264773   1.311   2.708   0.182 -0.0221 -0.2727 -0.2635
14453TIP3    H164774   1.260   2.777   0.225  0.6784  1.0007 -1.3770
14453TIP3    H264775   1.398   2.716   0.219 -0.6396 -2.7647  1.9876
14454TIP3   OH264776   4.891   4.680   4.153  0.3467 -0.0536  0.2919
14454TIP3    H164777   4.852   4.602   4.114  0.2257 -1.0345  2.2267
14454TIP3    H264778   4.977   4.651   4.183  0.3100  0.5367  1.0197
14455TIP3   OH264779   4.863   2.053  16.680  0.0330  0.2116  0.4536
14455TIP3    H164780   4.843   1.962  16.702 -2.0840  0.7267  0.8576
14455TIP3    H264781   4.886   2.050  16.587  0.8837 -0.8276  0.6653
14456TIP3   OH264782   3.115   6.657   3.403  0.5668 -0.1723 -0.0847
14456TIP3    H164783   3.183   6.598   3.437  0.2141 -0.9889 -0.7717
14456TIP3    H264784   3.035   6.604   3.405  0.1734  0.4064 -0.3861
14457TIP3   OH264785   1.846   4.839   4.319 -0.1443 -0.2362 -0.0318
14457TIP3    H164786   1.761   4.824   4.361 -0.1131 -0.7720 -0.1599
14457TIP3    H264787   1.839   4.797   4.234  1.1554 -2.6569  0.9617
14458TIP3   OH264788   6.321   2.167   4.039  0.1472  0.1684 -0.4049
14458TIP3    H164789   6.320   2.129   3.951  0.0566 -0.6479 -0.0560
14458TIP3    H264790   6.231   2.198   4.053  0.5535  1.8268 -1.2386
14459TIP3   OH264791   1.975   2.405  14.089 -0.0496 -0.4698  0.4744
14459TIP3    H164792   1.952   2.321  14.127 -0.3575 -0.5240  0.1668
14459TIP3    H264793   1.930   2.407  14.005  1.9119 -1.0511 -0.6444
14460TIP3   OH264794   4.148   2.532   0.033  0.2199 -0.3811  0.0140
14460TIP3    H164795   4.235   2.544  -0.006  0.3827 -1.1123  0.1371
14460TIP3    H264796   4.159   2.458   0.092 -0.8741 -1.5452 -1.1943
14461TIP3   OH264797   6.545   2.747   0.923  0.4574  0.0482  0.5685
14461TIP3    H164798   6.550   2.655   0.896  0.1310  0.2545 -0.2266
14461TIP3    H264799   6.574   2.796   0.846 -1.7929  0.7175  0.0887
14462TIP3   OH264800   3.878   1.063   1.553  0.6204 -0.4826 -0.3124
14462TIP3    H164801   3.947   1.029   1.610 -0.0120 -1.1767  0.0548
14462TIP3    H264802   3.844   0.985   1.508 -0.1928 -0.2123 -0.1863
14463TIP3   OH264803   4.656   1.638   4.113  0.4012 -0.3134  0.2844
14463TIP3    H164804   4.677   1.572   4.047 -0.7594 -0.3273 -0.0954
14463TIP3    H264805   4.629   1.588   4.190  0.6666 -0.2885  0.3943
14464TIP3   OH264806   4.513   1.138  14.452  0.0887  0.1141  0.0376
14464TIP3    H164807   4.584   1.178  14.502  0.4756 -2.4505  1.6962
14464TIP3    H264808   4.529   1.044  14.457 -1.7161 -0.4148 -2.2142
14465TIP3   OH264809   3.605   4.429   3.536 -0.1461  0.1193 -0.0508
14465TIP3    H164810   3.696   4.413   3.510 -0.4054 -0.4278 -0.6527
14465TIP3    H264811   3.594   4.375   3.614 -0.2803 -0.7328 -0.6412
14466TIP3   OH264812   0.684   0.418   4.390 -0.3928  0.0427 -0.1578
14466TIP3    H164813   0.718   0.436   4.478 -0.0048  2.0596 -0.6619
14466TIP3    H264814   0.761   0.391   4.340 -0.6402 -1.2553  0.1328
14467TIP3   OH264815   3.535   1.445  13.796  0.2531 -0.6214  0.2903
14467TIP3    H164816   3.623   1.478  13.818 -0.2750  1.1122 -0.0761
14467TIP3    H264817   3.475   1.511  13.832 -0.8719 -1.2908 -0.3095
14468TIP3   OH264818   6.667   5.672   6.104  0.0613  0.4479 -0.3230
14468TIP3    H164819   6.584   5.716   6.116  0.1147  0.2616  0.7892
14468TIP3    H264820   6.647   5.579   6.115  0.4435  0.4155  0.1491
14469TIP3   OH264821   6.117   5.837  15.200  0.7625  0.2637  0.5540
14469TIP3    H164822   6.041   5.856  15.255  0.0511 -1.3261  0.1521
14469TIP3    H264823   6.084   5.844  15.110  0.9952 -0.7544  0.3808
14470TIP3   OH264824   5.420   3.187  17.285 -0.3520 -0.1303  0.1091
14470TIP3    H164825   5.486   3.214  17.220  0.0455 -0.0657  0.5364
14470TIP3    H264826   5.457   3.110  17.326 -1.0756 -0.7986 -0.4549
14471TIP3   OH264827   4.658   4.397  15.701  0.1745 -0.3124 -0.0884
14471TIP3    H164828   4.612   4.369  15.780 -0.1151 -1.5218 -0.6594
14471TIP3    H264829   4.680   4.315  15.656 -0.3912  0.3622 -1.6745
14472TIP3   OH264830   3.495   3.248   0.917  0.0037 -0.2391 -0.1194
14472TIP3    H164831   3.422   3.268   0.857 -1.7166  0.7048  2.1371
14472TIP3    H264832   3.483   3.156   0.939  1.1905 -0.8497 -1.8467
14473TIP3   OH264833   2.542   4.095  13.715  0.7157  0.6898 -0.5335
14473TIP3    H164834   2.561   4.026  13.779 -1.3998 -0.8423 -1.4090
14473TIP3    H264835   2.562   4.055  13.630  0.8603  1.6941 -0.9853
14474TIP3   OH264836   6.059   5.647  16.245  0.0622  0.0702 -0.0948
14474TIP3    H164837   5.975   5.648  16.291  0.7538 -0.3566  1.2479
14474TIP3    H264838   6.087   5.738  16.243  0.4912 -0.0057  1.2863
14475TIP3   OH264839   4.627   2.405   5.211  0.0503  0.7695  0.2839
14475TIP3    H164840   4.674   2.395   5.128  0.5308  2.4857  0.3202
14475TIP3    H264841   4.695   2.404   5.278 -0.3834 -1.2651  0.7831
14476TIP3   OH264842   0.402   1.124  11.234  0.1112  0.0312 -0.0075
14476TIP3    H164843   0.495   1.106  11.248 -0.1772 -1.2680  0.3200
14476TIP3    H264844   0.381   1.079  11.152 -0.5549 -0.9178  0.6673
14477TIP3   OH264845   0.937   3.779   1.199  0.0683 -0.4119  0.0818
14477TIP3    H164846   0.926   3.714   1.130 -1.6711 -0.2041  0.1132
14477TIP3    H264847   0.923   3.730   1.280 -1.2500 -0.0536  0.1056
14478TIP3   OH264848   5.124   2.691   0.867  0.2766 -0.0275 -0.1325
14478TIP3    H164849   5.033   2.699   0.895  0.3700 -0.5796  0.3569
14478TIP3    H264850   5.120   2.695   0.772 -0.2010  0.4575 -0.1038
14479TIP3   OH264851   0.842   6.430  15.367 -0.2317  0.1975  0.1841
14479TIP3    H164852   0.795   6.513  15.362  1.0892  0.9139 -1.1446
14479TIP3    H264853   0.777   6.363  15.347 -1.4710  0.8105  1.8965
14480TIP3   OH264854   1.365   1.678   4.331 -0.3017  0.1806  0.2094
14480TIP3    H164855   1.409   1.759   4.308  0.8153 -0.2911  0.6060
14480TIP3    H264856   1.345   1.636   4.247 -1.8385  1.3143 -0.0459
14481TIP3   OH264857   4.402   3.925  13.032  0.0254  0.6353 -0.1220
14481TIP3    H164858   4.379   3.834  13.054 -2.3703  1.6443  2.0880
14481TIP3    H264859   4.335   3.951  12.968  0.2835  1.0439 -0.2257
14482TIP3   OH264860   5.424   6.498  11.114 -0.2977  0.0116 -0.6265
14482TIP3    H164861   5.507   6.510  11.070 -0.4278  0.8676 -0.6602
14482TIP3    H264862   5.392   6.413  11.083  1.5191 -1.3466  0.9765
14483TIP3   OH264863   0.943   2.867   3.069 -0.6266 -0.2565 -0.0611
14483TIP3    H164864   0.959   2.831   2.982  1.8306  0.1537  0.1418
14483TIP3    H264865   1.030   2.874   3.108 -1.6661 -0.6124  2.5184
14484TIP3   OH264866   4.803   4.198   5.076 -0.2153 -0.3168  0.1779
14484TIP3    H164867   4.723   4.227   5.032 -0.2361  0.1861  0.5430
14484TIP3    H264868   4.807   4.251   5.155  0.7688  0.0368 -0.0992
14485TIP3   OH264869   3.116   0.026  17.080  0.1736  0.6849 -0.2508
14485TIP3    H164870   3.068  -0.054  17.102  0.6100  0.0296 -1.6075
14485TIP3    H264871   3.066   0.065  17.009  0.4631  1.1409 -0.2042
14486TIP3   OH264872   3.172   5.920   2.688 -0.8411 -0.3522  0.1482
14486TIP3    H164873   3.188   5.887   2.776  0.1159  0.0355  0.1422
14486TIP3    H264874   3.089   5.882   2.662 -0.4823 -1.5568  0.6989
14487TIP3   OH264875   4.643   6.103  15.045  0.0003  0.7481 -0.6012
14487TIP3    H164876   4.611   6.192  15.032  0.0829  1.1480  1.6307
14487TIP3    H264877   4.730   6.103  15.005  1.7079  2.9340  2.6436
14488TIP3   OH264878   0.789   1.476   0.663  0.0537 -0.2413  0.2525
14488TIP3    H164879   0.752   1.485   0.575  1.0582  0.1670 -0.1501
14488TIP3    H264880   0.829   1.389   0.663 -0.9577 -0.7234  0.7209
14489TIP3   OH264881   6.288   0.424   3.688 -0.5542  0.5465  0.5159
14489TIP3    H164882   6.260   0.333   3.675  1.9341 -0.0143 -1.6739
14489TIP3    H264883   6.313   0.428   3.781  2.1092 -1.9471  0.0455
14490TIP3   OH264884   4.868   5.901  16.693 -0.7418 -0.5600  0.7909
14490TIP3    H164885   4.848   5.808  16.702  2.4279 -1.4825 -0.3773
14490TIP3    H264886   4.917   5.922  16.773  1.9124 -1.0327 -0.5929
14491TIP3   OH264887   4.462   0.499   3.098 -0.2302  0.1361 -0.1646
14491TIP3    H164888   4.553   0.471   3.092  0.1723  1.3922 -0.0040
14491TIP3    H264889   4.435   0.475   3.187  0.9645  2.6564  0.9839
14492TIP3   OH264890   1.761   4.694  13.715  0.5077  0.5349  0.2020
14492TIP3    H164891   1.805   4.724  13.794 -0.2685 -0.0349  0.8644
14492TIP3    H264892   1.732   4.605  13.735  0.6993  0.2051 -0.8865
14493TIP3   OH264893   0.853   6.701   2.457  0.1466  0.4616 -0.2604
14493TIP3    H164894   0.781   6.732   2.402  1.2085 -1.9496 -3.3032
14493TIP3    H264895   0.932   6.728   2.410  1.1783  0.0457  1.1678
14494TIP3   OH264896   5.319   0.202  17.174  0.1533 -0.5941  0.6763
14494TIP3    H164897   5.301   0.295  17.183  2.5480 -0.0348  0.3684
14494TIP3    H264898   5.359   0.177  17.258 -0.2157 -1.2842  0.6523
14495TIP3   OH264899   6.245   6.438  13.792 -0.0610  0.3416 -0.1956
14495TIP3    H164900   6.187   6.424  13.867 -0.0788 -1.3954 -0.4924
14495TIP3    H264901   6.276   6.351  13.769  2.5737  1.1916 -0.1691
14496TIP3   OH264902   1.136   2.513   3.123  0.3374 -0.4056  0.3600
14496TIP3    H164903   1.045   2.512   3.093  0.5716  1.6012 -0.5419
14496TIP3    H264904   1.131   2.487   3.215 -1.2141  0.2122  0.4843
14497TIP3   OH264905   4.519   5.837  16.757 -0.9994 -0.3846 -0.1751
14497TIP3    H164906   4.608   5.809  16.735 -1.0381 -0.5821 -0.0907
14497TIP3    H264907   4.469   5.755  16.761 -0.7859 -0.4527  1.5948
14498TIP3   OH264908   0.401   3.877   6.591  0.1887  0.4498  0.1049
14498TIP3    H164909   0.361   3.960   6.563  1.2040  0.7051 -0.6407
14498TIP3    H264910   0.328   3.816   6.595 -0.2028  0.6707 -2.0995
14499TIP3   OH264911   0.523   5.684  14.771 -0.3036 -0.2200  0.4548
14499TIP3    H164912   0.482   5.731  14.699 -1.2161 -0.0092  1.1054
14499TIP3    H264913   0.461   5.689  14.843  0.2985 -1.0102  1.0577
14500TIP3   OH264914   2.873   0.353   4.443  0.1486  0.1141  0.0658
14500TIP3    H164915   2.885   0.446   4.424  0.2326  0.0412 -0.2562
14500TIP3    H264916   2.866   0.312   4.356 -4.0621  0.3084  0.1265
14501TIP3   OH264917   6.151   1.381   0.750 -0.2864 -0.0188 -0.1337
14501TIP3    H164918   6.072   1.379   0.803  0.7988  1.3320  1.6832
14501TIP3    H264919   6.137   1.454   0.689  0.0772  1.1725  1.1526
14502TIP3   OH264920   4.451   3.572   5.893 -0.0575 -0.6825 -0.3688
14502TIP3    H164921   4.545   3.552   5.897  1.0075  3.5519  1.1821
14502TIP3    H264922   4.442   3.630   5.818 -0.8808  0.9709  0.9504
14503TIP3   OH264923   0.696   5.736  11.925  0.0030 -0.2314 -0.5929
14503TIP3    H164924   0.652   5.661  11.886  0.5729 -0.0342 -1.6517
14503TIP3    H264925   0.698   5.717  12.019  1.6511 -2.3500 -0.9996
14504TIP3   OH264926   6.027   4.007   3.947 -0.3923 -0.3224 -0.2175
14504TIP3    H164927   6.119   4.025   3.963  0.1008  0.0008 -2.9504
14504TIP3    H264928   6.021   3.911   3.949  0.0568 -0.3542 -0.2524
14505TIP3   OH264929   3.059   1.419   1.186 -0.2049  0.1082 -0.1533
14505TIP3    H164930   3.148   1.398   1.217  0.9440  2.0477 -1.8946
14505TIP3    H264931   3.066   1.508   1.151 -2.4353 -0.3029 -1.8743
14506TIP3   OH264932   4.772   3.613   3.752  0.0700 -0.1226  0.4308
14506TIP3    H164933   4.854   3.655   3.729  0.5265 -1.9826 -1.7253
14506TIP3    H264934   4.713   3.634   3.679 -1.1125  0.4313  1.5028
14507TIP3   OH264935   1.480   3.691  15.608  0.2581 -0.4095 -0.4614
14507TIP3    H164936   1.486   3.709  15.514 -0.1081 -2.8403 -1.0382
14507TIP3    H264937   1.449   3.600  15.612  1.2899 -0.7141  2.0079
14508TIP3   OH264938   3.568   3.346  16.027 -0.0814 -0.0205 -0.5251
14508TIP3    H164939   3.583   3.392  15.944 -1.4506 -0.8669 -1.2750
14508TIP3    H264940   3.486   3.382  16.060  0.5620  0.4642  0.5964
14509TIP3   OH264941   0.282   2.562  14.134  0.0137  0.3679  0.5003
14509TIP3    H164942   0.313   2.516  14.056  0.5031 -1.1576  1.5660
14509TIP3    H264943   0.356   2.616  14.160 -0.5712  1.8760 -0.7648
14510TIP3   OH264944   4.925   4.998   1.510 -0.5727  0.4938  0.2779
14510TIP3    H164945   4.861   5.068   1.520 -1.0425  0.0345  0.4843
14510TIP3    H264946   4.881   4.919   1.541  0.1228  0.1881  0.5182
14511TIP3   OH264947   4.232   3.750  11.972 -0.3833 -0.2255 -0.5800
14511TIP3    H164948   4.292   3.821  11.996 -0.4579 -0.8961  1.8535
14511TIP3    H264949   4.281   3.670  11.990 -1.9176 -0.7875  1.5151
14512TIP3   OH264950   3.154   3.176   5.121 -0.6563  0.0075  0.1252
14512TIP3    H164951   3.114   3.095   5.089  0.1700  0.2794 -1.7599
14512TIP3    H264952   3.082   3.238   5.129 -1.2720 -0.8275  1.4169
14513TIP3   OH264953   1.905   4.485  15.506 -0.1307  0.3449 -0.5321
14513TIP3    H164954   1.887   4.445  15.591 -0.1176  1.6655  0.1141
14513TIP3    H264955   1.897   4.412  15.443  1.1008 -0.9189  0.7044
14514TIP3   OH264956   0.810   1.483   5.355 -0.4483  0.7351 -0.2605
14514TIP3    H164957   0.904   1.503   5.352 -0.5698  1.6981  1.2859
14514TIP3    H264958   0.807   1.389   5.370  0.2123  0.3216 -2.3903
14515TIP3   OH264959   4.639   1.286  14.154 -0.2983 -0.4037  0.1669
14515TIP3    H164960   4.637   1.203  14.202  0.6013  0.2881  1.4623
14515TIP3    H264961   4.579   1.343  14.202  0.7887  0.3712  0.6475
14516TIP3   OH264962   5.437   4.699  13.480 -0.2132  0.2758  0.3002
14516TIP3    H164963   5.415   4.625  13.424  2.0818  0.3577 -0.8395
14516TIP3    H264964   5.421   4.668  13.569  0.3022 -1.4409 -0.1676
14517TIP3   OH264965   6.504   1.864   0.250  0.0430 -0.2392 -0.1950
14517TIP3    H164966   6.506   1.817   0.166 -0.0418 -2.3593  0.9279
14517TIP3    H264967   6.592   1.899   0.259 -0.0716  0.4172 -1.3622
14518TIP3   OH264968   6.194   0.392  12.594  0.9036  0.3902  0.1001
14518TIP3    H164969   6.166   0.385  12.685 -0.2596  0.0853 -0.2754
14518TIP3    H264970   6.229   0.305  12.574 -0.7117 -0.1943 -0.3367
14519TIP3   OH264971   1.274   5.535  15.678  0.0262 -0.0255 -0.6864
14519TIP3    H164972   1.207   5.525  15.745 -0.4282  0.6005 -1.0356
14519TIP3    H264973   1.321   5.615  15.702  1.0317 -0.7530 -0.1309
14520TIP3   OH264974   3.928   5.026  14.991  0.2986  0.1879 -0.3123
14520TIP3    H164975   3.964   5.010  14.904  1.9801 -0.3272  0.4407
14520TIP3    H264976   3.959   5.114  15.014 -1.0403  0.7717 -0.6361
14521TIP3   OH264977   6.337   2.090   1.345  0.4541  0.0854 -0.1463
14521TIP3    H164978   6.394   2.146   1.292  1.0368  0.5560  0.9597
14521TIP3    H264979   6.365   2.001   1.323 -0.2742  0.2035 -1.6815
14522TIP3   OH264980   3.434   0.278  14.999  0.3090  0.6484  0.4711
14522TIP3    H164981   3.474   0.266  15.085  1.2088 -1.8533 -0.2032
14522TIP3    H264982   3.369   0.209  14.993  0.9871  0.0987 -1.2177
14523TIP3   OH264983   6.672   5.719  14.917  0.8849  0.6230  0.3314
14523TIP3    H164984   6.719   5.753  14.840  0.7573 -0.5961 -0.3013
14523TIP3    H264985   6.630   5.797  14.955 -0.8736  1.0004 -2.0986
14524TIP3   OH264986   0.460   5.535   5.063  0.1551 -0.2660  0.1011
14524TIP3    H164987   0.428   5.609   5.114  1.6564  0.9067 -0.5696
14524TIP3    H264988   0.383   5.502   5.017 -0.3701  1.5438 -0.3901
14525TIP3   OH264989   3.581   5.596   4.091  0.2827  0.4803  0.6539
14525TIP3    H164990   3.522   5.658   4.135  0.4273 -0.2330  1.8957
14525TIP3    H264991   3.538   5.511   4.102  0.7499  0.1724  0.1317
14526TIP3   OH264992   3.487   4.875   5.888  0.4206 -0.1672  0.3350
14526TIP3    H164993   3.532   4.949   5.848 -2.1574  1.1487 -0.4166
14526TIP3    H264994   3.447   4.912   5.967 -0.7224 -0.7913  0.0687
14527TIP3   OH264995   4.899   5.745  14.027  0.3047 -0.4534 -0.2822
14527TIP3    H164996   4.865   5.658  14.003 -1.1460 -0.2077  0.7590
14527TIP3    H264997   4.853   5.767  14.107 -0.0567  1.6883 -1.0225
14528TIP3   OH264998   4.656   6.497  13.581 -0.3164  0.5271 -0.2684
14528TIP3    H164999   4.655   6.481  13.487  0.7175  2.1181 -0.5719
14528TIP3    H265000   4.743   6.470  13.609 -0.1765  1.2605  0.0082
14529TIP3   OH265001   2.394   0.907   4.748 -0.3077  0.1252  0.1492
14529TIP3    H165002   2.316   0.961   4.756 -1.3525 -1.5424  2.3201
14529TIP3    H265003   2.363   0.818   4.760  1.7024 -0.7753 -0.8030
14530TIP3   OH265004   5.967   1.385   4.503  0.5873 -0.8487  0.6082
14530TIP3    H165005   6.033   1.447   4.534 -1.6230  1.1982  1.5235
14530TIP3    H265006   5.922   1.429   4.431 -0.5681 -1.6612  0.7834
14531TIP3   OH265007   5.597   3.215  14.794 -0.1312 -0.1615 -0.2627
14531TIP3    H165008   5.533   3.146  14.776 -0.8797  0.6316 -0.6820
14531TIP3    H265009   5.549   3.281  14.843  1.2167 -1.0653  2.5143
14532TIP3   OH265010   0.001   4.998  16.680 -0.5189 -0.3048 -0.4739
14532TIP3    H165011   0.005   5.002  16.775  0.2459  3.5833 -0.5027
14532TIP3    H265012  -0.091   5.012  16.659 -0.7652 -1.6199 -0.3635
14533TIP3   OH265013   4.405   6.653   0.404  0.1921 -0.4086 -0.0121
14533TIP3    H165014   4.491   6.694   0.400 -0.4861  1.0975  0.2188
14533TIP3    H265015   4.356   6.694   0.333 -0.7615 -0.1776  0.7568
14534TIP3   OH265016   4.945   6.580   4.990 -0.2576 -0.5784  0.1245
14534TIP3    H165017   5.021   6.630   4.959 -1.7659  0.3720 -2.3529
14534TIP3    H265018   4.939   6.601   5.083  1.0603  1.3053 -0.1491
14535TIP3   OH265019   5.297   3.550  10.229 -0.8221 -0.1542  0.1108
14535TIP3    H165020   5.211   3.580  10.200  0.6688  2.1138 -2.5052
14535TIP3    H265021   5.329   3.619  10.286 -0.8510 -1.2166  1.4733
14536TIP3   OH265022   4.977   3.284   2.822  0.6698  0.4146  0.3279
14536TIP3    H165023   4.945   3.238   2.744 -0.0603  0.5281  0.5506
14536TIP3    H265024   5.069   3.302   2.804  1.3465 -2.1786  0.6907
14537TIP3   OH265025   1.287   6.382   5.006  0.0480  0.0099 -0.2793
14537TIP3    H165026   1.302   6.452   5.070 -1.1344 -0.7442  0.8674
14537TIP3    H265027   1.375   6.351   4.984  0.4937  0.3687  0.9189
14538TIP3   OH265028   6.553   0.100  12.036 -0.5019 -0.0042  0.0225
14538TIP3    H165029   6.554   0.095  11.941 -0.6134  0.7594 -0.0306
14538TIP3    H265030   6.630   0.153  12.058  0.3796 -1.4206  0.4584
14539TIP3   OH265031   1.161   0.381  16.361  0.2558  0.7607 -0.1578
14539TIP3    H165032   1.131   0.292  16.378 -0.3280  0.4965 -2.2668
14539TIP3    H265033   1.103   0.436  16.414 -1.1540 -0.0076 -0.8269
14540TIP3   OH265034   0.382   5.871   3.585  0.8459 -0.7635 -0.3208
14540TIP3    H165035   0.379   5.776   3.602  0.5927 -0.2126  3.9217
14540TIP3    H265036   0.475   5.892   3.585  0.9039 -0.9782 -1.2878
14541TIP3   OH265037   5.224   4.275   1.908 -0.2656  0.0739  0.1053
14541TIP3    H165038   5.149   4.308   1.858 -0.6851  1.0492  1.3238
14541TIP3    H265039   5.299   4.292   1.851 -0.8090  0.4811 -0.5099
14542TIP3   OH265040   1.892   0.573  15.488  0.1761  0.4708 -0.2132
14542TIP3    H165041   1.963   0.623  15.448  0.1184  1.5854  0.9936
14542TIP3    H265042   1.924   0.553  15.576 -0.7677  0.5029  0.1510
14543TIP3   OH265043   3.997   6.687   5.306  0.6617 -0.3018  0.5502
14543TIP3    H165044   3.935   6.614   5.311 -1.6103  1.4263 -0.6368
14543TIP3    H265045   4.023   6.689   5.214  2.1656 -0.6989  0.9419
14544TIP3   OH265046   5.940   4.218   2.596 -0.7430 -0.3548 -0.5103
14544TIP3    H165047   5.898   4.263   2.668 -1.0376  0.4594 -1.1694
14544TIP3    H265048   5.871   4.165   2.556 -0.3410 -1.6389  0.4150
14545TIP3   OH265049   4.382   0.999   4.441 -0.2531  0.3194 -0.0948
14545TIP3    H165050   4.467   1.024   4.405 -1.0275  0.4120 -1.9982
14545TIP3    H265051   4.354   1.076   4.491  0.6462  0.3902  0.3259
14546TIP3   OH265052   0.483   3.484   6.613  0.3279  0.3375 -0.2786
14546TIP3    H165053   0.559   3.426   6.609  0.1455 -0.0171  0.8721
14546TIP3    H265054   0.519   3.572   6.622  0.6137  0.1821  0.1270
14547TIP3   OH265055   2.288   2.416   5.811 -0.1503  0.5278 -0.2805
14547TIP3    H165056   2.292   2.420   5.907 -0.8731 -0.2052 -0.2062
14547TIP3    H265057   2.357   2.355   5.787 -0.4741  0.1057 -0.1607
14548TIP3   OH265058   4.987   5.615  10.618 -0.0166  0.0658 -0.6778
14548TIP3    H165059   4.987   5.711  10.628 -1.8225 -0.0036  0.6731
14548TIP3    H265060   5.035   5.583  10.694  1.2878 -0.1158 -1.5499
14549TIP3   OH265061   0.152   0.916   5.958 -0.1752 -0.3672 -0.4617
14549TIP3    H165062   0.229   0.860   5.965 -0.0338 -0.0241  1.2884
14549TIP3    H265063   0.124   0.909   5.867  0.5382 -2.3255 -0.5579
14550TIP3   OH265064   2.438   1.961  14.431  0.2515  0.0288 -0.9588
14550TIP3    H165065   2.461   2.029  14.367  0.9415 -1.3606 -2.2394
14550TIP3    H265066   2.360   1.919  14.394 -0.3713  0.3272 -0.0045
14551TIP3   OH265067   5.291   1.695   0.391 -0.8380  0.0006 -0.4427
14551TIP3    H165068   5.265   1.655   0.474 -1.8029 -2.9029 -1.9986
14551TIP3    H265069   5.350   1.766   0.416  0.6595 -2.1090  2.6645
14552TIP3   OH265070   4.612   4.459  12.498  0.4928  0.7105 -0.1468
14552TIP3    H165071   4.614   4.502  12.584  0.6968  1.6140 -0.5910
14552TIP3    H265072   4.633   4.529  12.436  0.4212  0.0491 -0.9289
14553TIP3   OH265073   2.292   1.434   0.866  0.4858  0.1242 -0.2629
14553TIP3    H165074   2.372   1.485   0.881  1.0313 -0.8932  0.4270
14553TIP3    H265075   2.230   1.467   0.931 -0.0561  1.6526 -1.4788
14554TIP3   OH265076   5.881   3.086   5.265 -0.9296 -0.0988 -0.5932
14554TIP3    H165077   5.796   3.043   5.269 -1.1046  0.2793  2.2762
14554TIP3    H265078   5.865   3.168   5.219 -1.5478 -1.0741 -2.1924
14555TIP3   OH265079   2.360   1.450  13.613 -0.0416  0.1026 -0.1211
14555TIP3    H165080   2.286   1.408  13.657 -0.4147  0.7425 -0.1214
14555TIP3    H265081   2.321   1.491  13.535  0.5302 -0.6108 -0.8025
14556TIP3   OH265082   3.304   3.789  12.670 -0.2727 -0.5756  0.2268
14556TIP3    H165083   3.288   3.711  12.615 -1.6093  0.1107 -0.3941
14556TIP3    H265084   3.343   3.852  12.610 -1.0120 -0.0951  0.2353
14557TIP3   OH265085   4.879   5.853  11.649 -0.1349 -0.1259 -0.3818
14557TIP3    H165086   4.939   5.847  11.724 -0.2871 -0.2296 -0.2696
14557TIP3    H265087   4.800   5.894  11.685 -0.1916 -0.1367 -0.4955
14558TIP3   OH265088   0.437   6.061  11.433 -0.2155 -0.2874  0.1082
14558TIP3    H165089   0.512   6.003  11.445 -0.8112 -0.9073  0.9910
14558TIP3    H265090   0.473   6.139  11.391  0.4326 -1.6766 -2.0263
14559TIP3   OH265091   5.517   4.905  14.082  0.5950  0.9255 -0.3675
14559TIP3    H165092   5.523   5.000  14.086  0.7955  0.9254 -0.7153
14559TIP3    H265093   5.575   4.874  14.152  0.6959  1.0511 -0.3959
14560TIP3   OH265094   2.277   1.825   0.653  0.2640  0.3895 -0.1283
14560TIP3    H165095   2.267   1.804   0.745 -0.3007 -0.7168 -0.4295
14560TIP3    H265096   2.350   1.771   0.623 -1.8898 -2.1438 -1.1631
14561TIP3   OH265097   1.325   0.613   3.353  0.2759  0.4086 -0.8771
14561TIP3    H165098   1.299   0.545   3.290  1.0368 -0.4110 -0.3222
14561TIP3    H265099   1.414   0.588   3.379 -0.8584 -0.6997  2.4001
14562TIP3   OH265100   0.790   5.236   4.511  0.2633  0.3088  0.2042
14562TIP3    H165101   0.767   5.187   4.432  2.3397 -2.7092  1.3132
14562TIP3    H265102   0.863   5.291   4.484 -0.5883  1.1316 -0.5015
14563TIP3   OH265103   2.275   3.491  16.990 -0.5157  0.2138  0.3678
14563TIP3    H165104   2.213   3.546  16.943 -1.3576 -0.0317  1.1723
14563TIP3    H265105   2.234   3.475  17.075  1.3278  1.3379  1.5357
14564TIP3   OH265106   2.940   3.407   1.544 -0.5382 -0.2767 -0.5255
14564TIP3    H165107   2.981   3.385   1.628  0.0475  2.3817 -0.0263
14564TIP3    H265108   2.847   3.387   1.557 -0.7949  1.8579  1.5160
14565TIP3   OH265109   1.431   5.531   0.976 -0.6055 -0.0107  0.5571
14565TIP3    H165110   1.441   5.621   0.943  2.3057 -0.9798 -1.6760
14565TIP3    H265111   1.408   5.480   0.898 -1.6498 -1.3186  1.6811
14566TIP3   OH265112   5.149   0.337   1.170 -0.4116 -0.0532  0.3493
14566TIP3    H165113   5.186   0.315   1.084 -1.0598  1.3822 -0.3309
14566TIP3    H265114   5.074   0.393   1.150  0.1553  1.3340  1.8990
14567TIP3   OH265115   6.582   1.596  11.684  0.1706  0.0379 -0.3995
14567TIP3    H165116   6.522   1.666  11.656  0.1552 -0.0376 -0.5556
14567TIP3    H265117   6.626   1.569  11.604  0.8863  0.5330 -0.1848
14568TIP3   OH265118   2.261   0.425   4.522 -0.4032 -0.1135  0.0729
14568TIP3    H165119   2.218   0.504   4.488 -2.2508 -0.9924  0.2464
14568TIP3    H265120   2.189   0.373   4.559  0.6331 -2.2064 -0.6860
14569TIP3   OH265121   6.680   6.232  15.340  0.2097  0.2905  0.1212
14569TIP3    H165122   6.618   6.280  15.286  0.4335 -0.6844 -1.0433
14569TIP3    H265123   6.764   6.275  15.324  0.1319  0.5674  0.4226
14570TIP3   OH265124   4.242   1.704   4.250  0.2337  0.4165 -0.0881
14570TIP3    H165125   4.225   1.674   4.161  0.6581 -0.2718  0.0505
14570TIP3    H265126   4.184   1.779   4.262  0.3243  0.6481 -1.0135
14571TIP3   OH265127   3.957   6.285   6.060 -0.7428 -0.1285 -1.0705
14571TIP3    H165128   4.046   6.318   6.048  0.2277 -3.1523 -3.4925
14571TIP3    H265129   3.959   6.242   6.145 -0.0700  0.3958 -0.8144
14572TIP3   OH265130   2.040   5.154   3.372  0.6368  0.0068  0.0133
14572TIP3    H165131   2.066   5.209   3.298  0.1229  1.9785  1.2279
14572TIP3    H265132   1.944   5.153   3.368  0.5612  0.8509  1.1018
14573TIP3   OH265133   5.874   0.167  16.655 -0.1898 -0.0557 -0.1927
14573TIP3    H165134   5.905   0.086  16.614  0.4678  0.6907 -1.2246
14573TIP3    H265135   5.806   0.139  16.716 -1.4149 -1.1917 -2.0036
14574TIP3   OH265136   1.770   0.084  14.772 -0.1109 -0.0521 -0.2509
14574TIP3    H165137   1.770   0.129  14.857 -2.0388 -0.6993  0.1504
14574TIP3    H265138   1.749  -0.007  14.793 -0.2372 -0.3024 -1.3919
14575TIP3   OH265139   2.166   2.918  12.871 -0.1301  0.2387 -0.0118
14575TIP3    H165140   2.106   2.988  12.844  0.3175  2.1134  3.3380
14575TIP3    H265141   2.196   2.944  12.958  3.0515 -2.2851 -0.1727
14576TIP3   OH265142   4.086   3.439   4.421 -0.1122 -0.4024  0.1640
14576TIP3    H165143   4.047   3.473   4.340 -0.9436  1.3450  1.2432
14576TIP3    H265144   4.124   3.516   4.463  0.3000 -1.2840  1.4625
14577TIP3   OH265145   6.137   5.514   1.732 -0.4064  0.2505  0.2779
14577TIP3    H165146   6.155   5.455   1.806  0.4913  0.4475  0.2257
14577TIP3    H265147   6.069   5.573   1.765 -1.3104 -0.7926  0.3328
14578TIP3   OH265148   5.680   2.833  13.458  0.3527 -0.4022  0.0976
14578TIP3    H165149   5.630   2.831  13.540  0.0211 -1.5850 -0.1168
14578TIP3    H265150   5.613   2.836  13.389  0.6146 -0.2121 -0.1524
14579TIP3   OH265151   2.183   1.776  15.000 -0.1225  0.8517 -0.1497
14579TIP3    H165152   2.097   1.794  14.962 -0.2716 -0.4466 -0.4840
14579TIP3    H265153   2.237   1.850  14.972 -0.7295  0.9041 -1.2515
14580TIP3   OH265154   1.609   2.603   2.674 -0.1872 -0.3758  0.5909
14580TIP3    H165155   1.698   2.581   2.649  0.6498  3.3618 -0.4375
14580TIP3    H265156   1.616   2.632   2.765  0.0833  1.5325  0.0084
14581TIP3   OH265157   1.434   0.772   0.089  0.1267  0.0339  0.3556
14581TIP3    H165158   1.366   0.743   0.027 -1.2298  0.9081  1.3729
14581TIP3    H265159   1.499   0.702   0.088 -0.6588 -0.7223 -0.8456
14582TIP3   OH265160   3.486   3.661   3.064  0.8713  0.5162  0.2079
14582TIP3    H165161   3.475   3.643   2.971 -2.2676  0.5248  0.4989
14582TIP3    H265162   3.571   3.706   3.070  1.5744 -0.2878 -2.4756
14583TIP3   OH265163   2.334   4.127   4.904  0.2222 -0.2694  0.5230
14583TIP3    H165164   2.298   4.060   4.846  0.3662 -0.9147  1.1716
14583TIP3    H265165   2.268   4.197   4.904  0.4280 -0.0382 -0.7765
14584TIP3   OH265166   1.215   4.984  14.206  0.1239 -0.2505 -0.1093
14584TIP3    H165167   1.243   4.977  14.115  2.5944 -1.6573  0.6669
14584TIP3    H265168   1.129   4.941  14.208  0.0905 -0.3070 -1.7359
14585TIP3   OH265169   4.502   6.435   1.774  0.2101  0.2294 -0.1919
14585TIP3    H165170   4.466   6.521   1.754  1.0734  0.2360 -1.8868
14585TIP3    H265171   4.583   6.452   1.822  0.3705  0.3706 -0.5100
14586TIP3   OH265172   6.449   6.517  17.039 -0.4882  0.4430 -0.0553
14586TIP3    H165173   6.380   6.454  17.062 -0.4011  0.2090 -0.4260
14586TIP3    H265174   6.443   6.584  17.106 -0.9664  0.3339  0.0191
14587TIP3   OH265175   5.900   3.887  11.979 -0.0892  0.2569  0.0441
14587TIP3    H165176   5.944   3.910  12.061 -0.0424  2.0728 -0.4551
14587TIP3    H265177   5.890   3.970  11.933 -0.3276 -0.6973 -1.7028
14588TIP3   OH265178   6.070   4.369  12.619  0.4565  0.2262  0.1156
14588TIP3    H165179   6.017   4.429  12.671 -0.4824  0.0880 -0.6608
14588TIP3    H265180   6.056   4.396  12.528  1.4523 -0.0313 -0.1291
14589TIP3   OH265181   3.475   4.592  14.680  0.6930 -0.6520  0.2193
14589TIP3    H165182   3.548   4.580  14.619  0.6775 -0.8713  0.2406
14589TIP3    H265183   3.425   4.510  14.674  0.6796 -0.6676  0.5089
14590TIP3   OH265184   3.098   3.612   5.020  0.1056 -0.2230 -0.0884
14590TIP3    H165185   3.067   3.640   4.934 -1.5031 -3.1345 -0.5554
14590TIP3    H265186   3.035   3.651   5.081  0.8098  1.2153 -0.2234
14591TIP3   OH265187   0.630   6.392   3.519  0.5756 -0.0995  0.4444
14591TIP3    H165188   0.639   6.469   3.576  0.7663 -0.4820  0.9327
14591TIP3    H265189   0.537   6.372   3.520  0.3838  0.6995 -0.4459
14592TIP3   OH265190   5.997   1.447  17.201  0.1442 -0.2556 -0.1558
14592TIP3    H165191   6.014   1.391  17.277 -0.8025 -0.0408  0.2314
14592TIP3    H265192   5.948   1.390  17.141  1.6530 -0.7006 -1.0165
14593TIP3   OH265193   4.099   3.441   3.584  0.0058  0.0845  0.1647
14593TIP3    H165194   4.149   3.468   3.661 -0.1430 -1.6989  0.9296
14593TIP3    H265195   4.054   3.521   3.556 -0.8677  0.5505  2.6371
14594TIP3   OH265196   2.334   2.472   2.483 -0.2792  0.5830  0.0649
14594TIP3    H165197   2.326   2.501   2.574 -0.2268 -0.8000  0.5367
14594TIP3    H265198   2.425   2.441   2.476 -0.2339  0.8341 -0.5084
14595TIP3   OH265199   5.931   4.598   4.381  0.1339  0.1033  0.3426
14595TIP3    H165200   5.858   4.637   4.429  0.0597 -1.7979  1.9062
14595TIP3    H265201   6.007   4.648   4.409 -0.3779  1.2110 -0.2193
14596TIP3   OH265202   2.070   3.389   5.582  0.2562 -0.3516  0.5045
14596TIP3    H165203   2.038   3.444   5.510 -0.0194  1.9767  2.2974
14596TIP3    H265204   2.093   3.306   5.540 -0.8615  0.5458 -2.0844
14597TIP3   OH265205   5.215   2.255  14.723 -0.2730 -0.0675  0.5702
14597TIP3    H165206   5.239   2.227  14.811  2.1476 -3.5057 -0.9050
14597TIP3    H265207   5.263   2.336  14.708  1.6647 -0.9932  1.5059
14598TIP3   OH265208   0.038   3.381  14.276 -0.7434  0.0204 -0.1374
14598TIP3    H165209   0.048   3.286  14.281  0.9720  0.2012  0.2280
14598TIP3    H265210   0.040   3.411  14.367  0.8078  0.5727 -0.3270
14599TIP3   OH265211   5.607   4.263   5.619 -0.2175 -0.4032  0.4626
14599TIP3    H165212   5.670   4.252   5.690  0.5458 -0.9369 -0.2791
14599TIP3    H265213   5.522   4.273   5.663  0.4512  1.1031  1.5135
14600TIP3   OH265214   2.577   4.259   0.157  0.2793  0.3920 -0.0095
14600TIP3    H165215   2.512   4.194   0.129  0.3743  0.6728 -0.9382
14600TIP3    H265216   2.606   4.300   0.075  1.5269  0.3708  0.4032
14601TIP3   OH265217   4.695   6.531  13.336  0.1195 -0.5950 -0.1590
14601TIP3    H165218   4.690   6.559  13.245 -0.7405  0.4115  0.1865
14601TIP3    H265219   4.762   6.588  13.375 -1.3779  0.8321  0.4547
14602TIP3   OH265220   4.857   4.423   0.221 -0.1705 -0.4883  0.2797
14602TIP3    H165221   4.766   4.395   0.212 -0.7187  1.0051  0.8651
14602TIP3    H265222   4.880   4.400   0.311  0.0498 -0.8975  0.1209
14603TIP3   OH265223   0.177   4.134  12.390 -0.4732  0.7338 -0.2087
14603TIP3    H165224   0.172   4.048  12.348  2.9480  0.4380 -0.3429
14603TIP3    H265225   0.143   4.120  12.478  0.9693 -1.0779  0.1083
14604TIP3   OH265226   0.933   4.523   3.994 -0.1596  0.2249  0.2769
14604TIP3    H165227   0.953   4.513   4.087  2.4118  0.1326 -0.1968
14604TIP3    H265228   0.966   4.611   3.972 -2.1577  0.8833 -0.2498
14605TIP3   OH265229   4.226   6.240  12.440  0.5099  0.6199 -0.4564
14605TIP3    H165230   4.310   6.194  12.436  1.2249  1.6108  1.6613
14605TIP3    H265231   4.168   6.190  12.382  1.8270 -1.6395  0.0757
14606TIP3   OH265232   3.485   0.930  13.688 -0.0926  0.4417  0.2988
14606TIP3    H165233   3.499   0.993  13.760  0.4971  0.8368 -0.1512
14606TIP3    H265234   3.418   0.971  13.633  0.3901  0.7560 -0.0686
14607TIP3   OH265235   1.042   6.763  15.993  0.2337  0.0867 -0.4122
14607TIP3    H165236   0.989   6.842  16.009 -0.0238 -0.0488 -0.5903
14607TIP3    H265237   0.980   6.701  15.955  0.6818  0.1680 -1.2963
14608TIP3   OH265238   2.061   6.477  15.973 -0.1072  0.8060  0.0362
14608TIP3    H165239   2.057   6.385  16.001 -1.1798  1.1903  1.2808
14608TIP3    H265240   2.099   6.475  15.886 -1.0735 -0.9161 -0.3757
14609TIP3   OH265241   0.820   4.121   0.344  0.5834  1.0399  0.0804
14609TIP3    H165242   0.882   4.048   0.336  1.5735  1.7705  0.7765
14609TIP3    H265243   0.787   4.114   0.433 -0.3025  0.6924 -0.2711
14610TIP3   OH265244   3.228   5.044  12.636  0.5027  0.1465  0.2147
14610TIP3    H165245   3.184   5.013  12.557  0.6648  1.0489 -0.2489
14610TIP3    H265246   3.158   5.047  12.702  0.3343 -0.4737  0.0654
14611TIP3   OH265247   1.105   5.153   3.955  0.0813 -0.0018 -0.5142
14611TIP3    H165248   1.181   5.209   3.975  0.5171 -0.9203  0.4937
14611TIP3    H265249   1.137   5.092   3.890  1.1504 -2.2210  1.8998
14612TIP3   OH265250   2.531   5.938  15.825  0.0258  0.7803  0.0148
14612TIP3    H165251   2.459   5.975  15.875  1.7625  1.5586  2.0821
14612TIP3    H265252   2.586   5.895  15.890  0.5275 -1.4207 -1.7351
14613TIP3   OH265253   5.609   5.026  15.820  0.1868  0.4646 -0.0971
14613TIP3    H165254   5.620   4.944  15.867 -1.0660 -0.3847 -1.2068
14613TIP3    H265255   5.558   5.003  15.742 -1.6601  2.5369  0.3825
14614TIP3   OH265256   6.266   3.682   6.150 -0.4166 -0.3445  0.0403
14614TIP3    H165257   6.334   3.738   6.187 -0.8623 -1.5816  3.0871
14614TIP3    H265258   6.191   3.693   6.209 -1.2461 -2.4380 -0.5250
14615TIP3   OH265259   1.759   0.313   0.417  0.1867 -0.1153  0.2390
14615TIP3    H165260   1.799   0.398   0.436 -0.8626  0.2953  0.7209
14615TIP3    H265261   1.806   0.281   0.340  1.5983  0.2055  0.9366
14616TIP3   OH265262   2.543   3.309   2.673 -0.1437  0.0848 -0.3892
14616TIP3    H165263   2.549   3.366   2.597  1.6506  0.3508 -0.0986
14616TIP3    H265264   2.495   3.233   2.642 -1.1126  1.0150 -1.2449
14617TIP3   OH265265   0.025   2.067   1.345 -0.1881  0.0491 -0.4845
14617TIP3    H165266  -0.036   2.140   1.347  0.5849  0.6935  1.7139
14617TIP3    H265267  -0.030   1.990   1.330 -1.0311  0.9979 -2.6866
14618TIP3   OH265268   4.392   5.109   2.724 -0.2506  0.0877  0.5219
14618TIP3    H165269   4.300   5.087   2.733 -0.3531 -0.7045 -1.7937
14618TIP3    H265270   4.434   5.026   2.701  1.1459  0.3388  2.0123
14619TIP3   OH265271   3.040   2.589  15.427  0.2051 -0.0018  0.3695
14619TIP3    H165272   3.017   2.519  15.489 -1.5957  1.2393  1.1863
14619TIP3    H265273   3.133   2.606  15.442  1.0014 -2.8958 -0.6034
14620TIP3   OH265274   3.161   4.041   4.669 -0.0105  0.7101  0.2117
14620TIP3    H165275   3.179   4.084   4.752  0.3159  1.1951 -0.1017
14620TIP3    H265276   3.247   4.009   4.639 -0.1418  0.4468  0.1151
14621TIP3   OH265277   5.721   0.671  15.426 -0.1628  0.4485  0.6337
14621TIP3    H165278   5.674   0.638  15.502 -2.9130 -0.5245 -1.3128
14621TIP3    H265279   5.703   0.765  15.424  2.4545  1.1251  2.7063
14622TIP3   OH265280   6.138   5.365   1.183  0.0063  0.1373  0.2483
14622TIP3    H165281   6.205   5.432   1.167  0.2819 -0.4409 -1.1573
14622TIP3    H265282   6.187   5.288   1.210 -0.1177 -0.1417 -0.3011
14623TIP3   OH265283   1.969   1.878  14.878 -0.1401  0.8300 -0.8411
14623TIP3    H165284   1.876   1.900  14.884 -0.2035  0.5936 -0.9467
14623TIP3    H265285   2.014   1.959  14.904 -0.3852  0.1630  2.0077
14624TIP3   OH265286   0.574   0.317  13.465  0.5558  0.2179  0.5401
14624TIP3    H165287   0.669   0.319  13.459  0.5921  0.5004  1.1002
14624TIP3    H265288   0.552   0.390  13.523  0.0723 -0.3882  1.1529
14625TIP3   OH265289   3.660   5.477   2.253  0.4606  0.6935 -0.1352
14625TIP3    H165290   3.678   5.543   2.319  1.2482  0.2682  0.0811
14625TIP3    H265291   3.698   5.397   2.287  0.5872  0.3909 -0.9523
14626TIP3   OH265292   3.576   0.543  12.224  0.0379  0.3269 -0.2438
14626TIP3    H165293   3.588   0.452  12.197 -0.7116  0.0937  0.1833
14626TIP3    H265294   3.603   0.594  12.148  1.5016 -0.2104 -0.1289
14627TIP3   OH265295   5.115   1.502   3.383 -0.5775  0.1779 -0.6550
14627TIP3    H165296   5.180   1.432   3.382 -0.3360  0.2032  2.3771
14627TIP3    H265297   5.141   1.557   3.457 -4.2036 -0.0332  0.9650
14628TIP3   OH265298   5.831   5.427   3.908  0.2673 -0.0962 -0.0985
14628TIP3    H165299   5.774   5.404   3.835 -0.6990  0.2806  0.5165
14628TIP3    H265300   5.896   5.486   3.871 -1.7272  2.1697 -0.1951
14629TIP3   OH265301   4.848   6.182  12.799  0.2765  0.0333 -0.2332
14629TIP3    H165302   4.754   6.198  12.790 -0.2877 -2.0070  1.2718
14629TIP3    H265303   4.873   6.139  12.717 -0.4763 -0.8890  0.0085
14630TIP3   OH265304   2.276   6.439   2.822  0.1523 -0.3880 -0.1746
14630TIP3    H165305   2.262   6.476   2.909  1.8561 -1.5827  0.6478
14630TIP3    H265306   2.247   6.508   2.762 -2.3277 -0.0511  1.2922
14631TIP3   OH265307   5.051   0.704   5.769  0.3281 -0.0364 -0.0732
14631TIP3    H165308   4.977   0.686   5.827  0.4642  0.4438  0.2555
14631TIP3    H265309   5.112   0.631   5.784  0.2419 -0.0556  0.1862
14632TIP3   OH265310   1.120   3.132   6.162  0.1463 -0.3352  0.0053
14632TIP3    H165311   1.198   3.083   6.187 -1.0183 -1.7697  1.0679
14632TIP3    H265312   1.123   3.136   6.067  1.2356 -0.8441  0.0096
14633TIP3   OH265313   1.538   4.203   1.436 -0.3141  0.4260  0.4615
14633TIP3    H165314   1.628   4.204   1.404 -0.6296  1.8431 -0.4942
14633TIP3    H265315   1.534   4.129   1.496  0.8388 -1.1426 -1.3215
14634TIP3   OH265316   4.558   1.248  11.184  0.4059 -0.2350 -0.0735
14634TIP3    H165317   4.598   1.295  11.110  0.6935 -0.0596  0.1932
14634TIP3    H265318   4.499   1.185  11.142 -0.8345  1.1017 -0.4195
14635TIP3   OH265319   4.663   3.077   2.410  0.3240 -0.2193 -0.2831
14635TIP3    H165320   4.653   3.141   2.340  0.7225 -0.8973 -0.9843
14635TIP3    H265321   4.583   3.084   2.461 -1.0618 -1.2998 -2.1621
14636TIP3   OH265322   3.496   4.210  14.080 -0.3588  0.2921  0.2217
14636TIP3    H165323   3.408   4.228  14.047 -1.7066 -1.3069  2.6220
14636TIP3    H265324   3.538   4.162  14.008 -1.6659  0.5013 -0.7348
14637TIP3   OH265325   6.124   5.799  17.141  0.3342 -0.0064 -0.2926
14637TIP3    H165326   6.135   5.751  17.223  0.3968 -0.7308 -0.7170
14637TIP3    H265327   6.068   5.873  17.164  0.8693  0.1538  0.5369
14638TIP3   OH265328   2.385   6.399   4.707 -0.2185 -0.0542  0.6146
14638TIP3    H165329   2.426   6.327   4.658  0.2543  1.0572 -0.6754
14638TIP3    H265330   2.444   6.473   4.695 -0.2982  0.3944  2.5694
14639TIP3   OH265331   2.357   5.838   5.096  0.6089 -0.2332  0.1447
14639TIP3    H165332   2.321   5.750   5.092 -1.2816  0.4871 -0.0362
14639TIP3    H265333   2.302   5.889   5.036  0.2706  1.5036  1.8299
14640TIP3   OH265334   6.253   0.961   3.492 -0.1662 -0.0337 -0.5430
14640TIP3    H165335   6.214   0.887   3.538  0.4260  0.3380  0.6024
14640TIP3    H265336   6.201   1.037   3.521  0.6110  0.2926  0.0360
14641TIP3   OH265337   4.976   2.245  14.604 -0.3104  0.4099  0.8642
14641TIP3    H165338   4.935   2.212  14.684  0.9779  0.7186  1.6796
14641TIP3    H265339   5.066   2.266  14.630  0.8511 -1.6168 -1.2023
14642TIP3   OH265340   2.997   1.137  11.607  0.1583  0.2763 -0.0883
14642TIP3    H165341   3.049   1.108  11.681  0.6298 -1.0475 -0.8944
14642TIP3    H265342   3.012   1.231  11.602  0.6731  0.2661  1.0527
14643TIP3   OH265343   0.988   5.021  11.051 -0.3230  0.3187 -0.4819
14643TIP3    H165344   1.049   5.081  11.007 -0.1977  0.0977 -0.6069
14643TIP3    H265345   1.031   4.936  11.048  0.0365  0.4294  0.7136
14644TIP3   OH265346   6.431   0.824  16.624 -0.0660 -0.2724  0.4109
14644TIP3    H165347   6.358   0.768  16.599  1.6008 -3.6583  2.3305
14644TIP3    H265348   6.492   0.817  16.550 -0.0254 -0.7114  0.4822
14645TIP3   OH265349   4.529   5.845  13.643  0.1845 -0.6906 -0.5706
14645TIP3    H165350   4.546   5.908  13.573 -0.3311  0.8936  0.6720
14645TIP3    H265351   4.601   5.859  13.705  0.7850 -2.2643 -0.8530
14646TIP3   OH265352   4.917   5.635  16.021  0.0508 -0.6290  0.1234
14646TIP3    H165353   4.849   5.701  16.007 -0.8857 -1.4602  0.5519
14646TIP3    H265354   4.965   5.665  16.098  1.3822  0.8953 -1.2263
14647TIP3   OH265355   1.196   2.901   6.543 -0.7607 -0.1632  0.4730
14647TIP3    H165356   1.169   2.815   6.573 -1.4184 -0.2125 -0.2222
14647TIP3    H265357   1.118   2.956   6.553 -0.5155  0.2042  0.3826
14648TIP3   OH265358   1.364   5.369   0.772  0.0189  0.1804 -0.3004
14648TIP3    H165359   1.409   5.296   0.730 -0.2028 -0.3870  0.4335
14648TIP3    H265360   1.309   5.406   0.702  0.6456  0.0900 -0.8591
14649TIP3   OH265361   3.187   4.459   1.785  0.1487 -0.7983 -0.4036
14649TIP3    H165362   3.095   4.486   1.785 -0.3683 -2.1398  2.5073
14649TIP3    H265363   3.187   4.374   1.743 -0.4695 -1.9159  1.6826
14650TIP3   OH265364   2.912   3.937   2.221  0.6194 -0.4305 -0.4805
14650TIP3    H165365   2.933   4.005   2.284 -1.1124 -0.3040  0.0234
14650TIP3    H265366   2.992   3.925   2.170  1.5693  0.5484  0.7283
14651TIP3   OH265367   5.892   0.758  12.363 -0.2482 -0.0259 -0.6494
14651TIP3    H165368   5.908   0.719  12.449  1.6642  0.2369 -0.8500
14651TIP3    H265369   5.962   0.724  12.308 -0.2983  1.3332 -1.5937
14652TIP3   OH265370   0.662   4.715   5.173 -0.1557 -0.3065 -0.2108
14652TIP3    H165371   0.661   4.811   5.164 -0.1258 -0.0321  2.1742
14652TIP3    H265372   0.638   4.683   5.086  0.5727  1.8403 -1.2801
14653TIP3   OH265373   4.742   2.466   6.153  0.3431 -0.0322 -0.0126
14653TIP3    H165374   4.796   2.524   6.206  0.8654 -0.1569 -0.4021
14653TIP3    H265375   4.711   2.399   6.215 -2.8362  2.2968  1.1760
14654TIP3   OH265376   2.282   1.841   2.219 -0.1370  0.1430  0.4434
14654TIP3    H165377   2.254   1.860   2.129 -0.1559 -0.2127  0.3711
14654TIP3    H265378   2.353   1.777   2.208 -0.3756 -0.1703  0.6953
14655TIP3   OH265379   3.662   6.619   5.803 -0.3574  0.5361 -0.1165
14655TIP3    H165380   3.703   6.589   5.884 -3.0517  3.0281  2.4614
14655TIP3    H265381   3.571   6.588   5.810 -1.0449  2.1153 -1.3691
14656TIP3   OH265382   4.834   3.824   3.380 -0.2933 -0.4291 -0.3881
14656TIP3    H165383   4.919   3.801   3.342 -0.0665 -0.0542 -0.1189
14656TIP3    H265384   4.773   3.762   3.341  0.2415 -1.2619  0.0545
14657TIP3   OH265385   4.618   6.504  16.013  0.0853  0.3286  0.1466
14657TIP3    H165386   4.640   6.418  16.050 -0.0228  0.4372  0.4640
14657TIP3    H265387   4.529   6.492  15.978  0.0396  0.3348  0.2614
14658TIP3   OH265388   5.281   2.050   4.507  0.5427  0.4171 -0.5057
14658TIP3    H165389   5.314   1.966   4.477  0.7511  0.6765 -1.0103
14658TIP3    H265390   5.356   2.090   4.552  0.3924  0.2631 -0.1116
14659TIP3   OH265391   5.272   4.928   3.302 -0.2383  0.4391 -0.5074
14659TIP3    H165392   5.275   4.874   3.223  1.0955 -0.7480  0.2883
14659TIP3    H265393   5.352   4.981   3.298  0.3983 -0.3967  0.5163
14660TIP3   OH265394   6.737   6.546  15.459  0.6112  0.1975  0.6529
14660TIP3    H165395   6.774   6.499  15.534  0.8944 -1.0962 -0.2736
14660TIP3    H265396   6.777   6.505  15.383 -0.7336  0.5518 -0.2691
14661TIP3   OH265397   3.973   5.693   4.837  0.0963 -0.1577 -0.6668
14661TIP3    H165398   4.013   5.780   4.829  0.7582 -0.2752  0.9821
14661TIP3    H265399   3.952   5.668   4.747  0.2691  1.5248 -1.2140
14662TIP3   OH265400   2.257   1.488  11.645 -0.6833 -0.6071  0.1413
14662TIP3    H165401   2.173   1.444  11.647  0.0206 -2.0079  0.0262
14662TIP3    H265402   2.294   1.465  11.559 -0.2983  0.2394  0.0642
14663TIP3   OH265403   6.691   4.401   4.458 -0.2160 -0.6591  0.1986
14663TIP3    H165404   6.678   4.491   4.427 -1.2334 -0.3971  1.3336
14663TIP3    H265405   6.749   4.410   4.533 -1.1959 -0.8207  0.9863
14664TIP3   OH265406   5.817   4.580  11.630 -0.2124 -0.0869  0.5424
14664TIP3    H165407   5.799   4.486  11.633 -0.5028 -0.0239  0.9039
14664TIP3    H265408   5.904   4.589  11.668 -1.2972  0.0599  3.1320
14665TIP3   OH265409   5.620   1.589   0.674  0.8732 -0.4213 -0.1292
14665TIP3    H165410   5.685   1.552   0.734  0.1786  1.2572  1.7847
14665TIP3    H265411   5.599   1.674   0.712 -1.5543 -0.3891 -1.3678
14666TIP3   OH265412   4.769   2.754  16.519 -0.2805 -0.4878  0.4371
14666TIP3    H165413   4.716   2.676  16.539  0.5891 -0.7921  1.6305
14666TIP3    H265414   4.736   2.821  16.579 -0.7359 -0.0391 -0.2953
14667TIP3   OH265415   1.401   2.279  17.073  0.1917  0.2281  0.0517
14667TIP3    H165416   1.351   2.212  17.024  0.1348  0.5372 -0.3206
14667TIP3    H265417   1.337   2.346  17.093  0.7469  1.3956 -1.8167
14668TIP3   OH265418   0.288   0.689   3.170  0.4310  0.5094 -0.7930
14668TIP3    H165419   0.243   0.664   3.251  0.0949  0.9953 -0.8274
14668TIP3    H265420   0.323   0.606   3.136 -0.3759  0.1274 -0.7261
14669TIP3   OH265421   3.593   5.507  14.181  0.1095 -0.1199 -0.2301
14669TIP3    H165422   3.552   5.512  14.267  1.7782  2.2992  0.5473
14669TIP3    H265423   3.614   5.598  14.159  0.1256 -0.7072 -3.0267
14670TIP3   OH265424   5.292   4.201  12.565 -0.4405 -0.0030  0.1329
14670TIP3    H165425   5.285   4.186  12.471 -0.0342 -0.5885  0.1912
14670TIP3    H265426   5.283   4.115  12.605  1.6450 -0.1273  0.4897
14671TIP3   OH265427   4.234   1.209   1.231  0.3887  0.1916  0.7315
14671TIP3    H165428   4.163   1.190   1.293  0.4341  1.1413  1.0953
14671TIP3    H265429   4.195   1.271   1.169  0.8038  0.4909  0.7653
14672TIP3   OH265430   4.829   6.271  15.256 -0.1384  0.4411  0.9476
14672TIP3    H165431   4.738   6.298  15.250 -0.2679 -0.1450  0.0935
14672TIP3    H265432   4.877   6.339  15.208 -0.1010  0.8449  1.5508
14673TIP3   OH265433   1.330   6.057   4.644 -0.2218  0.5159  0.3983
14673TIP3    H165434   1.405   6.078   4.699  0.0917  0.8578 -0.1614
14673TIP3    H265435   1.297   5.974   4.680 -1.5344  1.9216  2.6832
14674TIP3   OH265436   4.605   0.388   5.175  0.3219  0.4434  0.3258
14674TIP3    H165437   4.572   0.358   5.260 -0.5458 -0.9346 -0.4479
14674TIP3    H265438   4.695   0.356   5.171  0.4858  0.8231  0.8551
14675TIP3   OH265439   3.788   2.310   0.642 -0.4421  0.4273 -0.3190
14675TIP3    H165440   3.809   2.325   0.734  1.3319 -1.1287 -0.3990
14675TIP3    H265441   3.729   2.382   0.618 -2.9902 -0.4950  2.6498
14676TIP3   OH265442   2.575   2.920  12.925 -0.0815  1.0070  0.2574
14676TIP3    H165443   2.536   2.833  12.919 -1.7413  1.7805 -0.9021
14676TIP3    H265444   2.572   2.941  13.019  1.3711 -0.5870  0.7129
14677TIP3   OH265445   4.089   2.367  13.312  0.1009  0.2467 -0.5484
14677TIP3    H165446   4.108   2.315  13.235  0.6135 -1.7439  0.8407
14677TIP3    H265447   4.170   2.414  13.331  0.9314 -1.4891  0.3772
14678TIP3   OH265448   4.543   4.604   2.814 -0.4633  0.5358  0.3753
14678TIP3    H165449   4.632   4.584   2.785 -0.3600  0.4300  0.7562
14678TIP3    H265450   4.539   4.571   2.904 -0.8152  0.7427  0.4392
14679TIP3   OH265451   5.491   0.834   1.365  0.3945  0.3044  0.3268
14679TIP3    H165452   5.397   0.814   1.366  0.5308 -0.4582 -0.5252
14679TIP3    H265453   5.532   0.752   1.340  1.3024  0.6244  0.7432
14680TIP3   OH265454   1.669   1.527  12.198  0.8385  0.0026  0.9495
14680TIP3    H165455   1.697   1.588  12.129  1.8463  0.4221  1.6956
14680TIP3    H265456   1.655   1.444  12.152  1.2462  0.3344  0.1933
14681TIP3   OH265457   1.486   0.249   3.224 -0.1438 -0.1843 -0.0524
14681TIP3    H165458   1.426   0.313   3.185  1.0871  1.7803  1.1292
14681TIP3    H265459   1.445   0.222   3.305 -1.7838 -2.8174 -1.5967
14682TIP3   OH265460   0.438   0.624  12.517 -0.0530  0.1923 -0.4245
14682TIP3    H165461   0.445   0.555  12.584  3.6705  1.2786  0.5785
14682TIP3    H265462   0.413   0.702  12.566  1.4204  0.7186 -0.4633
14683TIP3   OH265463   4.215   6.252   0.841  0.4067  0.1825  0.5298
14683TIP3    H165464   4.225   6.185   0.774  1.4869 -0.7800  1.5970
14683TIP3    H265465   4.252   6.212   0.920  0.6950  1.8866  1.2999
14684TIP3   OH265466   5.634   3.949   1.773 -0.4409 -0.2293 -0.1100
14684TIP3    H165467   5.560   3.891   1.754 -0.6024  0.5128 -1.9715
14684TIP3    H265468   5.696   3.894   1.820 -0.2885 -2.1711 -2.3803
14685TIP3   OH265469   5.202   0.610  16.787  0.2713  0.7861  0.1153
14685TIP3    H165470   5.265   0.648  16.848  0.5244 -0.3214  0.5730
14685TIP3    H265471   5.230   0.519  16.777 -0.9992  0.3896 -0.0193
14686TIP3   OH265472   6.013   4.798  13.404 -0.1126  0.7830 -0.5531
14686TIP3    H165473   6.047   4.778  13.317  0.6288  0.8376 -0.2824
14686TIP3    H265474   6.014   4.894  13.409 -1.1011  0.8199 -0.8464
14687TIP3   OH265475   2.229   4.372   2.170 -0.2724 -0.2759 -0.0898
14687TIP3    H165476   2.248   4.280   2.153  0.9370 -0.1082  0.2993
14687TIP3    H265477   2.200   4.373   2.262 -0.8429 -0.3322 -0.2616
14688TIP3   OH265478   5.432   6.093  13.873 -0.3009 -0.2792  0.3520
14688TIP3    H165479   5.366   6.158  13.898 -1.7677 -2.0126  1.2012
14688TIP3    H265480   5.386   6.009  13.876  1.7207 -1.4678  0.0503
14689TIP3   OH265481   5.140   0.199  12.396  0.5687 -0.3846 -0.2794
14689TIP3    H165482   5.210   0.253  12.359 -1.0328  1.7363 -0.3351
14689TIP3    H265483   5.103   0.153  12.321 -1.9742  3.1021 -1.3910
14690TIP3   OH265484   0.276   2.858  11.089 -0.4747 -0.3133 -0.1954
14690TIP3    H165485   0.339   2.818  11.029 -1.6007  1.9068 -3.1076
14690TIP3    H265486   0.308   2.948  11.101 -0.8830 -0.3880  1.7031
14691TIP3   OH265487   3.064   2.294  14.437 -0.0230  0.1083 -0.6895
14691TIP3    H165488   3.002   2.359  14.404 -2.8407 -1.5660  0.8870
14691TIP3    H265489   3.133   2.345  14.478 -2.2261  2.1962  0.6744
14692TIP3   OH265490   0.679   2.492  16.133  0.6739 -0.3829  0.3727
14692TIP3    H165491   0.614   2.557  16.105  1.5032 -0.3468 -1.6560
14692TIP3    H265492   0.744   2.542  16.182 -0.8374 -0.4488  2.6118
14693TIP3   OH265493   1.471   4.017   0.788 -0.0646 -0.7700  0.8414
14693TIP3    H165494   1.536   3.963   0.744  0.0258 -0.1447  0.2038
14693TIP3    H265495   1.422   3.955   0.843  1.3046 -1.1818  1.6371
14694TIP3   OH265496   1.481   1.922   0.530 -0.1823  0.2999  0.3011
14694TIP3    H165497   1.447   1.834   0.514 -0.5120  0.2304  1.2757
14694TIP3    H265498   1.419   1.981   0.487 -0.0931  0.0621 -0.1509
14695TIP3   OH265499   3.325   2.291   1.290 -0.6322 -0.2838 -0.7909
14695TIP3    H165500   3.299   2.362   1.231 -1.8215  0.3294  0.4392
14695TIP3    H265501   3.310   2.326   1.378  0.6280 -1.3686 -0.1221
14696TIP3   OH265502   4.177   4.477  12.959 -0.3942 -0.7151 -0.1057
14696TIP3    H165503   4.148   4.466  12.869  0.4775  0.5617 -0.5677
14696TIP3    H265504   4.096   4.488  13.009 -0.8474  1.4689 -1.1763
14697TIP3   OH265505   5.026   2.336   1.874 -0.0447 -0.0542 -0.0161
14697TIP3    H165506   5.036   2.409   1.813 -0.0435 -0.1359 -0.1155
14697TIP3    H265507   4.971   2.273   1.826  1.3339 -0.8589 -0.5948
14698TIP3   OH265508   1.043   0.687   0.601  0.6762  0.1437 -0.4821
14698TIP3    H165509   1.019   0.611   0.653  0.3334  0.6242  0.0759
14698TIP3    H265510   0.965   0.743   0.604  0.7172  0.2630 -1.3608
14699TIP3   OH265511   1.644   1.791   3.261 -0.2591  0.0121 -0.0322
14699TIP3    H165512   1.662   1.715   3.316  0.2119 -0.6712 -1.0971
14699TIP3    H265513   1.703   1.859   3.294  1.3290 -0.9309 -0.8119
14700TIP3   OH265514   2.192   0.399  15.183 -0.3530 -0.4507  0.4282
14700TIP3    H165515   2.184   0.343  15.106 -0.8288  0.3270 -0.1012
14700TIP3    H265516   2.240   0.475  15.153 -0.5218 -0.1506  0.9078
14701TIP3   OH265517   2.531   5.440   4.405 -0.2976  0.0100 -0.0022
14701TIP3    H165518   2.536   5.533   4.383  0.6956  0.0066  0.1460
14701TIP3    H265519   2.444   5.412   4.376  0.1885  0.4811 -2.0694
14702TIP3   OH265520   3.010   1.082   4.521 -0.2554  0.2784  0.2225
14702TIP3    H165521   3.031   1.056   4.611  0.1437  1.2373  0.4145
14702TIP3    H265522   2.925   1.126   4.528  0.0269  0.8246  0.2107
14703TIP3   OH265523   1.522   5.809   0.215  0.5009 -0.3139 -0.3606
14703TIP3    H165524   1.523   5.880   0.151 -2.9001  0.0631 -0.1469
14703TIP3    H265525   1.524   5.854   0.300  0.4764 -0.6076 -0.2034
14704TIP3   OH265526   3.670   0.804  13.557  0.0767 -0.6283 -0.0337
14704TIP3    H165527   3.712   0.860  13.492  1.1355 -0.4609  0.7630
14704TIP3    H265528   3.584   0.844  13.572  0.7692  0.7595  0.4451
14705TIP3   OH265529   5.863   3.216   1.363 -0.5432  0.3590  0.1680
14705TIP3    H165530   5.883   3.123   1.369  0.7494  0.5626 -0.5561
14705TIP3    H265531   5.793   3.222   1.298 -1.6627 -0.2156  1.2939
14706TIP3   OH265532   2.797   1.680   0.119 -0.0366  0.5914  0.9654
14706TIP3    H165533   2.823   1.592   0.093 -0.0559  1.2191 -1.4860
14706TIP3    H265534   2.703   1.674   0.134 -0.9828  0.8905 -3.4482
14707TIP3   OH265535   0.823   5.119   1.596 -0.1036  0.3268  0.1726
14707TIP3    H165536   0.762   5.083   1.532  1.2567 -0.5288 -0.7015
14707TIP3    H265537   0.780   5.106   1.681 -1.3560  0.2617 -0.4503
14708TIP3   OH265538   1.879   5.309   2.135  0.2690  0.2929 -1.1473
14708TIP3    H165539   1.852   5.220   2.115  0.2249  0.2336 -0.8246
14708TIP3    H265540   1.798   5.356   2.153  0.4146 -0.1429  0.8708
14709TIP3   OH265541   4.461   5.747  14.681 -0.0044  0.6133 -0.3378
14709TIP3    H165542   4.409   5.666  14.677 -0.2351  0.7553 -0.2629
14709TIP3    H265543   4.549   5.718  14.703 -0.1477  0.4077 -0.0208
14710TIP3   OH265544   1.676   1.058   0.594 -0.3004  0.4912  0.7266
14710TIP3    H165545   1.759   1.082   0.554 -0.4782 -1.7730 -1.2062
14710TIP3    H265546   1.687   0.967   0.620 -2.2687  0.0223  0.0851
14711TIP3   OH265547   2.994   1.890   1.423  0.2392  0.4554  0.0379
14711TIP3    H165548   2.986   1.898   1.328  0.6603  0.8082  0.0309
14711TIP3    H265549   2.920   1.938   1.458 -2.4672 -3.1286 -0.1598
14712TIP3   OH265550   4.396   5.269  15.495 -0.5092 -0.1105  0.1632
14712TIP3    H165551   4.423   5.203  15.431 -0.6361 -0.8125  0.8252
14712TIP3    H265552   4.420   5.233  15.580 -0.7372  0.6205  0.5536
14713TIP3   OH265553   5.201   5.880   0.717  0.3414  0.1678  0.2102
14713TIP3    H165554   5.260   5.942   0.760  0.9432  1.0095 -1.7157
14713TIP3    H265555   5.182   5.920   0.632 -0.9450 -1.3291 -0.2612
14714TIP3   OH265556   2.328   0.223   2.386 -0.1169  0.1086  0.6605
14714TIP3    H165557   2.393   0.154   2.373 -0.3370  0.1253 -0.7001
14714TIP3    H265558   2.378   0.295   2.424  0.4931 -0.1853  0.4390
14715TIP3   OH265559   4.680   4.530  13.201  0.1807 -0.4767 -0.3432
14715TIP3    H165560   4.696   4.436  13.194 -0.1886 -0.5748  0.0657
14715TIP3    H265561   4.658   4.557  13.112 -1.5179 -1.1365 -0.1687
14716TIP3   OH265562   0.038   6.368   0.390 -0.0090  0.6476  0.3731
14716TIP3    H165563   0.010   6.348   0.479  1.1075  1.1486  0.8572
14716TIP3    H265564  -0.007   6.304   0.336  1.7350 -1.8264  1.6374
14717TIP3   OH265565   4.460   0.561   5.016 -0.1843  0.1759  0.4882
14717TIP3    H165566   4.430   0.649   5.039 -2.5564 -1.0291  2.4413
14717TIP3    H265567   4.489   0.524   5.099 -1.0306 -1.5238  0.0530
14718TIP3   OH265568   6.401   2.870  13.835 -0.1335  0.2591  0.4509
14718TIP3    H165569   6.347   2.866  13.756 -1.7800  1.6085  1.4176
14718TIP3    H265570   6.479   2.918  13.809 -1.9215  3.2866  0.1845
14719TIP3   OH265571   5.416   4.581   6.150 -0.0948  0.1090  0.2409
14719TIP3    H165572   5.400   4.524   6.225 -0.8425 -1.2738 -0.9137
14719TIP3    H265573   5.337   4.572   6.096  0.2383  1.4108 -0.5024
14720TIP3   OH265574   3.931   5.787  11.131 -0.2845  0.1364 -0.1297
14720TIP3    H165575   3.903   5.758  11.218 -1.5061  0.7399 -0.3036
14720TIP3    H265576   3.921   5.710  11.075 -2.5093  0.5302 -0.3719
14721TIP3   OH265577   3.396   3.832  13.071 -0.1121 -0.1055  0.3338
14721TIP3    H165578   3.462   3.881  13.120  0.9507 -0.7153 -0.4719
14721TIP3    H265579   3.349   3.783  13.139 -0.7617  1.4621  1.0845
14722TIP3   OH265580   3.255   1.482   4.459 -0.0109 -0.0205  0.5162
14722TIP3    H165581   3.235   1.417   4.391 -0.5719  1.7668 -1.1347
14722TIP3    H265582   3.178   1.481   4.515 -0.8578  0.4794 -0.5876
14723TIP3   OH265583   0.893   4.196  10.593  0.7882 -0.1004  0.3938
14723TIP3    H165584   0.798   4.188  10.602  0.5208  1.0256 -1.1614
14723TIP3    H265585   0.913   4.282  10.630  0.7948  0.8806 -1.7828
14724TIP3   OH265586   0.233   5.419  12.574  0.0407 -0.0713  0.1528
14724TIP3    H165587   0.139   5.400  12.571  0.0268  0.1194 -0.8143
14724TIP3    H265588   0.268   5.378  12.496  0.3654  1.9299 -0.8022
14725TIP3   OH265589   3.225   3.294  14.446  0.4732  0.5475  0.1360
14725TIP3    H165590   3.161   3.332  14.506  0.9258  2.1984 -0.3612
14725TIP3    H265591   3.198   3.326  14.360  0.3332 -1.0794 -0.4643
14726TIP3   OH265592   3.401   0.713  11.373 -0.1316 -0.0456 -0.7437
14726TIP3    H165593   3.460   0.755  11.436  0.0515  1.7338 -2.0504
14726TIP3    H265594   3.315   0.718  11.413  0.2066 -0.3638  0.0467
14727TIP3   OH265595   3.830   4.186   0.068  0.1957 -0.1137  0.3580
14727TIP3    H165596   3.790   4.143  -0.008  1.7464  1.3731 -1.3997
14727TIP3    H265597   3.919   4.152   0.070  0.7811  1.3422  0.2399
14728TIP3   OH265598   1.987   3.344  17.059  0.0902  0.0168  0.1176
14728TIP3    H165599   1.991   3.327  16.965  0.2819  0.5388  0.0274
14728TIP3    H265600   1.954   3.263  17.097  1.0106 -0.5699 -0.2929
14729TIP3   OH265601   4.516   2.831  15.259  0.1703  0.4012  0.1050
14729TIP3    H165602   4.525   2.769  15.187  0.7558 -0.1947  0.6780
14729TIP3    H265603   4.422   2.848  15.265 -0.1005 -1.1505  0.5486
14730TIP3   OH265604   0.909   6.367  13.455 -0.5421  0.4495  0.0701
14730TIP3    H165605   0.849   6.356  13.381 -0.1664  0.6259 -0.2641
14730TIP3    H265606   0.997   6.361  13.416 -0.3295  1.6827  0.3273
14731TIP3   OH265607   6.344   5.782   4.964  0.7104  0.4017  0.0983
14731TIP3    H165608   6.375   5.768   5.054  0.7541  2.1351  0.3919
14731TIP3    H265609   6.315   5.695   4.935  0.0987 -0.0882  2.0096
14732TIP3   OH265610   5.033   3.535   5.541  0.5085  0.6539  0.0127
14732TIP3    H165611   5.020   3.441   5.536  1.9904  0.4439 -3.6810
14732TIP3    H265612   4.945   3.572   5.542 -0.0911 -0.7268  1.4223
14733TIP3   OH265613   0.973   2.622   5.602  0.1199 -0.0390  0.2029
14733TIP3    H165614   0.885   2.658   5.608 -0.1046 -0.0250 -2.1266
14733TIP3    H265615   0.961   2.527   5.600 -0.3898 -0.0951 -4.1810
14734TIP3   OH265616   0.835   5.544  15.293  0.0019  0.3836  0.1387
14734TIP3    H165617   0.917   5.502  15.320  0.4208  0.9103 -0.2844
14734TIP3    H265618   0.832   5.532  15.198 -0.7326 -0.1897  0.2346
14735TIP3   OH265619   0.128   3.542   2.760  0.1200 -0.2960 -0.3700
14735TIP3    H165620   0.093   3.544   2.671  0.3133 -0.3535 -0.4474
14735TIP3    H265621   0.190   3.615   2.762 -0.9237  0.6171  0.1460
14736TIP3   OH265622   0.799   4.887  14.470 -0.1982 -0.1166  0.1012
14736TIP3    H165623   0.760   4.957  14.522  0.0023 -0.3004  0.5027
14736TIP3    H265624   0.855   4.933  14.407  0.8412  0.0633  1.1054
14737TIP3   OH265625   2.454   5.641  12.351  0.2101  0.5970  0.6099
14737TIP3    H165626   2.372   5.681  12.380 -0.4188 -0.5677  0.4867
14737TIP3    H265627   2.499   5.617  12.432 -1.2664 -2.0931  0.7337
14738TIP3   OH265628   0.801   2.561   1.682 -0.3832 -0.2371  0.0810
14738TIP3    H165629   0.843   2.640   1.717  1.3009 -0.7738 -0.6142
14738TIP3    H265630   0.790   2.504   1.759 -0.0464  0.0158  0.3199
14739TIP3   OH265631   3.122   6.739   0.723 -0.2011 -0.0409 -0.1358
14739TIP3    H165632   3.118   6.791   0.803 -2.1044 -0.1931 -0.1011
14739TIP3    H265633   3.099   6.650   0.751  0.2726 -0.3451 -0.6745
14740TIP3   OH265634   3.411   0.718  13.416  0.1919  0.6677  0.1880
14740TIP3    H165635   3.334   0.747  13.368  1.6035  2.0033 -1.4457
14740TIP3    H265636   3.458   0.662  13.354  1.5949  1.6719  0.2748
14741TIP3   OH265637   0.498   6.036  17.198  0.3481 -0.2907  0.5863
14741TIP3    H165638   0.522   6.126  17.218  2.2285 -0.5952 -0.1593
14741TIP3    H265639   0.516   5.988  17.278 -2.1693  0.1767  1.5435
14742TIP3   OH265640   0.558   0.456   6.208 -0.5697  0.6567 -0.1431
14742TIP3    H165641   0.557   0.521   6.278  1.7955  1.0893 -0.4084
14742TIP3    H265642   0.622   0.391   6.237 -0.9199 -0.1280 -1.0738
14743TIP3   OH265643   6.014   0.983  12.291  0.0194  0.0752  0.1587
14743TIP3    H165644   5.975   1.066  12.317 -0.8277 -0.6069  1.1283
14743TIP3    H265645   5.970   0.917  12.344  0.3102 -1.0653 -0.9522
14744TIP3   OH265646   4.591   3.317  16.657 -0.4305 -0.6291  0.1784
14744TIP3    H165647   4.563   3.235  16.698 -2.7132 -0.4737 -0.8833
14744TIP3    H265648   4.660   3.350  16.714 -2.0070 -1.4235  2.7460
14745TIP3   OH265649   5.379   5.773  11.992  0.4037  0.0447 -0.1440
14745TIP3    H165650   5.472   5.798  11.991  0.7760 -1.2725  0.3108
14745TIP3    H265651   5.371   5.708  11.923  0.0268 -0.5634  0.4712
14746TIP3   OH265652   5.329   0.862  16.137  0.1363 -0.1034 -0.5229
14746TIP3    H165653   5.328   0.894  16.047 -1.5376  1.4566 -0.0134
14746TIP3    H265654   5.387   0.922  16.183  1.5805 -1.3376 -0.6511
14747TIP3   OH265655   5.443   6.718  16.368  0.0731  0.3332  0.0815
14747TIP3    H165656   5.518   6.713  16.427 -1.7855  1.5918  2.7420
14747TIP3    H265657   5.452   6.802  16.324  0.7420  0.0076 -0.4200
14748TIP3   OH265658   1.926   3.005   0.321 -0.1529 -0.3374 -0.0791
14748TIP3    H165659   1.944   2.941   0.390 -2.0170  0.0723  0.8390
14748TIP3    H265660   1.937   2.955   0.239 -0.5719 -1.5616  0.5877
14749TIP3   OH265661   4.828   2.853   2.099 -0.2785 -0.7295 -0.7390
14749TIP3    H165662   4.817   2.795   2.023 -0.8242 -1.9143  0.2061
14749TIP3    H265663   4.860   2.935   2.062  2.1184 -2.1021 -2.0092
14750TIP3   OH265664   2.160   6.731  13.829 -0.1392  0.1337 -0.6213
14750TIP3    H165665   2.086   6.741  13.769 -0.5231 -0.8339 -0.3243
14750TIP3    H265666   2.238   6.745  13.774 -0.4468 -1.5287 -1.5691
14751TIP3   OH265667   1.370   4.318   3.197  0.4489 -0.4235  0.1721
14751TIP3    H165668   1.348   4.389   3.257  0.5768 -2.0550  2.2870
14751TIP3    H265669   1.433   4.356   3.136 -0.6699  1.6632  0.2448
14752TIP3   OH265670   5.433   0.316   0.413  0.1454 -0.1117 -0.0943
14752TIP3    H165671   5.392   0.372   0.347  2.6736  0.7348 -1.1050
14752TIP3    H265672   5.395   0.230   0.399 -0.7613  0.4617 -1.3890
14753TIP3   OH265673   2.610   6.186   1.639  0.1105  0.2460 -0.4847
14753TIP3    H165674   2.568   6.146   1.714  3.4723 -0.4014  1.2299
14753TIP3    H265675   2.586   6.279   1.645 -1.0180 -0.0728  0.3489
14754TIP3   OH265676   3.292   6.222  16.938 -0.2601 -0.0359  0.1883
14754TIP3    H165677   3.258   6.135  16.960 -0.5637  0.2860  1.0549
14754TIP3    H265678   3.382   6.222  16.970 -0.2465 -0.0472  0.1490
14755TIP3   OH265679   2.598   2.332   2.453  0.1423  0.1571 -0.1152
14755TIP3    H165680   2.584   2.255   2.399 -0.2984  0.6782 -0.7595
14755TIP3    H265681   2.636   2.397   2.394  1.2939  0.1801  0.6087
14756TIP3   OH265682   0.140   1.807  12.305  0.1923  0.3609 -0.4170
14756TIP3    H165683   0.176   1.764  12.227 -0.4220 -0.3390 -0.3223
14756TIP3    H265684   0.136   1.738  12.371  0.7262  0.9546  0.2531
14757TIP3   OH265685   3.410   5.899   5.488 -0.2472 -0.0925  0.3405
14757TIP3    H165686   3.403   5.994   5.500  0.5572  0.0164 -0.0006
14757TIP3    H265687   3.461   5.889   5.408 -2.4432 -0.8227 -1.0629
14758TIP3   OH265688   0.163   5.070  12.147  0.5902 -0.0042  0.4000
14758TIP3    H165689   0.140   4.987  12.106 -0.4202  1.9652 -3.4762
14758TIP3    H265690   0.257   5.079  12.131  0.9172 -0.7497  1.7180
14759TIP3   OH265691   2.649   1.774  15.523  0.1042 -0.1418  0.0261
14759TIP3    H165692   2.681   1.843  15.466 -2.9060  1.3053 -0.1221
14759TIP3    H265693   2.574   1.737  15.476 -0.3273 -1.3016  1.5420
14760TIP3   OH265694   5.102   2.998   3.976  0.1471 -0.2104  0.0605
14760TIP3    H165695   5.008   2.977   3.979  0.1113 -0.2207 -0.8137
14760TIP3    H265696   5.129   3.000   4.067 -0.3596 -1.7941  0.2842
14761TIP3   OH265697   4.268   5.458   0.084  0.3037 -0.5497 -0.2526
14761TIP3    H165698   4.361   5.475   0.069  0.6013 -0.7436  1.1873
14761TIP3    H265699   4.256   5.473   0.178 -0.8919 -1.5346 -0.2221
14762TIP3   OH265700   1.775   1.535   0.336  0.2652  0.1913  0.1085
14762TIP3    H165701   1.760   1.602   0.403 -1.2571 -0.8626  0.8852
14762TIP3    H265702   1.859   1.496   0.359  0.7729  1.2464  0.1300
14763TIP3   OH265703   1.458   1.483  17.058  0.6565  0.1512 -0.8093
14763TIP3    H165704   1.553   1.471  17.053  0.9905  2.2628 -0.4101
14763TIP3    H265705   1.424   1.395  17.075  2.7201 -0.3636  1.2359
14764TIP3   OH265706   5.732   1.019   3.328 -0.0768  0.0342 -0.3497
14764TIP3    H165707   5.772   0.962   3.262  0.1697 -1.2222  0.8365
14764TIP3    H265708   5.678   0.960   3.380 -2.0553  1.3811 -0.7691
14765TIP3   OH265709   0.326   4.943   5.879  0.4550 -0.3565 -0.2183
14765TIP3    H165710   0.342   4.937   5.974 -1.1662 -1.1416  0.0451
14765TIP3    H265711   0.379   4.874   5.841  0.4344 -0.6203  0.2239
14766TIP3   OH265712   1.349   0.166   4.788  0.0671 -0.1402  0.1620
14766TIP3    H165713   1.257   0.143   4.800  0.6050 -2.3434  0.5025
14766TIP3    H265714   1.355   0.196   4.697 -0.9317 -0.2480  0.0530
14767TIP3   OH265715   1.646   6.690   5.073  0.4171 -0.1649  0.7829
14767TIP3    H165716   1.663   6.756   5.139 -0.5555  0.4714  0.4199
14767TIP3    H265717   1.713   6.623   5.087  0.9241  0.5182  1.6558
14768TIP3   OH265718   4.340   2.177  11.466 -0.0510 -0.1295  0.3011
14768TIP3    H165719   4.365   2.194  11.557 -1.7863  0.9710  0.6091
14768TIP3    H265720   4.246   2.191  11.463  0.0679  0.6714 -1.8420
14769TIP3   OH265721   3.158   3.949   2.095 -0.1357  0.8870 -0.2038
14769TIP3    H165722   3.150   4.043   2.113  0.7126  0.7533  0.9924
14769TIP3    H265723   3.242   3.940   2.051  0.7702  0.4914  1.5049
14770TIP3   OH265724   6.582   2.560   4.797 -0.3199  0.0770 -0.2546
14770TIP3    H165725   6.669   2.601   4.802  0.3811 -1.2679 -1.0065
14770TIP3    H265726   6.556   2.549   4.889  1.3083 -1.5193  0.0883
14771TIP3   OH265727   2.770   0.597  17.155  0.1751 -0.5124  0.0943
14771TIP3    H165728   2.677   0.594  17.178  0.2904 -1.8744  0.4678
14771TIP3    H265729   2.807   0.518  17.193  0.9666 -1.4326 -2.3940
14772TIP3   OH265730   5.970   2.637   5.653 -0.2600 -0.0947  0.3775
14772TIP3    H165731   6.010   2.599   5.731  1.6325  0.2011 -0.3970
14772TIP3    H265732   6.044   2.661   5.597 -1.5520 -0.1678 -1.4608
14773TIP3   OH265733   1.710   4.018   5.876  0.1970  0.4488  0.2826
14773TIP3    H165734   1.753   4.075   5.812  1.6252 -1.8897 -1.0010
14773TIP3    H265735   1.775   4.007   5.946  0.7982 -1.1163 -0.4633
14774TIP3   OH265736   6.352   2.433   0.023  0.8890  0.6930  0.2067
14774TIP3    H165737   6.347   2.528   0.032 -1.1194  0.6687 -0.2650
14774TIP3    H265738   6.306   2.398   0.099 -0.8328  0.1979 -0.9947
14775TIP3   OH265739   6.697   0.061   1.374  0.2801  0.4942 -0.2920
14775TIP3    H165740   6.690   0.117   1.297  0.2478 -1.7428 -2.0365
14775TIP3    H265741   6.607   0.036   1.394  0.1202  2.2548  1.5096
14776TIP3   OH265742   6.716   2.587   0.169 -0.3689  0.2028  0.4225
14776TIP3    H165743   6.684   2.572   0.080 -0.3862 -1.3396  0.6686
14776TIP3    H265744   6.793   2.531   0.177 -0.9115 -0.3963  1.6823
14777TIP3   OH265745   2.592   4.186   1.190  0.3708  0.1990 -0.8167
14777TIP3    H165746   2.610   4.143   1.274 -1.3831  2.3691  0.7674
14777TIP3    H265747   2.644   4.266   1.192 -1.8914  1.7438 -0.4036
14778TIP3   OH265748   3.242   3.852   3.350  0.1446 -0.1545 -0.0430
14778TIP3    H165749   3.157   3.850   3.306  1.0710 -0.6659 -1.9120
14778TIP3    H265750   3.256   3.945   3.368 -0.1638  0.1256 -1.1035
14779TIP3   OH265751   3.944   4.884  16.329 -0.1035  0.5088 -0.2282
14779TIP3    H165752   3.933   4.808  16.387 -4.1399  1.0832  0.0221
14779TIP3    H265753   3.960   4.846  16.243 -0.6739 -0.5827  0.1295
14780TIP3   OH265754   1.453   2.305  12.797 -0.2296 -0.0614 -0.0078
14780TIP3    H165755   1.431   2.283  12.707 -0.5097  1.0495 -0.2220
14780TIP3    H265756   1.528   2.364  12.790 -0.4497  0.2845  0.4589
14781TIP3   OH265757   4.193   3.959   2.294  0.4123  0.0072  0.7383
14781TIP3    H165758   4.150   4.043   2.279  1.5119  0.1809 -1.9910
14781TIP3    H265759   4.125   3.894   2.277 -0.0370  0.3166  1.3243
14782TIP3   OH265760   1.883   3.442  16.373  0.2255  0.3214  0.3064
14782TIP3    H165761   1.951   3.375  16.381  0.6214  0.6541 -0.2550
14782TIP3    H265762   1.929   3.522  16.349 -0.4082  0.4467 -0.5562
14783TIP3   OH265763   0.886   1.713  13.711 -0.1698 -0.1838  0.0817
14783TIP3    H165764   0.900   1.694  13.803  0.1586  1.5090  0.4181
14783TIP3    H265765   0.972   1.703  13.670 -0.1133  0.0099  0.1516
14784TIP3   OH265766   5.274   2.862   5.437  0.3014 -0.8448 -0.0376
14784TIP3    H165767   5.205   2.801   5.411  0.2711 -0.6626 -0.3886
14784TIP3    H265768   5.351   2.834   5.386  1.3868 -2.9667  2.5248
14785TIP3   OH265769   2.499   6.055   5.482 -0.1905  0.1268  0.6803
14785TIP3    H165770   2.478   6.114   5.410 -0.6822 -0.2709  0.5022
14785TIP3    H265771   2.554   5.987   5.443  0.1364  0.2984  0.8293
14786TIP3   OH265772   6.396   0.833   5.713 -0.2129 -0.1797 -0.1406
14786TIP3    H165773   6.340   0.757   5.700  1.1509 -1.1385 -0.6993
14786TIP3    H265774   6.461   0.828   5.642  1.0440  0.4382  0.9102
14787TIP3   OH265775   5.351   1.995   0.003  0.1038  0.4223  0.3074
14787TIP3    H165776   5.420   1.965   0.062  0.9126 -0.5120 -1.0840
14787TIP3    H265777   5.391   2.065  -0.049 -0.6979  1.4517  1.0229
14788TIP3   OH265778   5.662   2.424   2.419 -0.3173  0.1873  0.1238
14788TIP3    H165779   5.731   2.483   2.448  0.2091 -1.2741  2.1048
14788TIP3    H265780   5.707   2.360   2.363 -0.5363  0.6035 -0.5338
14789TIP3   OH265781   1.557   2.025   3.085 -0.3138  0.5677 -0.0546
14789TIP3    H165782   1.624   2.079   3.041  0.8543 -0.1559  0.7698
14789TIP3    H265783   1.605   1.948   3.116 -1.8228 -0.6773 -0.6771
14790TIP3   OH265784   1.195   6.625  13.341  0.4172  0.1461 -0.1118
14790TIP3    H165785   1.215   6.657  13.252 -0.2170  1.3684  0.1579
14790TIP3    H265786   1.132   6.554  13.327 -0.3471  0.8961 -0.6170
14791TIP3   OH265787   0.435   0.977  12.414  0.1281  0.3221  0.4110
14791TIP3    H165788   0.402   0.941  12.496  0.4049 -1.7055 -0.3308
14791TIP3    H265789   0.453   0.901  12.359  1.4525  1.5612 -0.9711
14792TIP3   OH265790   3.548   2.687  15.932 -0.1600  0.6157  0.0530
14792TIP3    H165791   3.479   2.753  15.939  1.3304  2.3360 -0.4353
14792TIP3    H265792   3.553   2.647  16.019 -0.5190  1.8015  0.6374
14793TIP3   OH265793   4.687   2.294  14.733 -0.3386 -0.1668 -0.0217
14793TIP3    H165794   4.685   2.386  14.761 -0.2975  0.0640 -0.7429
14793TIP3    H265795   4.687   2.244  14.814  1.3562  0.4942  0.4365
14794TIP3   OH265796   1.516   4.302   5.522  0.1438 -0.2403 -0.3972
14794TIP3    H165797   1.439   4.292   5.467 -0.3355 -1.0415  0.3932
14794TIP3    H265798   1.488   4.274   5.609  0.8303  1.1562  0.3225
14795TIP3   OH265799   5.402   4.475  10.984 -0.1358  0.4975 -0.3959
14795TIP3    H165800   5.341   4.519  10.924 -2.1601  0.7811  1.7353
14795TIP3    H265801   5.456   4.546  11.019  0.9810  0.3451 -1.7073
14796TIP3   OH265802   5.165   3.368  13.789 -0.2375 -0.0590 -0.1474
14796TIP3    H165803   5.220   3.438  13.755 -0.3857  0.5479  0.8191
14796TIP3    H265804   5.082   3.377  13.743  0.0410 -0.1707 -0.6764
14797TIP3   OH265805   5.377   0.775   1.942 -0.0447  0.2048  0.2316
14797TIP3    H165806   5.456   0.823   1.967  0.7557 -0.3712 -1.0905
14797TIP3    H265807   5.309   0.843   1.936  0.8097  1.0232 -0.5450
14798TIP3   OH265808   6.571   6.003   1.347  0.3373  0.9851 -0.0525
14798TIP3    H165809   6.518   5.947   1.404  0.5143 -0.4502 -1.2305
14798TIP3    H265810   6.510   6.070   1.316 -0.2616  0.5953  0.2582
14799TIP3   OH265811   0.463   3.646  15.989  0.2302  0.0314 -0.0170
14799TIP3    H165812   0.473   3.723  16.045 -3.9607 -0.1938  1.3413
14799TIP3    H265813   0.384   3.663  15.938 -0.1365 -2.8677 -0.5888
14800TIP3   OH265814   5.626   2.933  16.437 -0.3927 -0.6000  0.7083
14800TIP3    H165815   5.642   3.014  16.487 -0.6257 -0.0086 -0.1616
14800TIP3    H265816   5.532   2.933  16.420 -0.0461  0.3152 -1.5361
14801TIP3   OH265817   3.734   5.279  12.491  0.2692  0.2275 -0.0836
14801TIP3    H165818   3.662   5.321  12.444 -0.5339 -0.9890  0.0117
14801TIP3    H265819   3.813   5.319  12.454 -0.4226  1.0791 -0.6911
14802TIP3   OH265820   2.030   2.547   1.295 -0.2722 -0.2407 -0.2487
14802TIP3    H165821   2.117   2.548   1.335 -0.4881 -2.4534  0.3674
14802TIP3    H265822   1.977   2.604   1.351  0.6369  0.7248 -0.3489
14803TIP3   OH265823   3.283   4.344   3.570  0.2990 -0.0099  0.0088
14803TIP3    H165824   3.362   4.336   3.624  0.5732 -0.5014 -0.4511
14803TIP3    H265825   3.297   4.422   3.517  0.0193  0.4874  0.6509
14804TIP3   OH265826   6.160   1.928  14.030  0.0182 -0.0993  0.5462
14804TIP3    H165827   6.239   1.948  14.079  0.2105 -2.4285  1.2988
14804TIP3    H265828   6.089   1.967  14.081  0.2791 -1.9417  2.4307
14805TIP3   OH265829   3.099   2.284  16.708 -0.3568 -0.4556 -0.0846
14805TIP3    H165830   3.032   2.284  16.776  0.5975  1.0079  0.9082
14805TIP3    H265831   3.154   2.360  16.728  1.6223 -1.6111 -0.8382
14806TIP3   OH265832   6.070   1.252  14.544  0.5839 -0.0282 -0.7692
14806TIP3    H165833   6.063   1.294  14.459 -1.8285 -0.5685 -0.9023
14806TIP3    H265834   6.161   1.265  14.570  1.0811  1.1305 -2.8996
14807TIP3   OH265835   1.551   2.113   0.853 -0.3432  0.1314  0.0246
14807TIP3    H165836   1.597   2.064   0.784 -0.0689 -1.6560  1.4048
14807TIP3    H265837   1.621   2.160   0.898 -0.1596 -0.7483  0.6747
14808TIP3   OH265838   4.433   0.719  14.968 -0.1252  0.4152 -0.1812
14808TIP3    H165839   4.394   0.684  15.047  0.0560  0.3654 -0.1133
14808TIP3    H265840   4.512   0.764  14.998  1.6211 -2.1366 -0.6363
14809TIP3   OH265841   5.724   2.994   4.926 -0.4096 -0.3518 -0.0939
14809TIP3    H165842   5.715   3.015   5.019  3.2893  0.5084  0.2149
14809TIP3    H265843   5.726   2.898   4.924 -0.4855 -0.3799  0.7136
14810TIP3   OH265844   6.558   2.025   5.103  0.6207  0.4326  0.2020
14810TIP3    H165845   6.605   1.951   5.064 -0.0717 -0.3442  0.8130
14810TIP3    H265846   6.625   2.070   5.155  0.8835 -0.2234  0.4522
14811TIP3   OH265847   0.407   0.734  14.282 -0.3115 -0.1965 -0.0404
14811TIP3    H165848   0.494   0.760  14.253  0.0981 -0.8305  0.6005
14811TIP3    H265849   0.422   0.675  14.356 -1.2955  0.7441  0.9631
14812TIP3   OH265850   5.619   5.800   1.017 -0.2070 -0.0455  0.1918
14812TIP3    H165851   5.623   5.804   1.113 -0.8145  0.6451  0.2023
14812TIP3    H265852   5.694   5.853   0.988  0.8722 -1.4901  0.2639
14813TIP3   OH265853   5.373   0.951   6.101  0.2296  0.2031  0.1626
14813TIP3    H165854   5.370   1.036   6.144 -0.1188  0.9717 -1.3052
14813TIP3    H265855   5.298   0.904   6.135  0.1408  0.6743  0.6240
14814TIP3   OH265856   6.147   0.043   1.678 -0.0852  0.3235  0.1764
14814TIP3    H165857   6.154  -0.006   1.760  0.2280 -0.8423 -0.5152
14814TIP3    H265858   6.133   0.134   1.705  0.7790  0.0862  1.5248
14815TIP3   OH265859   6.025   1.520   0.329 -0.1181 -0.4413 -0.2647
14815TIP3    H165860   5.944   1.474   0.307  0.0410 -0.1140 -1.6683
14815TIP3    H265861   6.019   1.602   0.279  1.2182 -0.5632 -0.6590
14816TIP3   OH265862   0.748   2.492   3.353  0.3777 -0.0238  0.5411
14816TIP3    H165863   0.753   2.445   3.270 -2.2070  1.0243 -0.3219
14816TIP3    H265864   0.735   2.424   3.419 -1.1707 -0.7046 -0.4067
14817TIP3   OH265865   1.632   6.015   4.322 -0.2130  0.2853  0.3419
14817TIP3    H165866   1.538   6.000   4.331 -0.1671  0.0501  0.4277
14817TIP3    H265867   1.646   6.102   4.360 -0.4648  0.5087 -0.0786
14818TIP3   OH265868   5.651   4.696   3.542 -0.3434  0.3508  0.3355
14818TIP3    H165869   5.603   4.713   3.623 -2.1473  1.5797 -0.9041
14818TIP3    H265870   5.647   4.601   3.531 -0.8513  0.2544  1.2397
14819TIP3   OH265871   4.924   4.782  12.128 -0.9839 -0.0750 -0.3308
14819TIP3    H165872   4.948   4.724  12.055 -1.9430  0.7137 -1.3170
14819TIP3    H265873   4.998   4.841  12.138 -0.0323 -1.3594  0.6247
14820TIP3   OH265874   3.564   5.733  13.344 -0.2147 -0.2886 -0.2943
14820TIP3    H165875   3.620   5.658  13.323 -0.5187 -0.5060 -0.3317
14820TIP3    H265876   3.608   5.775  13.417  1.0968  0.7303 -1.6057
14821TIP3   OH265877   3.583   2.819  16.773  0.8202  0.1287 -0.0983
14821TIP3    H165878   3.634   2.740  16.792  1.5730  0.2885 -1.3391
14821TIP3    H265879   3.641   2.873  16.720  0.0723  1.2345  0.1779
14822TIP3   OH265880   4.385   6.384   5.081  0.1925  0.0062  0.5119
14822TIP3    H165881   4.312   6.370   5.141 -1.3256 -0.0804 -1.2544
14822TIP3    H265882   4.425   6.297   5.070 -1.0970 -0.4893 -0.4874
14823TIP3   OH265883   3.505   5.307  12.783 -0.0342  0.4013 -0.0996
14823TIP3    H165884   3.525   5.400  12.794  0.7285  0.1379  0.9240
14823TIP3    H265885   3.429   5.305  12.725 -1.0578  1.7280  1.1474
14824TIP3   OH265886   2.441   6.245  11.497  0.2470  0.0253  0.2173
14824TIP3    H165887   2.422   6.330  11.537  1.3929  0.0233  0.8184
14824TIP3    H265888   2.490   6.266  11.417  1.8524 -0.0620  1.1201
14825TIP3   OH265889   5.339   3.740   0.272 -0.4417 -0.2833 -0.2196
14825TIP3    H165890   5.431   3.720   0.255 -0.3174  0.6093 -0.6746
14825TIP3    H265891   5.338   3.777   0.360 -0.6684 -2.1709  0.6137
14826TIP3   OH265892   4.667   2.877   1.813 -0.3579  0.1489  0.2210
14826TIP3    H165893   4.603   2.904   1.879 -1.0026  1.6205 -0.9456
14826TIP3    H265894   4.682   2.955   1.760  1.2833 -0.5811 -0.4741
14827TIP3   OH265895   5.331   5.828  12.509  0.1006 -0.4386  0.3697
14827TIP3    H165896   5.385   5.880  12.569 -0.7433  2.2471 -1.0212
14827TIP3    H265897   5.393   5.795  12.444  0.5656 -0.6224  0.8949
14828TIP3   OH265898   2.912   6.619   2.530  0.3498  0.0201 -0.0459
14828TIP3    H165899   2.968   6.688   2.493 -0.1518  0.0151 -0.8419
14828TIP3    H265900   2.973   6.559   2.572  0.7908  1.0202  0.7986
14829TIP3   OH265901   1.455   5.326   5.699  0.4810  0.1357 -0.0580
14829TIP3    H165902   1.473   5.417   5.723  0.0937  0.1629  0.1265
14829TIP3    H265903   1.509   5.275   5.758  0.3334  0.2326  0.1610
14830TIP3   OH265904   5.575   3.613  13.087 -0.7946 -0.0497  0.1139
14830TIP3    H165905   5.522   3.618  13.167 -0.0745  0.0743  0.5934
14830TIP3    H265906   5.525   3.556  13.029 -3.6466  3.3691 -1.1411
14831TIP3   OH265907   6.342   2.674   3.183  0.0310  0.3547  0.0001
14831TIP3    H165908   6.304   2.617   3.250  1.4257  0.2079  0.7068
14831TIP3    H265909   6.396   2.736   3.233  1.4996 -0.0742 -1.0023
14832TIP3   OH265910   4.514   0.796  13.053 -0.3618 -0.0848  0.3620
14832TIP3    H165911   4.585   0.751  13.100 -0.0939 -0.3006 -0.2424
14832TIP3    H265912   4.547   0.805  12.964 -0.1160  1.9220  0.6036
14833TIP3   OH265913   1.360   1.388  15.603 -0.0615  0.5831  0.4003
14833TIP3    H165914   1.443   1.373  15.558  0.4438  1.1482  1.1371
14833TIP3    H265915   1.317   1.457  15.551 -0.5606 -0.4340 -0.5920
14834TIP3   OH265916   4.463   6.123   0.187 -0.6530 -0.3924 -0.0725
14834TIP3    H165917   4.554   6.137   0.215  0.4840 -3.7064 -1.5567
14834TIP3    H265918   4.424   6.210   0.189  2.9817  1.4753 -0.8267
14835TIP3   OH265919   4.363   4.752   1.392  0.2852 -0.6396 -0.0294
14835TIP3    H165920   4.356   4.840   1.355  1.7422  0.3611  1.8395
14835TIP3    H265921   4.456   4.731   1.385  0.2953 -1.1546  1.3785
14836TIP3   OH265922   4.054   2.577   1.552  0.3019 -0.7827  0.2281
14836TIP3    H165923   4.094   2.642   1.494 -2.3011  1.9587  1.2004
14836TIP3    H265924   3.999   2.524   1.495  1.3176 -1.1997 -0.3871
14837TIP3   OH265925   5.096   5.812   2.730  0.2182  0.4481  0.3090
14837TIP3    H165926   5.168   5.823   2.667  1.5588 -0.2760  1.6509
14837TIP3    H265927   5.075   5.900   2.758  1.9750  0.5845  1.3623
14838TIP3   OH265928   5.271   2.069  13.729  0.8480 -0.7215 -0.1464
14838TIP3    H165929   5.265   1.990  13.675  1.5532 -0.2480 -0.9328
14838TIP3    H265930   5.208   2.129  13.690  0.7698 -0.6607  0.0690
14839TIP3   OH265931   0.898   5.036   4.985  0.4684 -0.0761 -0.1401
14839TIP3    H165932   0.910   4.945   4.959  0.8085 -0.1903  0.4163
14839TIP3    H265933   0.977   5.081   4.954  0.2460  0.0624 -0.5249
14840TIP3   OH265934   5.796   6.431   4.879  0.0469  0.2607 -0.2744
14840TIP3    H165935   5.811   6.524   4.897 -0.1004  0.1489  0.4924
14840TIP3    H265936   5.871   6.387   4.919 -0.4131 -0.0193  0.2974
14841TIP3   OH265937   5.633   3.966  14.777 -0.4494 -0.3346  0.6493
14841TIP3    H165938   5.613   3.933  14.865  1.3947 -0.0292  1.2417
14841TIP3    H265939   5.667   4.055  14.793  1.4516 -0.8765 -0.1784
14842TIP3   OH265940   5.512   0.150   2.904  0.1595  0.1593  0.5214
14842TIP3    H165941   5.566   0.125   2.978 -1.3712 -0.7454  1.3827
14842TIP3    H265942   5.470   0.232   2.932 -0.1699 -0.0103  0.5278
14843TIP3   OH265943   1.996   3.892   2.581  0.2440 -0.1132 -0.3674
14843TIP3    H165944   1.957   3.844   2.654 -1.0671 -0.8592 -1.5181
14843TIP3    H265945   1.941   3.969   2.569  0.1701 -0.2336 -0.8540
14844TIP3   OH265946   1.225   4.801  15.254 -0.8783  0.0103 -0.3819
14844TIP3    H165947   1.162   4.746  15.301  0.2366  0.7532  2.1258
14844TIP3    H265948   1.189   4.889  15.260 -0.1589  0.2749  0.0779
14845TIP3   OH265949   1.022   3.626   2.630  0.1776  0.2653 -0.1554
14845TIP3    H165950   1.052   3.537   2.652 -0.0247  0.2445  0.0388
14845TIP3    H265951   0.955   3.613   2.563  0.8092  0.3300 -0.8122
14846TIP3   OH265952   4.364   3.535  14.592  0.0218 -0.6750 -0.5878
14846TIP3    H165953   4.334   3.597  14.526 -0.9048  0.3928  0.7649
14846TIP3    H265954   4.335   3.574  14.675 -0.4592 -2.8542  0.3212
14847TIP3   OH265955   2.481   3.291   5.749  0.3384 -0.5165 -0.0070
14847TIP3    H165956   2.489   3.352   5.822 -1.9570  1.1593 -1.0069
14847TIP3    H265957   2.566   3.294   5.706  0.7393  0.9044  0.8086
14848TIP3   OH265958   1.327   2.674   5.102 -0.6150 -0.1837  0.0156
14848TIP3    H165959   1.418   2.692   5.078 -0.8910  1.6982  0.1739
14848TIP3    H265960   1.324   2.581   5.122  1.0424 -0.4764 -0.9898
14849TIP3   OH265961   3.671   1.410   0.421 -0.1657 -0.0124 -0.0130
14849TIP3    H165962   3.730   1.337   0.401  1.0053  0.9815 -0.3075
14849TIP3    H265963   3.721   1.488   0.397 -1.1625  0.9216  0.8555
14850TIP3   OH265964   4.877   5.253  12.939 -0.3558  0.8626 -0.1202
14850TIP3    H165965   4.964   5.293  12.929  0.1088 -0.4496 -1.7882
14850TIP3    H265966   4.847   5.238  12.849 -1.9243  0.4251  0.4409
14851TIP3   OH265967   4.160   0.048   0.981  0.0011  0.0987 -0.1055
14851TIP3    H165968   4.113   0.111   0.927  0.6879  1.4128  0.7657
14851TIP3    H265969   4.096   0.019   1.046  0.1569  1.2709  0.5832
14852TIP3   OH265970   4.575   6.701   1.728 -0.3138 -0.7129  0.2507
14852TIP3    H165971   4.544   6.790   1.712 -0.4185 -0.8219 -0.1540
14852TIP3    H265972   4.650   6.690   1.670 -1.6607 -1.6511 -1.4207
14853TIP3   OH265973   5.063   0.779  17.109  0.1062 -0.1015 -0.0379
14853TIP3    H165974   5.140   0.835  17.106  0.5623 -0.5715  1.7265
14853TIP3    H265975   4.993   0.835  17.143  0.5490 -0.5324  1.6733
14854TIP3   OH265976   5.230   0.330  11.871  0.4984  0.3772  0.3168
14854TIP3    H165977   5.152   0.276  11.887  1.0863 -0.8341 -0.7416
14854TIP3    H265978   5.197   0.411  11.832 -0.2277 -0.1682 -0.2136
14855TIP3   OH265979   3.215   6.664  16.229  0.2027  0.1812  0.4528
14855TIP3    H165980   3.294   6.696  16.273  0.9833 -0.7196 -0.2473
14855TIP3    H265981   3.206   6.574  16.258  0.3232 -0.2038 -0.6613
14856TIP3   OH265982   0.768   6.294   2.172  0.0608  0.4698 -0.3198
14856TIP3    H165983   0.673   6.301   2.167  0.0602  0.8572  0.1421
14856TIP3    H265984   0.800   6.375   2.132  0.2005  0.2200 -0.7103
14857TIP3   OH265985   5.653   5.339   4.174 -0.3040 -0.1988 -0.4001
14857TIP3    H165986   5.724   5.317   4.113 -0.5876  0.0724 -0.8338
14857TIP3    H265987   5.683   5.420   4.216 -0.4205 -0.0070 -0.6865
14858TIP3   OH265988   1.622   1.777  14.664  0.0808  0.0630  1.0781
14858TIP3    H165989   1.677   1.728  14.725 -0.6064 -1.6218  0.3970
14858TIP3    H265990   1.544   1.723  14.653  0.3589  0.0674 -1.6198
14859TIP3   OH265991   6.364   1.425   1.924  0.0648 -0.3964  0.1092
14859TIP3    H165992   6.366   1.473   1.841  0.3201 -1.6698 -0.6555
14859TIP3    H265993   6.437   1.362   1.917 -0.4024 -1.0516  0.9549
14860TIP3   OH265994   3.028   4.154   1.157  0.4711  0.1699 -0.0988
14860TIP3    H165995   3.003   4.187   1.070  0.8644  0.0933 -0.2468
14860TIP3    H265996   3.065   4.230   1.201 -1.3532  0.6566  0.6720
14861TIP3   OH265997   4.615   1.409  17.193  0.7443 -0.4824  0.2468
14861TIP3    H165998   4.659   1.459  17.125 -0.8328  1.8866  0.8056
14861TIP3    H265999   4.613   1.469  17.268 -3.4556 -0.2337  0.1837
14862TIP3   OH266000   2.286   2.491  15.758  0.0409 -0.4811 -0.6753
14862TIP3    H166001   2.308   2.581  15.782 -2.3168 -0.0463  0.1461
14862TIP3    H266002   2.268   2.495  15.664 -0.4616  0.0237 -0.5679
14863TIP3   OH266003   3.524   2.926  15.630 -0.5157 -0.0534  0.1059
14863TIP3    H166004   3.607   2.923  15.679 -1.4586 -0.5436  1.7394
14863TIP3    H266005   3.551   2.920  15.538  1.2540 -0.2987  0.5931
14864TIP3   OH266006   0.816   5.882  14.675 -0.4409 -0.0242 -0.2359
14864TIP3    H166007   0.831   5.800  14.628  0.0784  0.8548 -1.6586
14864TIP3    H266008   0.884   5.883  14.742  1.9951  0.8964 -2.5420
14865TIP3   OH266009   6.028   4.790   0.735  0.6132 -0.0929  0.0149
14865TIP3    H166010   5.993   4.878   0.721 -1.5795 -0.8683  0.2001
14865TIP3    H266011   6.096   4.801   0.802 -0.5696  1.2889  1.0479
14866TIP3   OH266012   5.972   4.074   0.559  0.2594 -0.3928 -0.0796
14866TIP3    H166013   5.995   3.982   0.551  1.2515 -0.2921  1.1856
14866TIP3    H266014   6.016   4.116   0.485 -1.2613 -1.0624 -1.4300
14867TIP3   OH266015   2.492   1.613   0.874  0.2896  0.8490  0.8699
14867TIP3    H166016   2.524   1.625   0.964  0.8126  0.9572  0.6755
14867TIP3    H266017   2.520   1.692   0.828  0.0331  0.7899  0.6044
14868TIP3   OH266018   0.831   4.745  12.976 -0.2390  0.0033 -0.5947
14868TIP3    H166019   0.904   4.710  12.925  1.5138 -0.9998  2.3808
14868TIP3    H266020   0.778   4.668  12.997 -0.4119  0.2529 -0.1157
14869TIP3   OH266021   5.690   6.751  11.278 -0.6893 -0.5731 -0.5296
14869TIP3    H166022   5.744   6.673  11.292 -0.2756 -0.1274  0.4109
14869TIP3    H266023   5.735   6.799  11.209  0.1598 -0.1706  0.2994
14870TIP3   OH266024   6.604   0.486   5.220  0.5384 -0.6662  0.2874
14870TIP3    H166025   6.608   0.581   5.231  0.1225 -0.7118  0.8799
14870TIP3    H266026   6.634   0.470   5.130  0.8175  0.0053  0.2604
14871TIP3   OH266027   0.200   3.979  17.191 -0.2152 -0.5588  0.1937
14871TIP3    H166028   0.241   4.047  17.245 -0.3258 -0.9268  0.7509
14871TIP3    H266029   0.131   3.943  17.247 -1.1063 -0.1492 -0.6267
14872TIP3   OH266030   3.794   1.773   3.518 -0.4691 -0.1745  0.2488
14872TIP3    H166031   3.749   1.817   3.446  0.3895  0.5880  0.1609
14872TIP3    H266032   3.864   1.722   3.476 -0.2744 -0.1163  0.4960
14873TIP3   OH266033   4.840   2.157   0.958 -0.1892 -0.3210  0.0059
14873TIP3    H166034   4.758   2.200   0.981  0.1714  0.0571  0.6193
14873TIP3    H266035   4.828   2.130   0.867 -1.4362 -1.3386  0.4366
14874TIP3   OH266036   6.544   3.706   4.659 -0.5581  0.1861 -0.2313
14874TIP3    H166037   6.618   3.716   4.718 -1.4733  3.0543  0.5864
14874TIP3    H266038   6.566   3.759   4.582  0.0410 -2.4481 -2.0440
14875TIP3   OH266039   1.750   3.360  10.605  0.8697  0.0568 -0.4293
14875TIP3    H166040   1.765   3.418  10.530 -0.1385  1.1767  0.1977
14875TIP3    H266041   1.657   3.368  10.624  1.0765 -0.2902  0.8585
14876TIP3   OH266042   6.523   1.705   0.849  0.0094 -0.2989 -0.4444
14876TIP3    H166043   6.564   1.671   0.770  1.6922 -0.4373  0.4462
14876TIP3    H266044   6.578   1.777   0.877  0.3173 -1.1651  1.3855
14877TIP3   OH266045   2.885   4.088  16.341 -0.0348 -0.5456 -0.2640
14877TIP3    H166046   2.922   4.121  16.259  0.3384 -1.4872 -0.4944
14877TIP3    H266047   2.892   3.993  16.333 -2.6991 -0.8054 -0.4071
14878TIP3   OH266048   1.223   3.647  17.249  0.7919 -0.2393 -0.8266
14878TIP3    H166049   1.230   3.622  17.341 -0.2218 -2.5591 -1.3137
14878TIP3    H266050   1.301   3.701  17.234  0.5696  0.8725  1.5494
14879TIP3   OH266051   0.878   6.090   1.849 -0.0880 -0.0603 -0.3675
14879TIP3    H166052   0.943   6.138   1.798  1.7272  0.7824  2.4914
14879TIP3    H266053   0.888   5.999   1.823  1.1311  0.2739 -1.1231
14880TIP3   OH266054   1.109   0.044  14.549 -0.2332  0.2605  0.1694
14880TIP3    H166055   1.056  -0.000  14.482 -1.0795 -0.5602  1.3171
14880TIP3    H266056   1.056   0.119  14.575 -1.0684 -0.7522  1.5636
14881TIP3   OH266057   4.866   4.477  10.387 -0.0727  0.0669 -0.3711
14881TIP3    H166058   4.851   4.526  10.468  0.3336  0.3271 -0.4486
14881TIP3    H266059   4.787   4.491  10.336 -0.7812 -0.9676  0.4086
14882TIP3   OH266060   1.338   1.183  11.867 -0.9757  0.4580  0.2800
14882TIP3    H166061   1.386   1.228  11.798  0.0332  0.7615  1.1590
14882TIP3    H266062   1.286   1.117  11.820 -0.1155  0.4778 -0.7453
14883TIP3   OH266063   4.362   2.013  14.342  0.0297 -0.3045  0.1064
14883TIP3    H166064   4.336   1.951  14.274 -1.3614 -1.5216  1.6650
14883TIP3    H266065   4.304   2.088  14.329  0.1384 -0.2988 -0.3719
14884TIP3   OH266066   6.308   1.676  17.114 -0.3123  0.3388 -0.2271
14884TIP3    H166067   6.308   1.586  17.146 -1.1540  0.8623  1.3423
14884TIP3    H266068   6.280   1.670  17.023 -1.6381 -0.8840  0.2322
14885TIP3   OH266069   6.160   4.751   4.412 -0.3486  0.0080 -0.2984
14885TIP3    H166070   6.233   4.692   4.432  1.4446  2.5078  1.0191
14885TIP3    H266071   6.164   4.762   4.317  0.0440 -1.0068 -0.4165
14886TIP3   OH266072   2.211   5.911   4.862 -0.0562  0.2739  0.1465
14886TIP3    H166073   2.238   5.987   4.809 -2.2974 -0.1974 -1.8701
14886TIP3    H266074   2.116   5.919   4.867 -1.0528 -4.4851 -3.8729
14887TIP3   OH266075   2.174   3.297  10.969 -0.2998  0.4718 -0.2326
14887TIP3    H166076   2.236   3.287  10.896  0.0337  1.1856 -0.0564
14887TIP3    H266077   2.088   3.295  10.927 -0.1089  1.0384 -0.6786
14888TIP3   OH266078   4.887   3.001   5.722 -0.5185 -0.3432  0.4166
14888TIP3    H166079   4.946   3.012   5.797 -0.7540 -0.5353  0.6354
14888TIP3    H266080   4.904   3.076   5.666 -0.0540 -0.4059  0.4687
14889TIP3   OH266081   4.382   3.796  13.775  0.6821  0.1416 -0.1513
14889TIP3    H166082   4.431   3.826  13.698  0.4280 -0.7964 -0.6977
14889TIP3    H266083   4.429   3.833  13.849  0.1139  2.2505 -0.7812
14890TIP3   OH266084   6.029   2.472  13.376  0.0632 -0.1001  0.5169
14890TIP3    H166085   6.087   2.429  13.312  2.1606  2.7005  0.3092
14890TIP3    H266086   5.956   2.505  13.324 -0.5541 -1.5994  0.3747
14891TIP3   OH266087   2.166   5.563   3.110 -1.0179  0.4858 -0.2397
14891TIP3    H166088   2.109   5.638   3.127  0.0824  1.0400  1.2439
14891TIP3    H266089   2.239   5.599   3.059  0.4351  0.9131  1.9783
14892TIP3   OH266090   5.721   1.640  16.829 -0.1514  0.0366 -1.0573
14892TIP3    H166091   5.741   1.728  16.859  1.3600 -0.5557 -0.2148
14892TIP3    H266092   5.755   1.637  16.739  1.4020 -0.1809 -0.4983
14893TIP3   OH266093   4.668   2.689  15.445  0.0523  0.3283  0.8041
14893TIP3    H166094   4.731   2.749  15.483 -0.6391  0.1273  2.3387
14893TIP3    H266095   4.640   2.731  15.363  0.2973  1.6242  1.3650
14894TIP3   OH266096   0.109   4.366   5.519  0.2495 -0.6829  0.4461
14894TIP3    H166097   0.142   4.455   5.527  0.8876 -1.0060  1.6196
14894TIP3    H266098   0.090   4.356   5.425 -0.0059  0.7314  0.3213
14895TIP3   OH266099   0.434   3.890  15.050 -0.5245 -0.4533  0.2927
14895TIP3    H166100   0.441   3.916  15.142 -2.0060 -2.5969  1.0984
14895TIP3    H266101   0.519   3.911  15.012  0.6091 -0.7846  2.5034
14896TIP3   OH266102   5.589   2.640  11.055 -0.1643  0.0752  0.4501
14896TIP3    H166103   5.604   2.683  10.970 -0.2464 -0.8565 -0.0510
14896TIP3    H266104   5.625   2.552  11.043 -2.0282 -0.7530  0.6853
14897TIP3   OH266105   2.080   6.062   2.304 -0.1015 -0.1944 -0.0425
14897TIP3    H166106   2.106   6.008   2.229 -0.5191 -1.5035  0.7264
14897TIP3    H266107   2.052   6.145   2.266 -1.1715 -1.1598 -1.4107
14898TIP3   OH266108   5.310   1.511  11.445  0.2022 -0.2882  0.4343
14898TIP3    H166109   5.399   1.545  11.455 -0.1141  0.2612  1.6015
14898TIP3    H266110   5.254   1.576  11.489 -0.8524 -0.2853 -0.8475
14899TIP3   OH266111   0.906   4.219  17.227  0.6327 -0.1222  0.1131
14899TIP3    H166112   0.979   4.168  17.190  1.1299  1.4761 -1.1956
14899TIP3    H266113   0.829   4.186  17.181  0.8467 -0.1925 -0.1993
14900TIP3   OH266114   0.085   4.426  13.574  0.0092  0.2995  0.5384
14900TIP3    H166115   0.096   4.516  13.602  1.7514  1.1069 -2.3793
14900TIP3    H266116   0.173   4.389  13.573 -0.4379 -0.8240 -0.1543
14901TIP3   OH266117   5.114   2.655  16.283 -0.1166  0.7344  0.7426
14901TIP3    H166118   5.180   2.695  16.226 -0.6867  0.1555 -0.3574
14901TIP3    H266119   5.165   2.599  16.343  0.5492  1.8866  1.2802
14902TIP3   OH266120   0.264   4.374   6.570 -0.2065 -0.5045  0.2733
14902TIP3    H166121   0.268   4.301   6.633 -1.1123  0.3407  1.3622
14902TIP3    H266122   0.190   4.426   6.600 -0.6119 -0.0194 -1.4863
14903TIP3   OH266123   6.689   6.529  14.259 -0.5631  0.1267  0.0157
14903TIP3    H166124   6.656   6.442  14.239 -0.8325  0.2063  0.1138
14903TIP3    H266125   6.671   6.540  14.353 -0.7221  0.3702 -0.0434
14904TIP3   OH266126   2.557   1.289  13.460 -0.4888  0.0095 -0.0372
14904TIP3    H166127   2.492   1.268  13.393 -1.4014  2.2991  0.0535
14904TIP3    H266128   2.515   1.354  13.515  0.6934 -0.9346  2.0909
14905TIP3   OH266129   0.827   6.577  11.288  0.1231 -0.1105 -0.3684
14905TIP3    H166130   0.807   6.492  11.249 -0.5622  0.0899 -0.4772
14905TIP3    H266131   0.880   6.622  11.223 -1.2732  0.3412 -1.2402
14906TIP3   OH266132   1.321   0.097  15.511  0.2431 -0.4206 -0.0545
14906TIP3    H166133   1.306   0.128  15.600  0.5687 -0.2682 -0.0502
14906TIP3    H266134   1.330   0.176  15.458  0.0863 -0.5101 -0.2160
14907TIP3   OH266135   1.954   5.921  16.295  0.0349 -0.6902 -0.7020
14907TIP3    H166136   2.045   5.941  16.270  0.3905 -2.1102 -0.6732
14907TIP3    H266137   1.917   5.878  16.217 -0.2302 -1.1742 -0.3166
14908TIP3   OH266138   3.522   1.666  16.386  0.1696 -0.2453  0.3583
14908TIP3    H166139   3.483   1.686  16.471  0.8872 -1.2523  0.9436
14908TIP3    H266140   3.523   1.750  16.340 -0.5639  0.2425  1.2029
14909TIP3   OH266141   4.387   4.703  15.878 -0.2986  0.0619  0.5113
14909TIP3    H166142   4.402   4.637  15.946 -1.6381 -2.9920 -1.8755
14909TIP3    H266143   4.433   4.669  15.801 -2.0794  1.2399 -1.1751
14910TIP3   OH266144   2.728   2.552  12.160 -0.2885 -0.2839 -0.2490
14910TIP3    H166145   2.728   2.630  12.104 -1.6083 -0.4569 -0.5101
14910TIP3    H266146   2.678   2.578  12.237 -1.0602 -0.9733 -0.5048
14911TIP3   OH266147   0.845   2.712   0.403 -0.0183 -0.1403 -0.1503
14911TIP3    H166148   0.752   2.734   0.415  0.2694  0.6607  0.7235
14911TIP3    H266149   0.888   2.796   0.390  0.6427 -0.4777 -0.1756
14912TIP3   OH266150   1.412   3.813   4.111  0.1694 -0.0455 -0.6916
14912TIP3    H166151   1.332   3.765   4.132  0.5331  0.3260  1.9045
14912TIP3    H266152   1.432   3.862   4.190  1.3394  2.2601 -2.2997
14913TIP3   OH266153   3.389   0.735  13.095  0.1294  0.5511 -0.1251
14913TIP3    H166154   3.411   0.786  13.018  1.1838  0.3951  0.0575
14913TIP3    H266155   3.469   0.733  13.147 -0.2586 -0.2164  0.4791
14914TIP3   OH266156   3.176   1.420   2.971 -0.0064 -0.0788  0.0338
14914TIP3    H166157   3.189   1.510   3.001 -1.0173 -0.6493  2.3724
14914TIP3    H266158   3.096   1.423   2.918 -1.2247  0.0983  1.8067
14915TIP3   OH266159   3.925   0.841  17.189 -0.0913 -0.0880  0.2105
14915TIP3    H166160   3.993   0.818  17.125  0.4538  0.6914  0.4852
14915TIP3    H266161   3.872   0.907  17.144  0.1039  0.2311  0.4456
14916TIP3   OH266162   4.373   5.699   3.804 -0.2639  0.3776 -0.0222
14916TIP3    H166163   4.466   5.684   3.818 -0.3060  0.8129  0.8116
14916TIP3    H266164   4.333   5.613   3.817  0.0620  0.1022 -0.8186
14917TIP3   OH266165   3.640   1.464   3.930  0.0846 -0.2774  0.0827
14917TIP3    H166166   3.694   1.494   3.856 -2.0807  0.6681 -1.1989
14917TIP3    H266167   3.645   1.535   3.994 -2.0727  1.3380 -1.3929
14918TIP3   OH266168   3.096   0.966   3.868 -0.2924 -0.4106  0.1364
14918TIP3    H166169   3.052   0.892   3.827 -1.0706  0.7033 -1.1235
14918TIP3    H266170   3.108   1.029   3.797  0.2577  0.7138  1.1877
14919TIP3   OH266171   3.771   5.631  14.448 -0.2378 -0.1019 -0.6306
14919TIP3    H166172   3.778   5.555  14.505  1.1473  2.0244  2.2734
14919TIP3    H266173   3.683   5.626  14.411 -0.6982 -2.3251  0.6130
14920TIP3   OH266174   1.874   2.507   2.366 -0.1241 -0.3375  0.5666
14920TIP3    H166175   1.803   2.444   2.354 -1.1021  0.9668 -0.7884
14920TIP3    H266176   1.954   2.455   2.357 -0.9087 -1.3770 -0.6565
14921TIP3   OH266177   6.084   6.033  13.040 -0.4907  0.0271  0.3337
14921TIP3    H166178   6.110   6.050  13.131 -0.8312 -0.5643  0.5506
14921TIP3    H266179   6.014   5.968  13.048  1.2163 -2.0262 -0.4670
14922TIP3   OH266180   3.285   4.115  16.637 -0.4496 -0.1487  0.7492
14922TIP3    H166181   3.314   4.137  16.549 -3.0487  1.6575  0.2367
14922TIP3    H266182   3.325   4.181  16.693  2.6584 -2.3132  1.3536
14923TIP3   OH266183   1.325   0.671   5.200 -0.1378 -0.1345 -0.3599
14923TIP3    H166184   1.403   0.627   5.232  0.2033  1.3655  1.0439
14923TIP3    H266185   1.356   0.727   5.130  0.4548  1.7484  1.3021
14924TIP3   OH266186   0.186   5.078  12.707  0.5525 -0.2184  0.3797
14924TIP3    H166187   0.199   5.000  12.652  2.0052  1.1140 -1.2988
14924TIP3    H266188   0.272   5.120  12.707 -0.2886  1.5621  0.9452
14925TIP3   OH266189   5.270   0.466  14.134 -0.2450  0.1840 -0.2284
14925TIP3    H166190   5.275   0.375  14.165  0.5880  0.5392  0.7594
14925TIP3    H266191   5.280   0.519  14.214 -0.0447  1.1416 -0.8676
14926TIP3   OH266192   0.421   3.184   5.649 -0.3139  0.0648 -0.5828
14926TIP3    H166193   0.334   3.147   5.667 -0.2660  0.3160  0.2181
14926TIP3    H266194   0.425   3.263   5.703  0.1071  0.5029 -1.2388
14927TIP3   OH266195   4.708   1.895  13.171 -0.3222 -0.2599  0.5192
14927TIP3    H166196   4.742   1.815  13.131 -0.0057  0.9510 -1.8186
14927TIP3    H266197   4.613   1.885  13.166 -0.2941 -0.0765 -0.7595
14928TIP3   OH266198   0.287   4.863  15.950 -0.1113  0.0525 -0.0194
14928TIP3    H166199   0.362   4.849  16.007  0.6014 -1.7691 -1.2912
14928TIP3    H266200   0.219   4.804  15.983  0.9845 -2.5808 -2.0887
14929TIP3   OH266201   5.265   0.849   5.275 -0.0676 -0.2275  0.2750
14929TIP3    H166202   5.271   0.942   5.298 -2.2788 -0.4526  2.0997
14929TIP3    H266203   5.197   0.845   5.208 -0.9556 -0.6218  1.1673
14930TIP3   OH266204   6.735   4.522  12.420  0.2043  0.4122  0.2698
14930TIP3    H166205   6.759   4.493  12.509  1.0720 -1.1324 -0.4263
14930TIP3    H266206   6.639   4.525  12.421  0.0153 -2.7280  0.3975
14931TIP3   OH266207   4.877   6.748   1.610 -0.3779 -0.8000  0.4240
14931TIP3    H166208   4.916   6.727   1.695 -0.3869 -0.1729  0.5909
14931TIP3    H266209   4.854   6.841   1.617 -4.6677 -1.7542  1.4063
14932TIP3   OH266210   3.723   2.898   6.039  0.0187  0.3879 -0.4164
14932TIP3    H166211   3.735   2.816   6.086 -2.7351  0.5039  0.6846
14932TIP3    H266212   3.767   2.964   6.093 -1.1188  0.1677  0.8414
14933TIP3   OH266213   3.148   3.723   1.871 -0.1400 -0.3843  0.0345
14933TIP3    H166214   3.150   3.730   1.776  0.3937 -0.2717  0.0514
14933TIP3    H266215   3.200   3.797   1.902 -0.1469 -0.5311  0.4046
14934TIP3   OH266216   1.992   4.194  13.528 -0.1267 -0.1603 -1.1013
14934TIP3    H166217   1.964   4.285  13.533 -1.4825 -0.6257  0.4613
14934TIP3    H266218   2.073   4.197  13.477  0.1916  1.9796 -0.5596
14935TIP3   OH266219   5.043   4.869  15.650  0.1553 -0.2856 -0.2023
14935TIP3    H166220   4.991   4.948  15.663  0.7837 -0.1928  2.1000
14935TIP3    H266221   4.983   4.808  15.606 -1.2253  0.5377  0.4731
14936TIP3   OH266222   0.600   3.311   5.920 -0.1737  0.0179 -0.2327
14936TIP3    H166223   0.583   3.230   5.967 -0.7216 -0.1980 -0.7957
14936TIP3    H266224   0.694   3.309   5.900 -0.0043 -0.0416  0.5539
14937TIP3   OH266225   0.646   2.634   4.686 -0.0266 -0.4109 -0.3534
14937TIP3    H166226   0.595   2.606   4.610  0.0972  0.0776 -0.6204
14937TIP3    H266227   0.601   2.593   4.760 -0.0584 -1.0176 -0.6955
14938TIP3   OH266228   1.828   0.941   3.269 -0.5778  0.2886 -0.1426
14938TIP3    H166229   1.745   0.962   3.311 -0.3877  1.5506 -0.3558
14938TIP3    H266230   1.890   0.933   3.341 -0.6409  0.5403 -0.0608
14939TIP3   OH266231   0.515   5.812  12.666 -0.7172  0.5072 -0.1382
14939TIP3    H166232   0.489   5.844  12.753 -1.2654  1.0750 -0.5059
14939TIP3    H266233   0.434   5.781  12.626 -0.5550  0.7416 -0.6574
14940TIP3   OH266234   6.189   5.670  10.345 -0.6584  0.0037  0.4718
14940TIP3    H166235   6.215   5.647  10.434 -0.2193  0.6550  0.5173
14940TIP3    H266236   6.142   5.754  10.354 -0.1108  0.3649  0.0279
14941TIP3   OH266237   2.204   6.464  13.921 -0.2678 -0.3115  0.2240
14941TIP3    H166238   2.213   6.555  13.892 -0.2123 -0.8213 -1.4593
14941TIP3    H266239   2.287   6.423  13.900  0.3632 -0.3903  2.5694
14942TIP3   OH266240   3.947   5.891  15.022 -0.3762  0.4279  0.6695
14942TIP3    H166241   3.872   5.832  15.018 -0.5455  0.7172 -0.9468
14942TIP3    H266242   4.022   5.833  15.039 -0.6162 -0.1944 -0.3196
14943TIP3   OH266243   4.423   1.019   2.994 -0.0977 -0.4934  0.2628
14943TIP3    H166244   4.418   0.928   3.022 -0.9688 -0.7730 -0.7191
14943TIP3    H266245   4.512   1.029   2.959 -0.3331 -1.2929 -0.6174
14944TIP3   OH266246   6.578   3.179   5.171 -0.2944 -0.6729 -0.3326
14944TIP3    H166247   6.485   3.202   5.173 -0.6190 -1.8633 -0.6691
14944TIP3    H266248   6.624   3.262   5.180 -1.3969  0.0560 -1.2176
14945TIP3   OH266249   3.570   3.045  16.201  0.4693  0.2204  0.3923
14945TIP3    H166250   3.619   2.985  16.258 -0.1061 -0.3120  0.3405
14945TIP3    H266251   3.633   3.070  16.133  0.9883  0.4008  0.9260
14946TIP3   OH266252   1.230   3.320   3.303 -0.0619  0.1925  0.2478
14946TIP3    H166253   1.210   3.283   3.389 -0.4150 -1.3488 -0.4555
14946TIP3    H266254   1.158   3.292   3.248  0.8941 -0.1158 -0.8883
14947TIP3   OH266255   1.660   4.940  16.456  0.7223  0.2572  0.2596
14947TIP3    H166256   1.638   5.024  16.417 -0.5937 -1.0618 -2.0887
14947TIP3    H266257   1.706   4.962  16.537  0.7823  3.1974 -0.4644
14948TIP3   OH266258   1.252   4.338  12.415 -0.5190 -0.0245  0.2196
14948TIP3    H166259   1.251   4.252  12.458  3.0633 -0.3316  0.0026
14948TIP3    H266260   1.216   4.321  12.328 -0.6321 -1.1166  0.4650
14949TIP3   OH266261   4.438   1.097  13.074  0.6811  0.4699 -0.2777
14949TIP3    H166262   4.351   1.084  13.112  0.5497  2.4549  0.1990
14949TIP3    H266263   4.487   1.018  13.099 -0.5703 -0.0537  0.6357
14950TIP3   OH266264   4.750   5.530  11.260 -0.1510 -0.1502  0.3512
14950TIP3    H166265   4.777   5.468  11.328  2.4774 -1.7089 -1.9087
14950TIP3    H266266   4.693   5.479  11.202 -1.0165  0.6647  0.4690
14951TIP3   OH266267   5.714   5.369   1.819 -0.0521 -0.4525  0.4369
14951TIP3    H166268   5.750   5.437   1.877  0.7539  0.0079 -0.5710
14951TIP3    H266269   5.772   5.370   1.742 -1.4317 -0.6587 -0.6329
14952TIP3   OH266270   0.707   0.057  12.597 -0.6573  0.5380 -0.3339
14952TIP3    H166271   0.765   0.095  12.662  1.2447  0.6469 -1.9940
14952TIP3    H266272   0.667  -0.018  12.641  0.0494  0.9897  1.1290
14953TIP3   OH266273   5.665   2.896  15.170  0.1997 -0.3931  0.2332
14953TIP3    H166274   5.733   2.963  15.160  1.0657 -1.1180  0.9924
14953TIP3    H266275   5.617   2.897  15.087  0.8460  0.4544 -0.1464
14954TIP3   OH266276   5.351   3.631   3.837  0.2888  0.3167 -0.0570
14954TIP3    H166277   5.269   3.582   3.829 -0.0283  0.8039  0.1448
14954TIP3    H266278   5.408   3.595   3.769  0.5749 -1.3310  0.9944
14955TIP3   OH266279   5.155   5.586   3.424 -0.3068  0.0096 -0.6666
14955TIP3    H166280   5.250   5.573   3.426 -0.2479  0.4799  1.2258
14955TIP3    H266281   5.118   5.498   3.426  0.0890 -0.1630 -0.8556
14956TIP3   OH266282   1.212   2.671  13.246  0.0850  0.0673 -0.1902
14956TIP3    H166283   1.175   2.583  13.243  0.0679  0.0928 -1.8047
14956TIP3    H266284   1.187   2.705  13.332 -1.1883 -0.9501 -0.1265
14957TIP3   OH266285   5.883   3.698  16.560 -0.1309  0.3599  0.2465
14957TIP3    H166286   5.823   3.748  16.504  1.6367  3.5862  1.0158
14957TIP3    H266287   5.841   3.700  16.647  0.1540  0.9344  0.3737
14958TIP3   OH266288   4.105   0.554  14.184 -0.0668 -0.0985  0.6705
14958TIP3    H166289   4.197   0.530  14.195 -0.0446 -0.0672  0.5564
14958TIP3    H266290   4.106   0.650  14.179  0.2443 -0.1542 -2.2686
14959TIP3   OH266291   4.002   6.113   6.255 -0.0132 -0.5597 -0.6477
14959TIP3    H166292   3.987   6.019   6.255 -1.1877 -0.3957  0.0837
14959TIP3    H266293   4.098   6.123   6.257  0.1093 -1.7347 -0.1847
14960TIP3   OH266294   1.505   2.771  13.149 -0.1424  0.2922  0.3949
14960TIP3    H166295   1.557   2.723  13.085 -0.8612 -0.9031  0.6835
14960TIP3    H266296   1.425   2.795  13.103 -0.1491  0.4834  0.5014
14961TIP3   OH266297   1.738   0.491  10.652 -0.3920 -0.0239  0.0975
14961TIP3    H166298   1.831   0.477  10.639 -0.6773 -1.2158 -0.9217
14961TIP3    H266299   1.732   0.574  10.700  1.3007 -1.3864  2.9233
14962TIP3   OH266300   3.909   1.817   0.893  0.1897 -0.2902  0.4174
14962TIP3    H166301   3.895   1.819   0.798  0.8292  0.4164  0.3269
14962TIP3    H266302   3.924   1.909   0.916 -1.7809 -0.1893  1.4928
14963TIP3   OH266303   2.173   0.993  13.699  0.3357  0.2022  0.1962
14963TIP3    H166304   2.168   0.935  13.775 -1.9152 -2.1096 -1.5648
14963TIP3    H266305   2.264   0.984  13.668  0.3825 -1.3744  0.7326
14964TIP3   OH266306   1.371   3.859  16.794  0.1852 -0.4873 -0.1586
14964TIP3    H166307   1.402   3.943  16.759 -0.7657 -0.3375 -0.6620
14964TIP3    H266308   1.444   3.799  16.777  0.8661  0.2177  0.1805
14965TIP3   OH266309   3.845   4.390  12.908  0.2401  0.0307  0.6556
14965TIP3    H166310   3.884   4.431  12.831 -1.8231  0.4417 -0.2631
14965TIP3    H266311   3.828   4.463  12.967  1.6717 -0.2654  1.4740
14966TIP3   OH266312   1.398   2.482   1.446  0.5107  0.4088  0.0858
14966TIP3    H166313   1.303   2.494   1.456  0.4834  0.1063  0.2130
14966TIP3    H266314   1.410   2.470   1.352  0.4246  0.4831  0.0648
14967TIP3   OH266315   5.344   2.290  12.294 -0.8723  0.2356 -0.6046
14967TIP3    H166316   5.282   2.363  12.283 -2.0000 -0.3763  1.2520
14967TIP3    H266317   5.418   2.314  12.239 -1.8778  2.0165 -1.2909
14968TIP3   OH266318   6.426   4.602  15.457 -0.0566 -0.0723  0.3762
14968TIP3    H166319   6.447   4.516  15.493 -0.6805 -0.7640 -0.8367
14968TIP3    H266320   6.394   4.584  15.369 -1.5825  1.3013  0.6094
14969TIP3   OH266321   3.619   0.819   3.401  0.3764 -0.2977 -0.0113
14969TIP3    H166322   3.713   0.821   3.420  0.2264 -0.6630  0.8276
14969TIP3    H266323   3.579   0.862   3.477 -0.2399 -1.6434  0.4478
14970TIP3   OH266324   2.030   1.861   6.387  0.8786 -0.0373  0.1356
14970TIP3    H166325   1.974   1.814   6.450  1.2307  0.5714  0.9133
14970TIP3    H266326   2.069   1.791   6.334 -1.2191 -0.4658 -0.9818
14971TIP3   OH266327   5.452   3.726   3.234 -0.3253 -0.2522  0.2325
14971TIP3    H166328   5.382   3.685   3.285 -0.6125 -0.0518  0.0005
14971TIP3    H266329   5.533   3.692   3.273 -0.5217  0.3643  1.2215
14972TIP3   OH266330   3.150   1.450   2.393  0.6486 -0.2445 -0.4655
14972TIP3    H166331   3.225   1.467   2.450 -0.2159 -1.8316  1.2518
14972TIP3    H266332   3.126   1.537   2.359  2.2509  0.5105  0.2247
14973TIP3   OH266333   6.054   1.739  12.154  0.1643  0.2047 -0.0215
14973TIP3    H166334   6.134   1.686  12.148  0.8569  1.1041  0.7805
14973TIP3    H266335   6.024   1.749  12.064  0.2083 -1.2512 -0.2094
14974TIP3   OH266336   1.316   5.749   5.512 -0.7502  0.1083  0.2078
14974TIP3    H166337   1.397   5.714   5.476 -2.2397 -0.7395 -2.6833
14974TIP3    H266338   1.257   5.674   5.517 -1.8232  0.9622  0.7564
14975TIP3   OH266339   5.132   2.587   3.003  0.1673  0.3038 -0.1862
14975TIP3    H166340   5.167   2.652   2.943  1.5953  0.0015  0.2824
14975TIP3    H266341   5.168   2.504   2.972  0.8438  0.1340  1.0098
14976TIP3   OH266342   3.704   0.394   3.017  0.5608 -0.3085 -0.5051
14976TIP3    H166343   3.743   0.386   3.104 -0.7812  2.8463  0.5550
14976TIP3    H266344   3.651   0.315   3.007 -0.4465 -0.1153  2.2764
14977TIP3   OH266345   3.942   6.245  17.246  0.2987  0.2179 -0.0083
14977TIP3    H166346   3.872   6.256  17.182  1.2170 -0.2935 -1.1266
14977TIP3    H266347   4.013   6.202  17.198  0.7947 -0.7383  1.4963
14978TIP3   OH266348   1.001   1.439   6.312  0.2512  0.6076  0.4812
14978TIP3    H166349   0.924   1.428   6.368  0.5530  2.4627  1.3494
14978TIP3    H266350   1.068   1.474   6.370  0.7638  2.0702 -0.9195
14979TIP3   OH266351   5.353   3.822   2.972 -0.1543  0.4378 -0.1402
14979TIP3    H166352   5.280   3.760   2.978 -0.3468  0.5409 -1.2210
14979TIP3    H266353   5.401   3.811   3.054  0.2235 -1.6605 -0.6041
14980TIP3   OH266354   1.076   5.921  13.939 -0.0857  0.4012 -0.7968
14980TIP3    H166355   1.156   5.942  13.988 -0.3039  1.5105 -0.9072
14980TIP3    H266356   1.095   5.836  13.898  0.7080  0.2391 -0.1233
14981TIP3   OH266357   5.217   5.638   3.044  0.0256  0.5989 -0.0440
14981TIP3    H166358   5.284   5.681   2.990 -0.9201  2.6429  0.2877
14981TIP3    H266359   5.170   5.582   2.983  1.7291 -0.5311 -0.3701
14982TIP3   OH266360   0.178   3.413  11.122 -0.5476  0.1196  0.4414
14982TIP3    H166361   0.104   3.471  11.142 -0.1283  1.0245 -0.5533
14982TIP3    H266362   0.255   3.464  11.148 -0.2731 -1.9246  4.3387
14983TIP3   OH266363   6.078   6.177  12.321 -0.6947 -0.8864 -0.5133
14983TIP3    H166364   6.074   6.270  12.341  0.4485 -0.4830 -1.9839
14983TIP3    H266365   6.170   6.153  12.336 -0.9660 -1.7873 -0.1802
14984TIP3   OH266366   6.620   6.322  13.055 -0.0654 -0.3981 -0.2532
14984TIP3    H166367   6.680   6.363  13.117  0.1497 -2.3293  0.9242
14984TIP3    H266368   6.587   6.245  13.102 -1.6585 -0.6665 -1.7386
14985TIP3   OH266369   4.726   0.169   4.007 -0.3816  0.1353  0.5615
14985TIP3    H166370   4.691   0.080   3.996  0.1477  0.0645 -0.7741
14985TIP3    H266371   4.665   0.225   3.959 -0.6404  0.4897  1.2888
14986TIP3   OH266372   1.573   3.215   4.376 -0.1047  0.4952 -0.2667
14986TIP3    H166373   1.588   3.199   4.283  1.1727  1.2331 -0.2101
14986TIP3    H266374   1.480   3.195   4.389  0.2555 -2.0955 -1.1538
14987TIP3   OH266375   1.185   5.799   0.472 -0.3823  0.2195 -0.4670
14987TIP3    H166376   1.267   5.848   0.470  1.0529 -2.0386 -1.4925
14987TIP3    H266377   1.137   5.835   0.546  1.5275  1.6110  0.1689
14988TIP3   OH266378   2.455   2.534  15.475  0.7090  0.0392 -0.1098
14988TIP3    H166379   2.417   2.580  15.400 -1.4530 -1.5325 -0.0589
14988TIP3    H266380   2.485   2.604  15.533 -3.3084  1.5930  0.4346
14989TIP3   OH266381   5.053   6.501   2.124 -0.6509 -0.4607 -0.1789
14989TIP3    H166382   5.026   6.427   2.178  0.9726 -0.4815  0.6942
14989TIP3    H266383   5.042   6.577   2.182  1.8414 -0.5683  0.5630
14990TIP3   OH266384   6.636   0.989   4.735 -0.5586 -0.5863 -0.5083
14990TIP3    H166385   6.592   1.072   4.752  2.3470  0.9015  0.4709
14990TIP3    H266386   6.645   0.986   4.639 -1.0437  0.0227 -0.5801
14991TIP3   OH266387   0.765   1.192  16.899 -0.4845 -0.1688  0.3932
14991TIP3    H166388   0.734   1.276  16.865 -0.8566 -0.4957 -0.0869
14991TIP3    H266389   0.798   1.212  16.987  0.0356  0.5956  0.0335
14992TIP3   OH266390   5.012   4.168   6.103  0.5834  0.3131 -0.3978
14992TIP3    H166391   5.025   4.099   6.168 -0.6012 -0.0815 -0.5493
14992TIP3    H266392   5.046   4.131   6.021  0.7751  0.2588 -0.2930
14993TIP3   OH266393   0.504   2.460  13.489 -0.2781 -0.0724  0.1190
14993TIP3    H166394   0.425   2.438  13.538  0.3092 -0.4080  0.9460
14993TIP3    H266395   0.572   2.406  13.529  0.9743  2.3289  1.3967
14994TIP3   OH266396   1.131   2.720   6.345  0.5020  0.0854  0.1596
14994TIP3    H166397   1.060   2.782   6.326 -0.2824 -0.8313  0.0310
14994TIP3    H266398   1.101   2.672   6.422  0.9780 -0.3265  0.0939
14995TIP3   OH266399   5.063   6.059   2.865  0.7827 -0.1170 -0.5389
14995TIP3    H166400   5.147   6.093   2.895  0.9094 -1.1701  0.3624
14995TIP3    H266401   5.003   6.074   2.939  0.2009  0.5040 -1.1219
14996TIP3   OH266402   0.134   4.560   5.786  0.1417 -0.4851  0.8218
14996TIP3    H166403   0.052   4.608   5.780 -0.1349 -0.6210  2.8854
14996TIP3    H266404   0.125   4.504   5.863  1.3660 -2.1276 -0.1280
14997TIP3   OH266405   5.650   2.450  15.160  0.0126  0.0415  0.6013
14997TIP3    H166406   5.572   2.424  15.209 -0.3134 -1.2434 -0.5368
14997TIP3    H266407   5.616   2.498  15.084  0.3191 -0.4808  0.1255
14998TIP3   OH266408   2.335   0.354  16.881  0.4530  0.5556 -0.1375
14998TIP3    H166409   2.416   0.371  16.930 -0.6244  0.6114  1.7152
14998TIP3    H266410   2.283   0.433  16.892  0.2651  0.6497 -1.6052
14999TIP3   OH266411   6.579   2.923   5.727  0.4249  0.1792  0.4159
14999TIP3    H166412   6.561   3.016   5.712 -2.7632 -0.5210 -1.0038
14999TIP3    H266413   6.646   2.900   5.662 -0.2767  1.0785 -0.6651
15000TIP3   OH266414   4.607   3.322  12.102  0.7439 -0.0137  0.0380
15000TIP3    H166415   4.661   3.337  12.025  1.1222  0.4144  0.3860
15000TIP3    H266416   4.553   3.246  12.079  1.1555 -0.1500 -0.4845
15001TIP3   OH266417   1.436   1.446  15.261  0.2861 -0.3047 -0.4281
15001TIP3    H166418   1.398   1.372  15.213  1.9128 -0.4157 -1.6361
15001TIP3    H266419   1.488   1.405  15.330  0.7193 -0.2805 -0.7359
15002TIP3   OH266420   5.062   2.976  15.870  0.8436  0.0095 -0.0333
15002TIP3    H166421   4.984   2.982  15.814 -0.3395 -0.6537  1.4655
15002TIP3    H266422   5.030   2.939  15.952  2.7516 -0.2335  0.6608
15003TIP3   OH266423   5.733   6.731  13.029 -0.3563  0.1202 -0.1685
15003TIP3    H166424   5.761   6.717  13.119 -1.1640 -1.4841 -0.1290
15003TIP3    H266425   5.638   6.722  13.031 -0.3541 -0.2906 -1.2309
15004TIP3   OH266426   6.770   4.445   6.661  0.1458  0.1164 -0.3056
15004TIP3    H166427   6.679   4.475   6.656  0.2438  0.2357 -1.8277
15004TIP3    H266428   6.820   4.524   6.684 -0.0367  0.2637 -0.4114
15005TIP3   OH266429   1.692   0.666   3.558  0.5108 -0.2901  0.1731
15005TIP3    H166430   1.782   0.634   3.551  1.2576  1.6581  0.2639
15005TIP3    H266431   1.700   0.749   3.604 -1.2882  0.2045 -0.3320
15006TIP3   OH266432   4.540   0.659   4.022 -0.5021 -0.4075 -0.8273
15006TIP3    H166433   4.533   0.577   4.071 -0.9901  0.6388  0.9343
15006TIP3    H266434   4.453   0.699   4.030 -0.7331 -0.3981 -2.9684
15007TIP3   OH266435   2.914   1.003  15.449 -0.0004  0.1369  0.3740
15007TIP3    H166436   2.830   1.022  15.490 -1.2330 -3.2559 -0.2039
15007TIP3    H266437   2.900   1.023  15.356  0.6604  1.7429  0.5910
15008TIP3   OH266438   5.942   4.399   1.363  0.6905 -0.3692 -0.2362
15008TIP3    H166439   5.857   4.371   1.328  1.1933  0.0485 -1.8597
15008TIP3    H266440   5.921   4.474   1.419  0.1007  0.8146 -1.9363
15009TIP3   OH266441   0.679   2.466  12.290  0.2381  0.0362 -0.4647
15009TIP3    H166442   0.713   2.461  12.379  1.3156  2.6183 -0.6578
15009TIP3    H266443   0.595   2.419  12.294  1.0416 -1.3790  1.4506
15010TIP3   OH266444   3.070   2.916  16.149 -0.8818  0.4173  0.3921
15010TIP3    H166445   3.153   2.869  16.144 -0.3698  1.0416  2.1357
15010TIP3    H266446   3.066   2.966  16.068  1.1992  1.5099  0.8861
15011TIP3   OH266447   5.891   5.943   4.121  0.0404 -0.3982  0.2931
15011TIP3    H166448   5.974   5.922   4.164 -0.2211 -0.3685  0.8279
15011TIP3    H266449   5.880   6.037   4.135 -0.0751 -0.3989  0.2088
15012TIP3   OH266450   3.997   2.537  15.312  0.4476 -0.1795 -0.1505
15012TIP3    H166451   4.054   2.607  15.279 -0.9973  1.5489  0.8425
15012TIP3    H266452   3.913   2.553  15.270 -0.5683  0.2024  1.8904
15013TIP3   OH266453   2.403   2.680   4.356  0.1438  0.0764  0.2709
15013TIP3    H166454   2.314   2.666   4.390 -0.1047 -0.7574 -0.6735
15013TIP3    H266455   2.457   2.691   4.434 -0.7912  0.6390  0.8640
15014TIP3   OH266456   6.368   4.367   4.414 -0.1697  0.1036  0.0414
15014TIP3    H166457   6.286   4.339   4.372  0.2796 -0.7947 -0.2646
15014TIP3    H266458   6.426   4.387   4.341  0.1771 -0.1488  0.2443
15015TIP3   OH266459   6.430   3.860   3.623 -0.0273  0.3193  0.3239
15015TIP3    H166460   6.501   3.893   3.678 -1.3591  1.9033  1.1908
15015TIP3    H266461   6.396   3.937   3.578 -1.5329 -0.2895  0.3471
15016TIP3   OH266462   4.940   3.934   4.472 -0.0157 -0.0346 -0.7387
15016TIP3    H166463   4.952   3.944   4.567  0.2667 -1.5001 -0.5940
15016TIP3    H266464   4.995   3.859   4.449 -1.8978 -1.2025 -1.6472
15017TIP3   OH266465   4.707   5.745  14.229 -0.6154  0.1916 -0.1247
15017TIP3    H166466   4.713   5.745  14.325 -0.1954  0.1626 -0.1469
15017TIP3    H266467   4.614   5.739  14.210 -0.6192 -1.4183  0.2656
15018TIP3   OH266468   6.204   0.805  12.652  0.5242 -0.0066  0.7407
15018TIP3    H166469   6.253   0.828  12.573  0.5842 -0.6825  0.5719
15018TIP3    H266470   6.229   0.714  12.670  1.0879  0.3831  1.9794
15019TIP3   OH266471   3.504   5.012   4.243  0.3570  0.2390  0.1628
15019TIP3    H166472   3.462   4.994   4.327  2.3609  2.4843  1.8227
15019TIP3    H266473   3.586   5.056   4.267  0.9529  1.1011 -2.9893
15020TIP3   OH266474   1.439   0.255   5.474 -0.6587  0.0176  0.1162
15020TIP3    H166475   1.513   0.195   5.488  0.3449  1.3603  0.7990
15020TIP3    H266476   1.422   0.293   5.560 -1.0670  0.9495 -0.3582
15021TIP3   OH266477   3.666   4.479  15.129  0.0487 -0.2017 -0.4295
15021TIP3    H166478   3.709   4.511  15.050 -0.8854 -0.0816 -0.9061
15021TIP3    H266479   3.700   4.534  15.200 -0.2585  0.7320 -0.9875
15022TIP3   OH266480   5.754   5.437  13.541  0.0517 -0.4136 -0.3655
15022TIP3    H166481   5.773   5.495  13.614  0.3189  1.7888 -2.0578
15022TIP3    H266482   5.677   5.387  13.570 -0.1061  0.6758  1.2555
15023TIP3   OH266483   4.817   0.000  17.170  0.2256 -0.1270 -0.0308
15023TIP3    H166484   4.863   0.019  17.252  0.7927 -1.3804 -0.0264
15023TIP3    H266485   4.730   0.038  17.181  1.1240  2.0487  0.0867
15024TIP3   OH266486   2.817   5.491  16.222 -0.0858  0.3627  0.1041
15024TIP3    H166487   2.882   5.555  16.190  0.0025  0.3486  0.2533
15024TIP3    H266488   2.860   5.450  16.297 -0.0906  0.0324 -0.0727
15025TIP3   OH266489   6.621   4.477   3.174  0.0372 -0.3036  0.1130
15025TIP3    H166490   6.572   4.469   3.256  0.6746  0.1419  0.5380
15025TIP3    H266491   6.553   4.493   3.108 -0.5437 -1.3960  0.4304
15026TIP3   OH266492   3.089   5.146   6.726 -0.1800  0.2781  0.4198
15026TIP3    H166493   3.075   5.220   6.668  3.0695  1.0463  0.4037
15026TIP3    H266494   3.127   5.184   6.805  1.7669 -1.2934  0.3291
15027TIP3   OH266495   0.897   4.988  12.731 -0.1434  0.6925 -0.2136
15027TIP3    H166496   0.900   5.022  12.820 -0.4714  0.1859 -0.0092
15027TIP3    H266497   0.989   4.971  12.709 -0.1573 -0.3911  0.4993
15028TIP3   OH266498   1.838   2.046  17.196 -0.1324 -0.3171  0.2309
15028TIP3    H166499   1.884   2.008  17.121 -1.7463 -0.4225 -0.7540
15028TIP3    H266500   1.822   1.973  17.255 -0.3424 -0.5539 -0.1189
15029TIP3   OH266501   2.913   6.745  16.687 -0.3785 -0.5760 -0.0262
15029TIP3    H166502   2.988   6.799  16.661 -0.4056 -0.0161  1.0196
15029TIP3    H266503   2.946   6.656  16.688  0.0160 -0.4407 -0.4992
15030TIP3   OH266504   0.274   1.542  10.615  0.4514 -0.1503 -0.0870
15030TIP3    H166505   0.221   1.610  10.575  2.7706  0.4051 -2.4748
15030TIP3    H266506   0.347   1.589  10.656  1.0472 -1.0439 -0.0864
15031TIP3   OH266507   1.471   2.408  16.177 -0.1365  0.4239 -0.4644
15031TIP3    H166508   1.451   2.452  16.095 -1.3957  2.7124  0.9447
15031TIP3    H266509   1.407   2.444  16.239  0.3875 -1.6413  1.3894
15032TIP3   OH266510   0.449   4.384   3.897  0.0260 -0.0761 -0.0075
15032TIP3    H166511   0.541   4.375   3.869  0.3528 -0.5755  1.1699
15032TIP3    H266512   0.430   4.477   3.885  0.7447  0.0679 -0.1235
15033TIP3   OH266513   0.921   6.612  11.954 -0.0622 -0.0439  0.1011
15033TIP3    H166514   0.944   6.659  12.035  0.1030 -1.9001  1.1836
15033TIP3    H266515   0.975   6.654  11.887  0.8432  0.6574  1.2062
15034TIP3   OH266516   3.012   2.146   3.354 -0.1395  0.1936 -0.0106
15034TIP3    H166517   2.978   2.228   3.318 -1.8951 -0.1051  0.8644
15034TIP3    H266518   3.007   2.084   3.281  3.5407  1.3469 -1.4514
15035TIP3   OH266519   4.990   2.722   5.403 -0.1017  0.3575  0.3250
15035TIP3    H166520   4.924   2.729   5.472  0.1111  0.6410  0.5004
15035TIP3    H266521   4.943   2.683   5.329 -0.2667 -0.1727  0.7102
15036TIP3   OH266522   2.107   4.624   3.445 -0.3299  0.2738  0.6378
15036TIP3    H166523   2.196   4.658   3.432 -1.0103  1.5296 -1.1219
15036TIP3    H266524   2.120   4.542   3.491  1.7960  0.2125  0.0607
15037TIP3   OH266525   6.663   4.660  14.818  0.3354  0.0251 -0.1550
15037TIP3    H166526   6.746   4.617  14.837 -0.5473 -1.5101  0.4474
15037TIP3    H266527   6.630   4.615  14.740 -1.4905 -1.8435  1.5523
15038TIP3   OH266528   1.334   2.249   2.240  0.6177 -0.1219 -0.8389
15038TIP3    H166529   1.305   2.209   2.323 -0.8780 -0.7869 -1.6292
15038TIP3    H266530   1.355   2.339   2.263  0.1028 -0.2605  0.2597
15039TIP3   OH266531   3.962   5.166  16.568 -0.1190  0.6806  0.1085
15039TIP3    H166532   3.992   5.172  16.477  0.1017  3.7350  0.2745
15039TIP3    H266533   4.043   5.155  16.619 -0.1877 -0.3946  0.0074
15040TIP3   OH266534   6.700   1.831   4.990  0.7787  0.4562 -0.5909
15040TIP3    H166535   6.680   1.791   4.905  0.5647  1.9797 -1.2843
15040TIP3    H266536   6.793   1.816   5.003  0.8197  0.2445 -1.1146
15041TIP3   OH266537   2.977   0.860   2.971  0.1959 -0.2450 -0.5108
15041TIP3    H166538   2.977   0.764   2.976  1.0731 -0.2020  1.4367
15041TIP3    H266539   3.012   0.880   2.885  1.7316 -1.7060 -0.2707
15042TIP3   OH266540   4.095   3.496  16.484  0.7698 -0.0119 -0.3001
15042TIP3    H166541   4.132   3.408  16.475 -0.5594 -0.5876 -0.2792
15042TIP3    H266542   4.169   3.554  16.466  1.6386 -1.1228 -0.4619
15043TIP3   OH266543   5.954   4.909  15.163 -0.1828  0.4906 -0.0171
15043TIP3    H166544   6.020   4.841  15.173  0.3648  1.2147  1.5480
15043TIP3    H266545   5.998   4.980  15.117 -0.0114  0.7759  0.5832
15044TIP3   OH266546   6.019   0.774  13.429  0.7953  0.1394  0.1744
15044TIP3    H166547   6.048   0.860  13.460 -0.3448  0.8347 -0.5931
15044TIP3    H266548   6.099   0.728  13.407  1.4000  1.2616 -0.0636
15045TIP3   OH266549   3.810   3.342   5.470 -0.5139 -0.5880 -0.1184
15045TIP3    H166550   3.751   3.358   5.544  0.3644 -1.1095  0.7098
15045TIP3    H266551   3.794   3.415   5.410  0.6738  1.3163  1.7903
15046TIP3   OH266552   4.711   1.764  13.693  0.6059  0.3952  0.7452
15046TIP3    H166553   4.703   1.669  13.702  0.6768  0.4175  1.0668
15046TIP3    H266554   4.704   1.797  13.783 -0.7707  0.7974  0.5106
15047TIP3   OH266555   3.433   4.689   0.059  0.2734 -0.5662 -0.1846
15047TIP3    H166556   3.444   4.595   0.045 -0.9359 -0.7648  0.1218
15047TIP3    H266557   3.361   4.714   0.002  1.0047  0.3203 -0.7586
15048TIP3   OH266558   5.173   3.263  11.438 -0.0453 -0.0915 -0.2760
15048TIP3    H166559   5.137   3.352  11.437 -1.4190 -0.5869  1.1404
15048TIP3    H266560   5.267   3.275  11.451 -0.3732  1.1486  1.2547
15049TIP3   OH266561   2.443   3.039  12.723  0.3955  0.2225 -0.0449
15049TIP3    H166562   2.484   3.001  12.800 -1.3176 -0.7322  0.4334
15049TIP3    H266563   2.385   3.107  12.757  0.7482  0.8342 -0.6249
15050TIP3   OH266564   6.411   5.230   3.033  0.3405  0.2487 -0.0801
15050TIP3    H166565   6.487   5.204   3.085 -0.9457 -1.6384  0.9704
15050TIP3    H266566   6.437   5.213   2.943  1.4811  0.5409  0.1719
15051TIP3   OH266567   0.122   6.611   1.803 -0.3931 -0.3134  0.3285
15051TIP3    H166568   0.130   6.668   1.727  0.4257  0.9158  1.3079
15051TIP3    H266569   0.124   6.522   1.767 -1.3973  0.2396 -1.1970
15052TIP3   OH266570   2.893   6.017   3.567 -0.2904 -0.3431 -0.2577
15052TIP3    H166571   2.986   6.036   3.552 -0.2695  1.1067  1.4640
15052TIP3    H266572   2.848   6.066   3.498  0.1453  0.3941 -0.0347
15053TIP3   OH266573   3.113   5.965   0.177  0.0041  0.2554  0.3575
15053TIP3    H166574   3.106   5.913   0.257 -2.4692  0.3012  0.2624
15053TIP3    H266575   3.123   6.056   0.207 -1.6532  0.3579  0.6777
15054TIP3   OH266576   1.579   5.365   5.951  0.0740  0.5394 -0.1913
15054TIP3    H166577   1.594   5.352   6.045  0.1593  0.1272 -0.2580
15054TIP3    H266578   1.634   5.439   5.927  0.6227  0.1714 -0.0690
15055TIP3   OH266579   3.552   2.248  11.849  0.2362 -0.1267  0.7466
15055TIP3    H166580   3.557   2.213  11.760 -2.0311  0.1162  0.4602
15055TIP3    H266581   3.558   2.342  11.838 -0.7670 -0.0495  0.7385
15056TIP3   OH266582   0.842   1.311   5.753 -0.1449 -0.1387  0.1562
15056TIP3    H166583   0.802   1.337   5.836 -1.4795  1.1391 -0.8298
15056TIP3    H266584   0.769   1.305   5.692  0.6871 -1.9796 -0.7434
15057TIP3   OH266585   5.233   1.103   3.176 -0.7344  0.0439  0.1199
15057TIP3    H166586   5.303   1.053   3.135 -0.7788  2.4125 -3.3711
15057TIP3    H266587   5.153   1.056   3.153 -0.5405 -0.3135  0.1805
15058TIP3   OH266588   5.396   6.418   3.940 -0.6393 -0.6623 -0.0486
15058TIP3    H166589   5.305   6.410   3.912 -1.0556  1.8256  0.3893
15058TIP3    H266590   5.447   6.404   3.860 -1.5867  1.3590 -1.0691
15059TIP3   OH266591   6.199   1.538  16.510 -0.1444  0.2993 -0.3904
15059TIP3    H166592   6.189   1.631  16.493 -0.6871  0.1808 -0.7555
15059TIP3    H266593   6.293   1.523  16.509 -0.0804  0.5477 -2.0188
15060TIP3   OH266594   3.092   2.860   1.256 -0.5680  0.0755 -0.0160
15060TIP3    H166595   3.177   2.845   1.216  0.2969 -0.0416  1.7770
15060TIP3    H266596   3.035   2.793   1.219  0.4919 -0.7718 -0.1431
15061TIP3   OH266597   4.388   1.230   0.489  0.5829 -0.5148  0.0084
15061TIP3    H166598   4.475   1.193   0.502  1.7951  2.2015  0.2592
15061TIP3    H266599   4.377   1.233   0.394  1.1948  0.0124 -0.0519
15062TIP3   OH266600   1.338   4.442   4.094 -0.3526  0.6604 -0.4624
15062TIP3    H166601   1.362   4.480   4.179 -0.2009  0.9125 -0.6157
15062TIP3    H266602   1.243   4.448   4.091 -0.5769 -1.4467  0.6758
15063TIP3   OH266603   6.211   2.041  16.223 -0.3347  0.6987 -0.5060
15063TIP3    H166604   6.283   2.086  16.180 -0.0098  0.2932 -0.3887
15063TIP3    H266605   6.144   2.031  16.155  0.1703  0.0703 -0.9166
15064TIP3   OH266606   1.523   4.165   2.503 -0.4301 -0.5853  0.4149
15064TIP3    H166607   1.561   4.221   2.570  0.0854 -0.5067  0.0665
15064TIP3    H266608   1.533   4.215   2.422  1.1013 -1.6352 -0.0931
15065TIP3   OH266609   2.669   6.450   2.450 -0.3521 -0.3314  0.1583
15065TIP3    H166610   2.728   6.523   2.468 -0.3562 -0.6606  1.6685
15065TIP3    H266611   2.725   6.383   2.411 -0.0408 -0.0730  0.1580
15066TIP3   OH266612   6.337   0.334  17.132 -0.9607  0.7002  0.8301
15066TIP3    H166613   6.292   0.353  17.049  0.7712  0.3754 -0.2423
15066TIP3    H266614   6.378   0.418  17.155  1.7840 -0.0501 -0.7860
15067TIP3   OH266615   6.247   5.508   4.980  0.2767 -0.7892 -0.5939
15067TIP3    H166616   6.287   5.424   5.004 -0.3874 -0.7476  0.7135
15067TIP3    H266617   6.159   5.485   4.951 -0.4455 -0.4439  1.1877
15068TIP3   OH266618   0.904   5.526  13.050  0.0392 -0.2406 -0.2706
15068TIP3    H166619   0.907   5.565  13.137 -2.8466 -0.8837  0.2196
15068TIP3    H266620   0.900   5.432  13.066 -3.8609 -0.3283 -0.7707
15069TIP3   OH266621   2.786   3.348   2.967 -0.2075 -0.0759 -0.0526
15069TIP3    H166622   2.773   3.260   3.002 -1.8538  0.2957  0.4186
15069TIP3    H266623   2.880   3.357   2.956 -0.0184 -1.8976 -0.1442
15070TIP3   OH266624   3.714   4.822   0.689  0.2510 -0.5541 -0.0923
15070TIP3    H166625   3.718   4.728   0.675 -0.2149 -0.3285 -2.0576
15070TIP3    H266626   3.759   4.836   0.773  1.8906 -2.3299 -0.6003
15071TIP3   OH266627   5.926   0.259   3.091  0.3552  0.1769  0.1226
15071TIP3    H166628   5.949   0.189   3.030 -0.2535 -0.4639  0.6025
15071TIP3    H266629   5.887   0.327   3.036  1.2741  0.2910 -0.3944
15072TIP3   OH266630   3.683   2.941   3.982  0.1998 -0.0061  0.7497
15072TIP3    H166631   3.723   2.981   3.905 -1.2375  0.3703  0.1761
15072TIP3    H266632   3.589   2.957   3.972 -0.2531 -1.9730  1.4101
15073TIP3   OH266633   2.394   3.652   4.083  0.1060  0.2816 -0.1120
15073TIP3    H166634   2.404   3.586   4.152  0.1468  0.7289  0.3228
15073TIP3    H266635   2.431   3.612   4.005  0.6925  0.0269  0.2932
15074TIP3   OH266636   5.152   3.163   0.434  0.3100 -0.0056  0.5086
15074TIP3    H166637   5.085   3.181   0.368  0.7303  1.9717  0.5600
15074TIP3    H266638   5.105   3.163   0.517  0.5224  3.2037  0.7444
15075TIP3   OH266639   2.182   2.161   0.909  0.5959  0.2358  1.1388
15075TIP3    H166640   2.205   2.106   0.985 -0.6467  0.6111  1.8172
15075TIP3    H266641   2.131   2.103   0.852  3.2654 -0.6771 -0.4968
15076TIP3   OH266642   6.719   5.016  14.220  0.2510 -0.1745  0.1852
15076TIP3    H166643   6.761   5.084  14.273  0.2939 -1.9852  2.6952
15076TIP3    H266644   6.659   4.972  14.281  0.4288 -2.5348 -1.2057
15077TIP3   OH266645   4.604   4.564   1.856 -0.1735  0.2430  0.0343
15077TIP3    H166646   4.639   4.523   1.777 -0.7219  2.9066 -1.7347
15077TIP3    H266647   4.681   4.600   1.900 -0.0450  0.4806 -0.3774
15078TIP3   OH266648   5.094   0.871   5.013 -0.0029 -0.3752 -0.6774
15078TIP3    H166649   5.044   0.944   5.049  0.4073  0.0032 -0.8596
15078TIP3    H266650   5.051   0.852   4.930  1.0898  1.0107 -1.6145
15079TIP3   OH266651   3.005   6.691  11.083  0.4485 -0.7889 -0.0413
15079TIP3    H166652   3.054   6.625  11.033 -0.0011 -0.1777 -1.3377
15079TIP3    H266653   3.069   6.729  11.143  1.9184  0.7540 -2.4239
15080TIP3   OH266654   3.638   2.681   5.366  0.0261 -0.2870  0.3130
15080TIP3    H166655   3.690   2.715   5.439  1.7628  1.4079 -1.5922
15080TIP3    H266656   3.578   2.752   5.343 -1.1981 -1.1768  0.6732
15081TIP3   OH266657   6.127   3.202   1.999  0.3338 -0.3320  0.4658
15081TIP3    H166658   6.125   3.208   2.095 -1.1732  0.1630  0.4215
15081TIP3    H266659   6.200   3.143   1.981  0.9954 -0.0052  1.8940
15082TIP3   OH266660   0.258   1.184  14.486  0.0193 -0.6859  0.1091
15082TIP3    H166661   0.265   1.265  14.436  0.6088  0.8979  2.6053
15082TIP3    H266662   0.240   1.117  14.420  1.1836  1.1743 -2.2349
15083TIP3   OH266663   4.405   3.744  11.178  0.1342  0.0477  0.4892
15083TIP3    H166664   4.343   3.680  11.142  0.1751 -0.2771  0.9886
15083TIP3    H266665   4.352   3.821  11.198  0.2023  0.4462 -0.7832
15084TIP3   OH266666   4.012   0.931   4.002 -0.2279 -0.0330 -0.3984
15084TIP3    H166667   4.087   0.921   4.061  0.4219 -0.2392 -1.2503
15084TIP3    H266668   3.982   0.842   3.986 -1.2226  0.0924  0.6335
15085TIP3   OH266669   6.331   0.562  12.335  0.0091  0.1775  0.0376
15085TIP3    H166670   6.280   0.519  12.404  0.6500 -0.0914  0.3528
15085TIP3    H266671   6.360   0.491  12.278 -0.4766  0.3935 -0.4921
15086TIP3   OH266672   5.225   3.434   2.386  0.0495  0.1563 -0.2939
15086TIP3    H166673   5.248   3.521   2.352 -0.3152 -0.0366 -1.0346
15086TIP3    H266674   5.201   3.451   2.477 -0.9521  0.9928 -0.6907
15087TIP3   OH266675   0.118   4.693   2.665 -0.6434 -0.0590  0.1528
15087TIP3    H166676   0.111   4.617   2.723  1.2686  0.2222  0.8203
15087TIP3    H266677   0.028   4.710   2.637 -1.4218 -1.1293  1.8521
15088TIP3   OH266678   3.432   2.163  13.961  0.0172 -0.2544 -0.4078
15088TIP3    H166679   3.490   2.137  14.033 -0.3269 -1.2047 -0.4613
15088TIP3    H266680   3.474   2.129  13.883  0.7902  1.4481 -0.7689
15089TIP3   OH266681   3.873   2.627   1.957 -0.0168 -0.4190 -0.6413
15089TIP3    H166682   3.934   2.698   1.974  0.2916 -0.4300 -1.6297
15089TIP3    H266683   3.904   2.588   1.875 -0.4770 -1.3686 -0.3785
15090TIP3   OH266684   2.142   2.467   4.517  0.3743 -0.1253 -0.3018
15090TIP3    H166685   2.139   2.561   4.536 -1.6507 -0.7236  3.2691
15090TIP3    H266686   2.093   2.457   4.435 -1.9847  1.7071  0.7835
15091TIP3   OH266687   2.041   4.253  15.086 -0.4011 -0.4670 -0.3828
15091TIP3    H166688   1.959   4.302  15.075  0.7370  1.1831 -1.9767
15091TIP3    H266689   2.103   4.318  15.119  0.6985 -1.2973 -0.7802
15092TIP3   OH266690   0.399   1.923  13.198  0.5076 -0.8494 -0.4098
15092TIP3    H166691   0.381   1.874  13.118 -0.2041 -0.6506 -0.3775
15092TIP3    H266692   0.431   2.008  13.167  0.7527 -0.9637 -0.4748
15093TIP3   OH266693   1.080   1.072  17.087  0.3051  0.4107  0.6013
15093TIP3    H166694   1.104   1.104  17.000  1.3564 -1.1624  0.2713
15093TIP3    H266695   0.990   1.040  17.077 -0.5496  2.5383  0.7941
15094TIP3   OH266696   1.914   4.108   4.446  0.0960  0.8014  0.0722
15094TIP3    H166697   1.949   4.194   4.471  0.6315  0.0522  2.0941
15094TIP3    H266698   1.968   4.082   4.371  1.4649  1.2636  0.8609
15095TIP3   OH266699   6.192   3.842   6.805 -0.5216  0.1690  0.2062
15095TIP3    H166700   6.209   3.748   6.793 -2.5615 -0.3124  0.6293
15095TIP3    H266701   6.279   3.882   6.811  0.4066 -1.8017  0.8023
15096TIP3   OH266702   5.912   0.044  12.355 -0.2358 -0.1534 -0.1798
15096TIP3    H166703   5.864  -0.029  12.393  1.0343 -1.5533 -1.1433
15096TIP3    H266704   5.844   0.103  12.322 -1.2958 -1.0037  0.4308
15097TIP3   OH266705   2.235   1.721  15.835  0.6072 -0.4439  0.2375
15097TIP3    H166706   2.256   1.691  15.747  0.8987 -0.4970  0.3229
15097TIP3    H266707   2.209   1.642  15.882  2.0859 -0.7022  0.6701
15098TIP3   OH266708   1.563   2.326  13.753 -0.1308 -0.0620  0.4000
15098TIP3    H166709   1.564   2.406  13.701  1.2482 -1.3794 -1.8144
15098TIP3    H266710   1.502   2.268  13.707  0.4370 -0.9565  0.7287
15099TIP3   OH266711   0.575   6.093   4.030 -0.1727  0.2867 -0.1994
15099TIP3    H166712   0.627   6.055   3.960 -0.7182  1.4208 -1.2756
15099TIP3    H266713   0.484   6.073   4.006 -0.3615  0.5627  0.2672
15100TIP3   OH266714   3.806   3.468  12.087 -0.0100 -0.1884  0.6453
15100TIP3    H166715   3.898   3.463  12.065  0.0914  0.4473  0.9135
15100TIP3    H266716   3.777   3.376  12.092  0.4221 -0.3692 -0.1619
15101TIP3   OH266717   5.412   4.662  13.997  0.2521  0.1495  0.0567
15101TIP3    H166718   5.429   4.750  14.031 -1.8178  0.8384 -0.5385
15101TIP3    H266719   5.332   4.634  14.043 -0.5396 -0.3737 -1.5824
15102TIP3   OH266720   4.038   5.094  11.608 -0.2063 -0.3257 -0.5649
15102TIP3    H166721   4.051   5.107  11.514  0.8901  0.7057 -0.3044
15102TIP3    H266722   3.944   5.103  11.621 -0.4081 -0.7784 -1.5933
15103TIP3   OH266723   2.327   4.978   4.084  0.1175  0.0921 -0.0484
15103TIP3    H166724   2.421   4.987   4.102 -0.2118 -0.2505  2.0473
15103TIP3    H266725   2.295   5.068   4.077  0.2413  0.2827  1.4668
15104TIP3   OH266726   6.043   5.146  11.526 -0.2561  0.1747  0.0512
15104TIP3    H166727   5.976   5.089  11.563  1.6818 -1.0791  1.8042
15104TIP3    H266728   6.105   5.086  11.485  1.1517  1.0853  0.7761
15105TIP3   OH266729   2.340   0.360  12.461  0.5382 -0.2999  0.3301
15105TIP3    H166730   2.318   0.443  12.419 -1.0776 -1.1883 -0.6835
15105TIP3    H266731   2.435   0.365  12.474  0.7977  0.8903 -1.5212
15106TIP3   OH266732   6.214   0.048  10.897  0.1149 -0.7186  0.0164
15106TIP3    H166733   6.173   0.007  10.821 -1.7622  0.7436  0.1359
15106TIP3    H266734   6.173   0.006  10.972  0.5619 -0.8617  0.1789
15107TIP3   OH266735   5.078   4.261   1.097 -0.0740  0.1082  0.5477
15107TIP3    H166736   4.998   4.282   1.145 -0.7291 -0.3503 -0.3032
15107TIP3    H266737   5.148   4.266   1.162 -1.0555 -1.6005  1.8041
15108TIP3   OH266738   5.319   6.307  14.444 -0.4167  0.0701  0.5344
15108TIP3    H166739   5.278   6.339  14.364  0.2026 -1.4218 -0.4296
15108TIP3    H266740   5.249   6.260  14.490 -0.8857  1.2973  1.1154
15109TIP3   OH266741   2.508   5.782  12.125  0.1301  0.3278  0.1266
15109TIP3    H166742   2.511   5.866  12.171  0.4620 -0.6020  1.8614
15109TIP3    H266743   2.490   5.717  12.193 -0.6047 -0.9759 -1.2431
15110TIP3   OH266744   3.605   5.326  11.498 -0.5950 -0.0600 -0.3202
15110TIP3    H166745   3.570   5.286  11.577 -0.1494  1.2306  0.5465
15110TIP3    H266746   3.659   5.256  11.458 -1.4144 -0.9526  0.0922
15111TIP3   OH266747   5.593   1.742   3.364 -0.3141 -0.2765  0.6650
15111TIP3    H166748   5.599   1.746   3.269  0.2687 -0.3522  0.6939
15111TIP3    H266749   5.539   1.817   3.388 -1.7550 -1.1141  0.1740
15112TIP3   OH266750   2.681   0.928   0.476 -0.0963  0.0766  0.0953
15112TIP3    H166751   2.699   1.000   0.535 -2.7589 -0.7103  2.0615
15112TIP3    H266752   2.738   0.857   0.506  0.3901  0.4432  0.0514
15113TIP3   OH266753   1.975   2.566  17.183 -0.1054  0.0898 -0.5952
15113TIP3    H166754   2.020   2.588  17.101 -0.0109  0.3509 -0.4728
15113TIP3    H266755   1.898   2.517  17.155  1.3807 -2.3181 -0.7151
15114TIP3   OH266756   2.153   4.242   1.577  0.9195  0.4473  0.4485
15114TIP3    H166757   2.066   4.253   1.616  0.5962 -0.5978  0.0396
15114TIP3    H266758   2.196   4.327   1.591  0.3749  0.5020  1.9869
15115TIP3   OH266759   4.170   0.106  12.445  0.0280 -0.6332 -0.2553
15115TIP3    H166760   4.228   0.161  12.392  1.0832 -1.5146 -0.0545
15115TIP3    H266761   4.083   0.120  12.407  0.1920  1.3829 -0.0307
15116TIP3   OH266762   1.156   0.221  12.895 -0.5735  0.2104 -0.4118
15116TIP3    H166763   1.223   0.284  12.868  0.2237 -1.3799 -2.4058
15116TIP3    H266764   1.181   0.196  12.984 -1.8054  3.7208  1.1279
15117TIP3   OH266765   1.210   3.329  14.415  0.2045 -0.2018 -0.0377
15117TIP3    H166766   1.299   3.354  14.392  0.3516  0.6988  1.4189
15117TIP3    H266767   1.163   3.329  14.331  1.2237  0.7885 -0.6292
15118TIP3   OH266768   2.308   2.734   0.182  0.4723 -0.2770  0.4821
15118TIP3    H166769   2.315   2.703   0.092 -2.2265 -2.1159  0.7913
15118TIP3    H266770   2.298   2.655   0.234 -1.2117  0.8686  2.0021
15119TIP3   OH266771   1.725   5.062  11.473 -0.1808 -0.6810 -0.4464
15119TIP3    H166772   1.820   5.068  11.472  0.1903 -4.3168 -0.9267
15119TIP3    H266773   1.698   5.074  11.382  0.1425 -2.3256 -0.7836
15120TIP3   OH266774   2.020   2.747  13.577  0.1850 -0.5346  0.1586
15120TIP3    H166775   2.116   2.741  13.570  0.2397  1.1390 -1.3413
15120TIP3    H266776   1.988   2.682  13.514  0.3586 -0.6380  0.1766
15121TIP3   OH266777   4.379   2.721  12.387 -0.3924 -0.2138 -0.5581
15121TIP3    H166778   4.305   2.672  12.350 -0.8601  0.9928 -1.2672
15121TIP3    H266779   4.351   2.744  12.475 -1.6171  1.6853 -1.3784
15122TIP3   OH266780   6.254   5.843  13.616 -0.1137  0.3619 -0.3310
15122TIP3    H166781   6.295   5.775  13.564 -0.9842 -0.7360  0.3828
15122TIP3    H266782   6.326   5.879  13.670 -0.3959 -3.6027  3.1949
15123TIP3   OH266783   0.420   1.495   1.698 -0.6702 -0.3526  0.7611
15123TIP3    H166784   0.359   1.459   1.762 -0.8256 -0.0853  0.7651
15123TIP3    H266785   0.502   1.448   1.713 -0.8808 -0.7309  0.7396
15124TIP3   OH266786   1.861   2.031  13.317 -0.1866 -0.0850  0.4782
15124TIP3    H166787   1.898   2.120  13.314  0.0861 -0.2064  0.2437
15124TIP3    H266788   1.839   2.011  13.226  2.2291 -1.3036  0.0945
15125TIP3   OH266789   6.323   1.242   3.739 -0.0628  0.1900 -0.0488
15125TIP3    H166790   6.310   1.192   3.659  3.0784 -2.4423  0.8682
15125TIP3    H266791   6.399   1.297   3.721 -0.7343  1.3087  0.4393
15126TIP3   OH266792   5.694   3.900  12.271  0.9629 -0.6264  0.0324
15126TIP3    H166793   5.710   3.936  12.358 -0.0542  0.5430 -0.2334
15126TIP3    H266794   5.730   3.965  12.211 -3.6044  1.7904 -0.5607
15127TIP3   OH266795   1.775   0.120   1.013  0.2430 -0.2377 -0.2797
15127TIP3    H166796   1.823   0.074   0.944  0.4166  0.3518 -0.5528
15127TIP3    H266797   1.781   0.062   1.089  1.3138 -0.2188 -0.3338
15128TIP3   OH266798   4.855   0.085  11.470 -0.0371  0.2332  0.3024
15128TIP3    H166799   4.792   0.118  11.406  0.3014 -1.3272 -0.9030
15128TIP3    H266800   4.935   0.135  11.452 -0.0778  0.1277 -0.1968
15129TIP3   OH266801   1.336   3.061   4.055  1.4207  0.6288 -1.0198
15129TIP3    H166802   1.266   3.109   4.098  0.9914 -0.2747 -0.6811
15129TIP3    H266803   1.294   3.020   3.980  0.8084 -2.3689  0.8034
15130TIP3   OH266804   2.195   6.620  14.675  0.1321 -0.1158 -0.0871
15130TIP3    H166805   2.211   6.527  14.690 -2.2179 -0.8197 -1.4315
15130TIP3    H266806   2.209   6.661  14.760 -1.1744 -2.0914  1.1578
15131TIP3   OH266807   4.216   0.231  15.965 -0.1008 -0.2838  0.0327
15131TIP3    H166808   4.276   0.208  16.036  0.8251  0.4406 -0.4874
15131TIP3    H266809   4.139   0.176  15.980  0.1923 -0.3638  1.4167
15132TIP3   OH266810   5.089   3.976   6.298 -0.1956  0.1471 -0.2670
15132TIP3    H166811   5.170   4.006   6.339 -0.5605  0.3167  0.3350
15132TIP3    H266812   5.091   3.881   6.308 -1.0911  0.2928  1.7093
15133TIP3   OH266813   2.224   2.149   0.203  0.5461  0.1422 -1.0452
15133TIP3    H166814   2.303   2.106   0.234  1.0576  1.4135 -0.5134
15133TIP3    H266815   2.221   2.130   0.109  1.1942 -0.3443 -0.9689
15134TIP3   OH266816   0.801   0.740  11.418 -0.4051 -0.0606  0.0287
15134TIP3    H166817   0.827   0.819  11.372 -0.7348 -0.2070 -0.4187
15134TIP3    H266818   0.773   0.680  11.349  0.0951 -0.6683  0.3405
15135TIP3   OH266819   3.278   1.642   2.531 -0.8812  0.2623  0.6475
15135TIP3    H166820   3.303   1.609   2.617 -2.3546 -1.6125  0.4156
15135TIP3    H266821   3.336   1.597   2.470  0.5732  2.0321  0.6174
15136TIP3   OH266822   3.780   0.275   2.510 -0.0915 -0.4444  0.0070
15136TIP3    H166823   3.734   0.332   2.571 -0.6477  0.5902 -1.3297
15136TIP3    H266824   3.870   0.273   2.541 -0.1075  1.0384  0.1914
15137TIP3   OH266825   0.361   3.256  11.655 -0.4346  0.0163 -0.2561
15137TIP3    H166826   0.410   3.335  11.681 -0.9742  0.7659 -1.4409
15137TIP3    H266827   0.282   3.258  11.710 -0.0298 -0.1802  0.3362
15138TIP3   OH266828   0.838   0.011   4.431 -0.1584  0.4078  1.0455
15138TIP3    H166829   0.900  -0.049   4.473  0.2903  1.0293  1.2756
15138TIP3    H266830   0.892   0.079   4.392 -0.5944  0.0287 -0.2808
15139TIP3   OH266831   2.596   4.587  11.031 -0.1617  0.2609  0.2928
15139TIP3    H166832   2.676   4.637  11.012 -0.0528 -0.9147 -2.9961
15139TIP3    H266833   2.526   4.652  11.027  0.4052  0.9427  1.0869
15140TIP3   OH266834   0.250   2.334   3.596  0.1635 -0.1450 -0.2709
15140TIP3    H166835   0.286   2.421   3.579 -1.0612  0.6369  0.8634
15140TIP3    H266836   0.313   2.293   3.655  0.1131  0.5039  0.2563
15141TIP3   OH266837   2.266   1.582   4.917  0.5812  0.1066 -0.1742
15141TIP3    H166838   2.213   1.661   4.928 -0.5109 -0.6243 -0.1123
15141TIP3    H266839   2.327   1.605   4.846  0.5447  1.1280  0.0981
15142TIP3   OH266840   6.247   5.097  14.436  0.1244  0.4088  0.3920
15142TIP3    H166841   6.180   5.129  14.375 -1.3353 -0.1855  1.6256
15142TIP3    H266842   6.202   5.091  14.520  1.9546  0.6931  1.4374
15143TIP3   OH266843   2.384   0.261  13.603  0.6511  0.9232  0.4824
15143TIP3    H166844   2.444   0.258  13.677 -1.2783 -0.0089  2.0793
15143TIP3    H266845   2.378   0.354  13.580  1.9703  1.1175  0.8654
15144TIP3   OH266846   6.339   6.155   5.520  0.2883 -0.0192  0.0378
15144TIP3    H166847   6.369   6.240   5.490 -1.5157  0.7236  0.2054
15144TIP3    H266848   6.307   6.111   5.441 -1.4782  0.6619  0.3208
15145TIP3   OH266849   0.909   1.344  14.146  0.1915 -0.1353  0.3959
15145TIP3    H166850   0.958   1.341  14.064 -0.0409 -0.7361  0.2798
15145TIP3    H266851   0.820   1.319  14.122 -0.1806  0.9049  0.6160
15146TIP3   OH266852   0.383   0.333  12.413 -0.0898 -0.1561  0.3147
15146TIP3    H166853   0.380   0.378  12.498 -0.1590 -0.8433  0.6863
15146TIP3    H266854   0.377   0.404  12.348 -1.1749  0.2974  0.8876
15147TIP3   OH266855   5.272   2.066  16.137  0.6362  0.1832  0.5166
15147TIP3    H166856   5.252   2.147  16.184  1.5464  0.1409  0.9929
15147TIP3    H266857   5.216   2.069  16.059  0.4571  1.1297  0.6699
15148TIP3   OH266858   1.041   3.356   4.040  0.3733  0.0909  0.2716
15148TIP3    H166859   1.109   3.377   4.103  0.9443 -0.3644 -0.1706
15148TIP3    H266860   1.044   3.260   4.032 -0.3241  0.0644  0.2533
15149TIP3   OH266861   4.574   5.615   4.437  0.0376  0.2085  0.0179
15149TIP3    H166862   4.632   5.554   4.483 -0.0945 -0.1009 -0.2224
15149TIP3    H266863   4.628   5.650   4.365  0.7466  1.8596  1.2917
15150TIP3   OH266864   5.591   4.150  16.018 -0.0492  0.0031  0.0238
15150TIP3    H166865   5.524   4.137  15.951  0.5608  2.0595 -1.0577
15150TIP3    H266866   5.652   4.078  16.005 -0.1018  0.1928 -1.4624
15151TIP3   OH266867   2.177   6.339  16.509 -0.4542  0.1123 -0.2712
15151TIP3    H166868   2.166   6.340  16.414 -3.0606 -0.4107 -0.0404
15151TIP3    H266869   2.219   6.255  16.528 -2.5835 -1.1369 -0.7919
15152TIP3   OH266870   5.431   0.896  14.877  0.2332  0.0245  0.1655
15152TIP3    H166871   5.379   0.815  14.874  1.3525 -0.7417  0.7849
15152TIP3    H266872   5.434   0.920  14.969  0.5787  0.3174  0.0815
15153TIP3   OH266873   0.981   6.287   1.021 -0.0177 -0.0806  0.4664
15153TIP3    H166874   0.889   6.299   1.045  0.0187 -0.3449  0.7469
15153TIP3    H266875   0.991   6.192   1.012 -0.0747  0.0103 -0.7770
15154TIP3   OH266876   6.480   3.691   5.465  0.1704  0.0948 -0.3091
15154TIP3    H166877   6.544   3.762   5.476  1.5637 -1.2118  0.3178
15154TIP3    H266878   6.426   3.695   5.544 -0.2727  0.9201 -0.6336
15155TIP3   OH266879   0.365   4.274  15.683 -0.2237  0.3184 -0.5518
15155TIP3    H166880   0.392   4.294  15.773 -1.3617 -1.8092  0.3233
15155TIP3    H266881   0.313   4.351  15.657 -0.2236  0.7940  0.7602
15156TIP3   OH266882   5.735   4.215  14.851  0.1010 -0.1952  0.7247
15156TIP3    H166883   5.697   4.247  14.932  1.1037 -1.3282  1.6857
15156TIP3    H266884   5.824   4.251  14.850  0.2177 -0.4834  0.3266
15157TIP3   OH266885   4.431   6.662  15.385  0.2425 -0.0944 -0.6144
15157TIP3    H166886   4.504   6.600  15.386 -0.1451 -0.5596  0.2810
15157TIP3    H266887   4.462   6.736  15.438  0.7361  0.5242 -1.7537
15158TIP3   OH266888   6.059   1.203  11.393  0.5198  0.4094  0.5168
15158TIP3    H166889   6.032   1.122  11.350  1.5211 -0.7344  1.9471
15158TIP3    H266890   6.106   1.252  11.326  2.1981 -1.4046  0.2908
15159TIP3   OH266891   2.943   0.941   6.032  0.2843 -0.0958  0.3724
15159TIP3    H166892   2.892   0.957   6.111 -0.0244  0.8416  0.0058
15159TIP3    H266893   2.976   0.852   6.041 -2.7058 -1.3830 -0.0836
15160TIP3   OH266894   0.393   3.060   2.910 -0.3693  0.0151  0.5245
15160TIP3    H166895   0.434   2.976   2.932  0.3763  0.3547  0.4929
15160TIP3    H266896   0.450   3.126   2.951 -1.6593  0.4691  1.6660
15161TIP3   OH266897   6.608   0.227  12.455  0.1640  0.1813  0.1003
15161TIP3    H166898   6.635   0.292  12.520  2.0384 -0.7673  0.3297
15161TIP3    H266899   6.520   0.254  12.430 -0.3956  0.9305  2.5702
15162TIP3   OH266900   1.317   1.070   3.040 -0.5591  0.3797  0.0379
15162TIP3    H166901   1.294   0.988   3.084  1.1137  0.6850  1.6359
15162TIP3    H266902   1.319   1.135   3.111 -1.0275  1.6401 -1.0582
15163TIP3   OH266903   2.781   3.527   4.926 -0.0196  0.1416  0.3683
15163TIP3    H166904   2.725   3.567   4.993 -1.2216  1.0137 -1.0922
15163TIP3    H266905   2.791   3.595   4.859  0.2872 -1.0380 -0.8286
15164TIP3   OH266906   0.698   1.434   1.840  0.2308  0.0979 -0.5823
15164TIP3    H166907   0.709   1.518   1.884 -2.9637 -0.1386  0.9712
15164TIP3    H266908   0.669   1.374   1.909 -0.4594 -1.5170 -2.1777
15165TIP3   OH266909   5.803   6.357   4.319 -0.2604  0.2204  0.2032
15165TIP3    H166910   5.823   6.430   4.260 -0.1272 -0.4204 -0.5634
15165TIP3    H266911   5.889   6.332   4.355 -0.0944 -0.4585 -0.6252
15166TIP3   OH266912   5.715   3.285  15.386  0.5086 -0.3540 -0.3213
15166TIP3    H166913   5.763   3.334  15.452 -0.8264  0.1847  0.2793
15166TIP3    H266914   5.671   3.215  15.434 -1.9937  1.1397 -0.2420
15167TIP3   OH266915   5.007   4.482  11.067 -0.3506 -0.2350  0.2008
15167TIP3    H166916   5.027   4.548  11.132 -1.1066  0.0171  0.1767
15167TIP3    H266917   5.039   4.400  11.105  0.1654  0.0645  0.4240
15168TIP3   OH266918   4.169   5.116  12.055  0.1214  0.2498 -0.1915
15168TIP3    H166919   4.183   5.145  12.145  1.0652 -1.6738  0.3346
15168TIP3    H266920   4.145   5.023  12.063  5.7554 -1.7462 -2.0519
15169TIP3   OH266921   4.936   6.295   5.822  0.1778 -0.3404 -0.1195
15169TIP3    H166922   4.887   6.377   5.826  2.0835  0.8283  2.0528
15169TIP3    H266923   4.996   6.306   5.748  0.1346  0.0467 -0.0990
15170TIP3   OH266924   2.425   2.540   4.107 -0.2546 -0.5491 -0.5218
15170TIP3    H166925   2.449   2.619   4.057 -0.4543  0.0863  0.3640
15170TIP3    H266926   2.401   2.573   4.194 -2.0661 -1.3997 -0.6532
15171TIP3   OH266927   0.334   2.794   0.929 -0.7548 -0.7509 -0.3059
15171TIP3    H166928   0.277   2.865   0.959 -2.5004 -2.8552  1.6839
15171TIP3    H266929   0.390   2.775   1.003  0.7451 -0.5309 -1.3373
15172TIP3   OH266930   0.086   5.681   1.931  0.2521  0.8143  0.3749
15172TIP3    H166931  -0.009   5.684   1.944  0.2879 -0.2138  1.0142
15172TIP3    H266932   0.099   5.604   1.876  0.7135  1.0182  0.1984
15173TIP3   OH266933   6.724   5.035   0.890  0.1698  0.8097  0.3445
15173TIP3    H166934   6.795   4.979   0.923 -0.2443  0.7212  1.1069
15173TIP3    H266935   6.690   4.988   0.814 -2.8073 -2.1248  3.1858
15174TIP3   OH266936   0.699   3.015   5.974  0.2065  0.0571  0.6806
15174TIP3    H166937   0.756   3.085   5.943  0.2338 -0.5752 -0.8099
15174TIP3    H266938   0.750   2.970   6.041  0.0497  1.6387  1.9201
15175TIP3   OH266939   1.478   1.402  16.703  0.0541  0.3038 -0.2912
15175TIP3    H166940   1.463   1.324  16.757  2.2141  1.0313  1.4674
15175TIP3    H266941   1.418   1.390  16.628 -0.4150 -2.5257  0.4021
15176TIP3   OH266942   3.313   4.347  11.777 -0.2824  0.8429  0.0615
15176TIP3    H166943   3.275   4.329  11.862 -1.0914 -1.0222 -0.6391
15176TIP3    H266944   3.274   4.430  11.749 -2.0336  0.1586  0.3944
15177TIP3   OH266945   1.398   2.665   0.595 -0.1282 -0.7125  0.5892
15177TIP3    H166946   1.384   2.591   0.536  2.0540  0.3689 -1.4845
15177TIP3    H266947   1.312   2.683   0.633 -1.6792 -1.4622 -2.3057
15178TIP3   OH266948   3.653   6.428   3.907 -0.1125 -0.0653 -0.3691
15178TIP3    H166949   3.738   6.452   3.945  0.6006 -0.8448 -1.4273
15178TIP3    H266950   3.590   6.485   3.952  0.9723  0.5860  0.3742
15179TIP3   OH266951   1.331   4.972  16.522 -0.2393 -0.1934 -0.0354
15179TIP3    H166952   1.356   4.911  16.591 -2.5434  0.1589  1.2052
15179TIP3    H266953   1.272   4.922  16.466  1.0753 -0.2666 -1.4131
15180TIP3   OH266954   2.369   5.813  15.615  0.2495 -0.8902  0.1937
15180TIP3    H166955   2.442   5.853  15.663  0.2108 -1.6455  0.9078
15180TIP3    H266956   2.393   5.721  15.609  0.4134 -0.7654 -1.5597
15181TIP3   OH266957   3.145   4.092   6.508 -0.1714  0.0135 -0.3732
15181TIP3    H166958   3.083   4.033   6.466 -0.1625  1.1830 -2.1426
15181TIP3    H266959   3.221   4.037   6.528 -0.4999 -0.7603 -1.1917
15182TIP3   OH266960   1.213   6.590  16.957  0.3436 -0.4822  0.6536
15182TIP3    H166961   1.236   6.497  16.952 -2.7938 -1.3434 -0.0728
15182TIP3    H266962   1.123   6.590  16.988  0.3678  2.3846  0.9507
15183TIP3   OH266963   0.586   0.039  11.581  0.0386  0.0996  0.3431
15183TIP3    H166964   0.615   0.124  11.546 -0.3152 -0.6472 -1.9323
15183TIP3    H266965   0.535   0.062  11.660 -0.3115  2.0298 -0.3758
15184TIP3   OH266966   5.719   5.248  15.876  0.1854 -0.6660  0.4949
15184TIP3    H166967   5.687   5.161  15.856  1.2339 -1.1947  1.0282
15184TIP3    H266968   5.643   5.305  15.868 -0.8570 -1.8529  1.6655
15185TIP3   OH266969   0.469   2.860  17.255  0.2244  0.0396 -0.5830
15185TIP3    H166970   0.505   2.775  17.281 -0.4411  0.0339  0.3552
15185TIP3    H266971   0.535   2.923  17.282  0.2301 -0.0952 -0.2808
15186TIP3   OH266972   1.384   3.628  11.708  0.4717 -0.4224  0.5523
15186TIP3    H166973   1.346   3.683  11.639  0.7985 -1.3635 -0.4055
15186TIP3    H266974   1.338   3.655  11.787 -0.2257  0.3936 -0.1025
15187TIP3   OH266975   3.143   2.424  11.942  0.0605 -0.1253  0.1450
15187TIP3    H166976   3.234   2.451  11.958  0.7364 -1.4458 -1.2382
15187TIP3    H266977   3.136   2.339  11.984 -0.7207  0.2109  0.7106
15188TIP3   OH266978   1.134   3.705   3.314 -0.2065  0.1679 -0.3685
15188TIP3    H166979   1.058   3.658   3.347 -1.1102  1.5435 -0.4448
15188TIP3    H266980   1.136   3.684   3.220 -0.0542 -0.4267 -0.2400
15189TIP3   OH266981   0.931   0.413   5.141  0.1749  0.1826  0.3035
15189TIP3    H166982   0.977   0.496   5.128 -1.1261  0.9703  0.6166
15189TIP3    H266983   0.883   0.425   5.223 -1.9436  0.0257 -0.8591
15190TIP3   OH266984   4.967   6.596  11.413  0.4608  0.2519  0.2206
15190TIP3    H166985   4.922   6.680  11.408  0.7824  0.3996 -0.3061
15190TIP3    H266986   5.055   6.614  11.379  1.6983  0.4717  3.2461
15191TIP3   OH266987   6.586   1.574   6.082  0.2514  0.5352  0.1188
15191TIP3    H166988   6.558   1.658   6.048  0.3868  0.1318 -1.0149
15191TIP3    H266989   6.668   1.593   6.128 -0.1348  1.1411  0.5804
15192TIP3   OH266990   1.375   0.690  12.426  0.0414  0.2994 -0.3262
15192TIP3    H166991   1.453   0.680  12.481 -0.9196  0.0881  1.0764
15192TIP3    H266992   1.346   0.780  12.442  0.9095  0.9343 -2.1456
15193TIP3   OH266993   5.440   6.032  11.796 -0.5161  0.4901  0.2188
15193TIP3    H166994   5.374   6.071  11.739  0.3095  0.9899 -0.4185
15193TIP3    H266995   5.440   5.939  11.774 -0.6929  0.5662 -0.0983
15194TIP3   OH266996   3.666   1.816   0.252 -0.2722 -0.4662  0.2574
15194TIP3    H166997   3.715   1.895   0.273 -1.5853  0.6365 -0.6602
15194TIP3    H266998   3.598   1.845   0.191 -0.0760 -2.5161 -1.0198
15195TIP3   OH266999   0.992   3.482   5.416 -0.2205  0.5452  0.1091
15195TIP3    H167000   0.932   3.464   5.488  1.0894  0.9070  1.3371
15195TIP3    H267001   1.051   3.550   5.449  3.2783 -2.3351  0.4772
15196TIP3   OH267002   4.241   5.574  12.393  0.0754 -0.2755 -0.0793
15196TIP3    H167003   4.315   5.544  12.340 -1.3932 -0.6620 -2.0657
15196TIP3    H267004   4.183   5.617  12.330 -0.7137  1.3338  1.6694
15197TIP3   OH267005   0.959   3.370  16.415 -0.2171 -0.1601  0.3846
15197TIP3    H167006   1.016   3.396  16.487 -1.6966 -0.4640  1.7330
15197TIP3    H267007   0.927   3.453  16.379  0.0555 -0.0072  0.4934
15198TIP3   OH267008   3.160   3.114   1.037 -0.4480  0.0900 -0.1923
15198TIP3    H167009   3.093   3.178   1.060  0.9592  1.6385 -0.2275
15198TIP3    H267010   3.242   3.151   1.070  0.3396 -2.0796  0.4819
15199TIP3   OH267011   4.588   3.128   0.718  0.1818  0.1850 -0.0124
15199TIP3    H167012   4.506   3.152   0.760 -0.9214 -1.8910 -0.8638
15199TIP3    H267013   4.589   3.177   0.636 -1.2236 -1.2484 -0.9428
15200TIP3   OH267014   3.893   0.326  15.965  0.2852 -0.2047 -0.4133
15200TIP3    H167015   3.890   0.329  16.061 -0.4385  0.4202 -0.4426
15200TIP3    H267016   3.883   0.234  15.943 -1.3913 -0.1705  0.0780
15201TIP3   OH267017   6.176   4.167  14.639  0.0691  0.1684 -0.7014
15201TIP3    H167018   6.191   4.205  14.552 -0.4185 -1.2322 -1.4356
15201TIP3    H267019   6.207   4.077  14.631 -0.3626 -0.0949  0.4630
15202TIP3   OH267020   3.819   6.304   1.930 -0.0352 -0.5156  0.4666
15202TIP3    H167021   3.859   6.251   1.862 -3.3385  1.1664 -3.1809
15202TIP3    H267022   3.861   6.390   1.923 -2.1114  0.4469 -1.5088
15203TIP3   OH267023   2.793   2.736  14.451  0.4636  0.8702  0.3860
15203TIP3    H167024   2.700   2.755  14.465  0.1593 -0.1669 -0.0662
15203TIP3    H267025   2.825   2.808  14.398 -0.2311  0.9470  0.0593
15204TIP3   OH267026   3.303   5.562  15.568 -0.2790  0.1338 -0.4752
15204TIP3    H167027   3.350   5.643  15.588 -1.6277  0.5977  1.0824
15204TIP3    H267028   3.271   5.532  15.653 -2.3649 -0.4033 -1.3792
15205TIP3   OH267029   6.253   2.435   2.527 -0.3221  0.6603  0.0857
15205TIP3    H167030   6.213   2.434   2.440 -1.7724 -0.0909  0.7373
15205TIP3    H267031   6.296   2.350   2.534 -0.5304  0.5712  0.2595
15206TIP3   OH267032   2.736   6.395   3.132 -0.5218  0.4204 -0.5953
15206TIP3    H167033   2.650   6.400   3.089 -0.0287  0.7190 -1.5599
15206TIP3    H267034   2.797   6.375   3.062  0.3187  1.0787 -0.0698
15207TIP3   OH267035   6.265   0.684   5.285  0.5880  0.4195 -0.2055
15207TIP3    H167036   6.225   0.770   5.276  1.7368  0.9392 -0.5197
15207TIP3    H267037   6.353   0.701   5.319  0.4582 -0.7104  0.7569
15208TIP3   OH267038   4.401   5.223   2.330  0.1902 -0.5292 -0.3121
15208TIP3    H167039   4.393   5.264   2.416  1.4928  0.3270 -0.5725
15208TIP3    H267040   4.384   5.130   2.346  0.2543 -0.3576  0.8378
15209TIP3   OH267041   4.837   0.574  12.805 -0.7100  0.2472  0.0936
15209TIP3    H167042   4.920   0.601  12.844 -0.8390  0.9331 -0.0977
15209TIP3    H267043   4.831   0.624  12.723  0.2613 -2.2431 -1.6295
15210TIP3   OH267044   0.456   2.309   2.477 -0.0763  0.0400 -0.3725
15210TIP3    H167045   0.466   2.315   2.572  0.0216  1.4436 -0.4421
15210TIP3    H267046   0.362   2.319   2.462 -0.2259 -1.2153 -0.3862
15211TIP3   OH267047   5.889   3.039  16.036 -0.5999 -0.0416  0.4614
15211TIP3    H167048   5.798   3.026  16.062 -0.8237 -2.0191 -1.0598
15211TIP3    H267049   5.891   3.127  15.999 -1.4667  0.6971  2.0672
15212TIP3   OH267050   3.616   6.348   1.495 -0.1163  0.1856  0.7075
15212TIP3    H167051   3.551   6.295   1.541  0.4696 -0.2059  1.0842
15212TIP3    H267052   3.624   6.307   1.409  1.2211 -1.1021  1.3994
15213TIP3   OH267053   5.157   3.425   5.209 -0.0113 -0.2818 -0.0262
15213TIP3    H167054   5.086   3.457   5.154  0.0344 -1.4902 -0.8192
15213TIP3    H267055   5.138   3.332   5.223  0.6726 -0.3001  0.9149
15214TIP3   OH267056   2.303   2.410  13.371 -0.0285  0.1024 -0.1752
15214TIP3    H167057   2.352   2.381  13.448  0.8131  0.2230 -0.6509
15214TIP3    H267058   2.365   2.464  13.322 -0.3703 -0.4267 -1.2159
15215TIP3   OH267059   2.824   1.475  16.935 -0.2871  0.6440 -0.4661
15215TIP3    H167060   2.907   1.475  16.984 -0.4912  0.4658 -0.1120
15215TIP3    H267061   2.829   1.553  16.880 -0.8227  1.9187  1.1918
15216TIP3   OH267062   1.682   0.716   0.324  0.5069 -0.0260 -0.4927
15216TIP3    H167063   1.715   0.736   0.236  1.4380 -1.0500 -0.4017
15216TIP3    H267064   1.761   0.695   0.375  0.1037  1.5222  0.8886
15217TIP3   OH267065   1.458   6.639   2.803 -0.1385 -0.3629 -0.4160
15217TIP3    H167066   1.372   6.624   2.764 -1.8771  0.5580  2.6630
15217TIP3    H267067   1.474   6.560   2.855  0.4484 -0.1559 -0.2793
15218TIP3   OH267068   3.392   3.094  14.392  0.0454  0.5185  0.1121
15218TIP3    H167069   3.472   3.143  14.413  1.6082 -1.7807 -0.0995
15218TIP3    H267070   3.321   3.150  14.423  1.7758  2.1735  1.3505
15219TIP3   OH267071   0.540   6.302  17.247  0.2395  0.4368 -0.3474
15219TIP3    H167072   0.471   6.306  17.314  1.0352 -1.0117  0.6330
15219TIP3    H267073   0.551   6.393  17.218 -0.6608  0.9976  0.9545
15220TIP3   OH267074   4.500   2.895  11.656 -0.2824 -0.5682 -0.1803
15220TIP3    H167075   4.526   2.977  11.615  0.8427 -0.6571  0.3160
15220TIP3    H267076   4.493   2.833  11.584  3.7026 -1.2685 -0.1917
15221TIP3   OH267077   1.514   6.309   2.228  0.0926  0.2581  0.1245
15221TIP3    H167078   1.527   6.247   2.299  2.0421 -0.8747 -1.1036
15221TIP3    H267079   1.431   6.283   2.188  1.3273 -2.3485 -0.9832
15222TIP3   OH267080   0.560   3.514   1.952  0.1243  0.2013 -0.5524
15222TIP3    H167081   0.469   3.543   1.940  0.0992  0.8007  0.8783
15222TIP3    H267082   0.598   3.519   1.865 -1.0220  0.6348 -1.0502
15223TIP3   OH267083   5.086   6.385   2.921  0.0517 -0.3451 -0.5011
15223TIP3    H167084   5.172   6.414   2.951  0.1548 -1.3222  0.2207
15223TIP3    H267085   5.035   6.375   3.002 -0.1940 -1.3881 -0.7629
15224TIP3   OH267086   0.122   4.934  10.984 -0.6189 -0.5537  0.3083
15224TIP3    H167087   0.092   4.968  10.900  0.4936  0.2668  0.2229
15224TIP3    H267088   0.051   4.877  11.013 -1.1354 -0.6548 -1.0597
15225TIP3   OH267089   3.441   0.779  13.900 -0.2178 -0.1544 -0.7071
15225TIP3    H167090   3.460   0.848  13.963  1.0452 -1.7055  0.6939
15225TIP3    H267091   3.476   0.813  13.817  0.7355  0.7143  0.0218
15226TIP3   OH267092   0.912   5.008   1.062  0.3328 -0.6409  0.4071
15226TIP3    H167093   0.894   4.944   1.131  0.9601 -1.6152 -0.2888
15226TIP3    H267094   0.997   5.046   1.085  0.9046 -1.5135 -0.1904
15227TIP3   OH267095   2.985   5.900  12.620 -0.8379 -0.4119 -0.1068
15227TIP3    H167096   2.971   5.841  12.547 -2.6151 -0.5413  0.2919
15227TIP3    H267097   2.897   5.926  12.647 -0.1688  0.7785  1.0550
15228TIP3   OH267098   5.773   6.609   3.180 -0.0981  0.1418 -0.2493
15228TIP3    H167099   5.695   6.558   3.203 -0.9887  0.4461 -2.3777
15228TIP3    H267100   5.840   6.543   3.163 -0.8526 -0.3308 -1.6105
15229TIP3   OH267101   6.715   1.874   5.354  0.4886  0.0824  0.3469
15229TIP3    H167102   6.704   1.784   5.383 -0.3195 -0.3932 -1.3194
15229TIP3    H267103   6.658   1.925   5.413  1.8935 -0.2860  2.0926
15230TIP3   OH267104   0.788   4.835   4.792 -0.2374 -0.2461  0.2985
15230TIP3    H167105   0.743   4.919   4.779 -0.2947 -0.2602  0.4093
15230TIP3    H267106   0.776   4.788   4.709  0.6676  0.2684 -0.1537
15231TIP3   OH267107   1.285   1.987   1.473 -0.1448  0.7109 -0.0011
15231TIP3    H167108   1.291   1.914   1.412  0.7072  0.1465  0.7364
15231TIP3    H267109   1.374   2.022   1.478 -0.0301  0.2755  1.4683
15232TIP3   OH267110   1.637   3.983  13.039  0.2275  0.2002  0.9283
15232TIP3    H167111   1.568   4.035  13.081  1.7206  0.8765  2.6662
15232TIP3    H267112   1.708   4.046  13.023  1.2012 -0.8473  0.9834
15233TIP3   OH267113   2.673   4.737   3.655 -0.2035 -0.3520 -0.3523
15233TIP3    H167114   2.651   4.674   3.723 -2.7130  0.7064 -0.0727
15233TIP3    H267115   2.744   4.789   3.693 -0.7489 -0.5415  0.9806
15234TIP3   OH267116   2.464   5.289   1.030 -0.1970  0.3142  0.2790
15234TIP3    H167117   2.381   5.264   0.989 -0.5635  0.9159  0.6394
15234TIP3    H267118   2.520   5.212   1.020 -0.6435  0.0648 -0.3750
15235TIP3   OH267119   0.383   6.152   0.156  0.2171 -0.4810 -0.1149
15235TIP3    H167120   0.397   6.204   0.235  0.4038 -1.6553  0.6369
15235TIP3    H267121   0.460   6.096   0.149 -0.7510 -1.9013  0.0822
15236TIP3   OH267122   6.717   5.127  11.148  0.6735  0.2813 -0.5819
15236TIP3    H167123   6.747   5.163  11.064  0.8339 -0.3298 -0.7874
15236TIP3    H267124   6.754   5.039  11.151  1.0838  0.4783  0.3590
15237TIP3   OH267125   1.604   0.520  16.640 -0.2714 -0.2785 -0.7386
15237TIP3    H167126   1.614   0.551  16.730 -0.3626  2.2199 -1.5155
15237TIP3    H267127   1.693   0.501  16.610 -0.0854  0.4161 -0.6216
15238TIP3   OH267128   1.306   5.778   4.702  0.1900  0.0875  0.0366
15238TIP3    H167129   1.289   5.747   4.791  1.8055  1.8571  1.0313
15238TIP3    H267130   1.401   5.768   4.690 -0.0887 -0.9484 -1.8765
15239TIP3   OH267131   1.509   1.666   2.250 -0.1609  0.4660 -0.4090
15239TIP3    H167132   1.445   1.736   2.238  0.3096  0.8905 -0.4301
15239TIP3    H267133   1.503   1.643   2.343  0.3172  1.1384 -0.2124
15240TIP3   OH267134   2.279   3.556   5.109 -0.1084 -0.1748 -0.1208
15240TIP3    H167135   2.286   3.546   5.204 -2.4218 -1.5025 -0.0168
15240TIP3    H267136   2.258   3.468   5.077  0.2414  0.3226 -1.8344
15241TIP3   OH267137   2.402   1.044   0.748  0.2910  0.4228 -0.2109
15241TIP3    H167138   2.439   0.972   0.799 -1.0524 -0.8262 -0.8997
15241TIP3    H267139   2.320   1.066   0.794 -0.7616 -0.4900 -1.5740
15242TIP3   OH267140   0.481   5.773   2.422  0.1209 -0.3240  0.4152
15242TIP3    H167141   0.422   5.710   2.464 -1.1705  0.1074 -0.6905
15242TIP3    H267142   0.568   5.740   2.441 -0.5094 -3.3347 -1.3951
15243TIP3   OH267143   3.753   1.693  16.737  0.2669 -0.1164  0.1782
15243TIP3    H167144   3.667   1.652  16.722 -0.7760  1.6933  0.8192
15243TIP3    H267145   3.755   1.708  16.832  1.3801 -0.2990  0.1871
15244TIP3   OH267146   4.789   6.358  13.001 -0.6339  0.0877 -0.1534
15244TIP3    H167147   4.848   6.424  12.966 -0.7162 -0.5073 -1.4805
15244TIP3    H267148   4.798   6.283  12.942 -0.6781 -1.0322  1.1920
15245TIP3   OH267149   4.498   0.306   2.685  0.1310  0.3443  0.3970
15245TIP3    H167150   4.439   0.290   2.759 -1.4045  3.6642  0.0677
15245TIP3    H267151   4.580   0.335   2.726  0.8275 -1.8882  0.7776
15246TIP3   OH267152   6.676   5.295  17.195 -0.0016 -0.3006  0.3258
15246TIP3    H167153   6.646   5.323  17.108  2.2111  4.0976  0.6872
15246TIP3    H267154   6.759   5.249  17.178  0.4287  0.5541  0.0687
15247TIP3   OH267155   2.693   0.900   2.865  0.0634  0.0218 -0.0633
15247TIP3    H167156   2.661   0.815   2.895 -1.1657  0.7802  0.8565
15247TIP3    H267157   2.760   0.924   2.928 -0.6450  0.4011  0.5608
15248TIP3   OH267158   3.714   1.235   1.401 -0.5692 -0.0441 -0.1501
15248TIP3    H167159   3.772   1.161   1.420 -0.4095 -0.0866 -0.7905
15248TIP3    H267160   3.626   1.198   1.400 -0.4798 -0.2495 -0.5773
15249TIP3   OH267161   3.954   6.343  12.890  0.4256  0.1457  0.4011
15249TIP3    H167162   4.005   6.358  12.969  0.2730 -0.5920  0.6412
15249TIP3    H267163   4.009   6.379  12.820  1.1647 -0.4073  0.6823
15250TIP3   OH267164   2.670   0.859  14.444  0.5799  0.5707  0.0294
15250TIP3    H167165   2.718   0.777  14.431  0.7665  0.6177  0.4089
15250TIP3    H267166   2.724   0.925  14.401 -0.5645  0.2234 -2.0922
15251TIP3   OH267167   4.492   4.322   4.152 -0.0995 -0.2537  0.7748
15251TIP3    H167168   4.437   4.338   4.229  0.1938  0.1256  0.9095
15251TIP3    H267169   4.474   4.395   4.094 -0.8185 -0.8824  0.1819
15252TIP3   OH267170   0.482   0.467   1.092  0.1071  0.1639  0.1101
15252TIP3    H167171   0.528   0.457   1.009  1.6785 -0.6609  1.0435
15252TIP3    H267172   0.538   0.424   1.156 -0.1951  2.2691  1.9214
15253TIP3   OH267173   5.447   0.580   3.663 -0.3157  0.3894 -0.2039
15253TIP3    H167174   5.475   0.649   3.723  0.9020 -0.0959 -0.1901
15253TIP3    H267175   5.522   0.565   3.606 -2.0930  2.2718 -3.2813
15254TIP3   OH267176   0.194   1.727  14.382 -0.2395 -0.1898 -0.4870
15254TIP3    H167177   0.173   1.727  14.476  0.0006  0.9208 -0.4166
15254TIP3    H267178   0.113   1.700  14.339 -0.5877  0.0537  0.0044
15255TIP3   OH267179   4.351   0.505   5.887  0.3906  0.0014 -0.3796
15255TIP3    H167180   4.265   0.548   5.891  0.4560  0.1003 -0.0190
15255TIP3    H267181   4.403   0.560   5.829  0.9746  1.3242  1.2909
15256TIP3   OH267182   2.236   6.366  10.582  0.6862 -0.2477  0.5480
15256TIP3    H167183   2.163   6.359  10.520  0.3472 -2.0258  1.0888
15256TIP3    H267184   2.246   6.460  10.597  0.1981  0.1767 -1.5062
15257TIP3   OH267185   5.783   2.448   5.611  0.5206  0.0568  0.1944
15257TIP3    H167186   5.803   2.397   5.532 -0.1407  1.0288 -0.6275
15257TIP3    H267187   5.835   2.528   5.601 -1.9964  1.6774 -0.9391
15258TIP3   OH267188   0.815   6.423  14.154 -0.1148 -0.1646  0.3843
15258TIP3    H167189   0.816   6.377  14.239 -0.1464  0.6308  0.8268
15258TIP3    H267190   0.722   6.434  14.134 -0.1329 -1.7245 -0.5326
15259TIP3   OH267191   5.513   5.285  13.912 -1.1500 -0.2621 -0.6099
15259TIP3    H167192   5.460   5.365  13.916 -0.4818  0.2591 -1.7557
15259TIP3    H267193   5.532   5.274  13.819 -2.6576 -2.7264 -0.7209
15260TIP3   OH267194   5.151   1.957   2.382 -0.2356 -0.7907 -0.7787
15260TIP3    H167195   5.153   1.957   2.287 -0.2719  0.7462 -0.8053
15260TIP3    H267196   5.085   2.023   2.405 -0.1478 -1.0595  0.3037
15261TIP3   OH267197   6.007   0.737  16.318  0.1343 -0.1598  0.1219
15261TIP3    H167198   6.052   0.818  16.346  0.4578 -0.8182  1.6332
15261TIP3    H267199   6.023   0.732  16.224 -1.4091  2.4682 -0.3975
15262TIP3   OH267200   5.813   2.095   5.992 -0.5732 -0.4835 -0.2061
15262TIP3    H167201   5.727   2.072   5.958 -1.5410  0.9331  1.1432
15262TIP3    H267202   5.800   2.104   6.086  1.1592 -0.6167  0.0870
15263TIP3   OH267203   4.858   4.165   1.680 -1.0018 -0.0135  0.1421
15263TIP3    H167204   4.874   4.133   1.591 -1.3178  0.2756 -0.0227
15263TIP3    H267205   4.890   4.095   1.737  1.2545  0.7140 -0.1446
15264TIP3   OH267206   2.129   3.568  13.858 -0.5561 -0.1099 -0.0743
15264TIP3    H167207   2.141   3.635  13.791 -1.0739 -0.0273 -0.0858
15264TIP3    H267208   2.163   3.608  13.938  0.5452 -0.3946 -0.3745
15265TIP3   OH267209   0.000   4.721  17.125  0.2890  0.4950  0.3857
15265TIP3    H167210   0.083   4.674  17.118 -0.0416  0.0262 -0.4790
15265TIP3    H267211  -0.051   4.670  17.187  1.1411  1.5590  2.0459
15266TIP3   OH267212   1.718   4.839   3.518  0.0455 -0.0355  0.2229
15266TIP3    H167213   1.724   4.782   3.441  0.5696 -1.2594  1.1419
15266TIP3    H267214   1.800   4.887   3.519  1.0191 -1.6251  1.2010
15267TIP3   OH267215   1.412   0.631  16.467 -0.1759 -0.1942 -0.1308
15267TIP3    H167216   1.442   0.582  16.390 -0.3806 -2.2390  1.0252
15267TIP3    H267217   1.479   0.613  16.533 -2.3869 -2.6009  1.6475
15268TIP3   OH267218   3.991   6.338  15.833  0.4603  0.5100 -0.0673
15268TIP3    H167219   3.926   6.374  15.772  0.0471  0.4257  0.3208
15268TIP3    H267220   4.055   6.295  15.776  1.7494  3.0266 -0.6712
15269TIP3   OH267221   6.471   1.039  11.165  0.2595  0.4382 -0.2455
15269TIP3    H167222   6.407   1.107  11.144  0.0262 -0.3228 -2.2479
15269TIP3    H267223   6.537   1.047  11.096 -0.2121 -1.8632 -1.0307
15270TIP3   OH267224   3.623   1.414  13.529  0.0012  0.4063  0.6466
15270TIP3    H167225   3.586   1.424  13.617  0.3313 -1.2885  1.0192
15270TIP3    H267226   3.709   1.374  13.544  0.7836  1.6082 -0.3782
15271TIP3   OH267227   1.581   0.196   1.762  0.1227  0.2347 -0.4361
15271TIP3    H167228   1.524   0.258   1.716  0.9203  0.0768 -1.6742
15271TIP3    H267229   1.555   0.110   1.730  0.9960  0.1570 -0.9827
15272TIP3   OH267230   1.765   1.290   4.516  0.4904 -0.0551  0.2467
15272TIP3    H167231   1.820   1.246   4.451  1.0950 -0.2433  0.8775
15272TIP3    H267232   1.753   1.378   4.481  1.9139  0.2688  0.4916
15273TIP3   OH267233   1.159   6.045  12.677  0.0526 -0.3486 -0.2560
15273TIP3    H167234   1.189   6.007  12.595  2.2706  0.0877  0.2828
15273TIP3    H267235   1.193   6.134  12.677  1.1001 -0.6796  1.5600
15274TIP3   OH267236   5.327   4.433  13.330  0.0375 -0.0290  0.1315
15274TIP3    H167237   5.263   4.484  13.281 -0.7822 -1.6597 -0.5617
15274TIP3    H267238   5.291   4.428  13.419 -0.0464  0.3094  0.1178
15275TIP3   OH267239   2.644   4.234   5.154  0.1471 -0.0579 -0.0697
15275TIP3    H167240   2.730   4.197   5.132 -0.4125 -1.7369  0.4368
15275TIP3    H267241   2.653   4.327   5.135  2.3012 -0.0633  0.6567
15276TIP3   OH267242   4.660   3.933  15.302  0.7499 -1.2581  0.1889
15276TIP3    H167243   4.620   3.902  15.383  0.7995  0.6879  1.0017
15276TIP3    H267244   4.589   3.978  15.256  1.4718  0.5720  0.7653
15277TIP3   OH267245   6.282   0.303   0.868  0.2832 -0.9981  0.0970
15277TIP3    H167246   6.273   0.298   0.963 -0.4887 -0.2876  0.0781
15277TIP3    H267247   6.306   0.215   0.841 -1.0060 -1.5898  0.8115
15278TIP3   OH267248   5.267   3.303  14.614  0.2435  0.2216 -0.0530
15278TIP3    H167249   5.333   3.364  14.580  2.3372 -1.8196  0.1495
15278TIP3    H267250   5.256   3.239  14.544 -0.0501 -0.5587  0.6985
15279TIP3   OH267251   3.786   1.033  15.760 -0.4118 -0.0636  0.0202
15279TIP3    H167252   3.702   1.065  15.794 -0.8662 -1.6957  0.5098
15279TIP3    H267253   3.773   0.939  15.750  0.8837 -0.1265 -1.3502
15280TIP3   OH267254   5.185   3.022   2.159  0.3377  0.0644 -0.2744
15280TIP3    H167255   5.188   2.935   2.200  0.7563 -1.1012 -2.6478
15280TIP3    H267256   5.136   3.075   2.222 -1.5383 -2.3315  0.4821
15281TIP3   OH267257   5.466   5.395  14.811 -0.4725 -0.6307 -0.2697
15281TIP3    H167258   5.380   5.397  14.854 -0.4266 -0.1803 -0.1937
15281TIP3    H267259   5.515   5.466  14.852 -0.4222 -0.2058 -1.0458
15282TIP3   OH267260   2.557   4.718   3.945  0.2904 -0.1872  0.0326
15282TIP3    H167261   2.618   4.648   3.971 -0.8015 -1.6117 -1.1037
15282TIP3    H267262   2.472   4.675   3.940 -0.4607  1.3013 -0.4748
15283TIP3   OH267263   5.232   2.868  16.686 -0.1035 -0.1068  0.2009
15283TIP3    H167264   5.175   2.861  16.609  1.2667  0.4258 -0.9121
15283TIP3    H267265   5.173   2.889  16.758 -1.3580 -0.0556 -0.8050
15284TIP3   OH267266   1.263   1.023  14.315 -0.0717  0.0655  0.9113
15284TIP3    H167267   1.171   1.018  14.342 -0.3408 -1.1770 -0.0881
15284TIP3    H267268   1.270   0.957  14.245  1.3790  0.7415  0.3884
15285TIP3   OH267269   0.571   6.024   1.859 -0.3915 -0.1040 -1.0177
15285TIP3    H167270   0.651   6.072   1.836  0.0676 -1.3199 -2.1369
15285TIP3    H267271   0.562   5.959   1.789 -3.4997  1.2682 -2.0182
15286TIP3   OH267272   3.302   2.731   0.007  0.0629  0.5953 -0.1998
15286TIP3    H167273   3.280   2.731   0.100  4.8469 -0.4743  1.2003
15286TIP3    H267274   3.272   2.645  -0.025 -1.0683  0.7279  0.4522
15287TIP3   OH267275   3.048   2.803  11.568 -0.1479  0.1178  0.1077
15287TIP3    H167276   3.073   2.894  11.582  1.0292  0.0154 -1.1060
15287TIP3    H267277   3.077   2.757  11.647  1.2276  0.4504 -0.1848
15288TIP3   OH267278   4.567   4.236  13.592 -0.4814  0.2445 -0.0243
15288TIP3    H167279   4.575   4.331  13.589 -3.4364  0.5870  0.2140
15288TIP3    H267280   4.473   4.220  13.597 -0.2658 -2.7800 -2.6226
15289TIP3   OH267281   3.388   4.114   3.426  1.3021 -0.4276  0.0238
15289TIP3    H167282   3.418   4.175   3.359 -0.0558 -1.0697 -1.2243
15289TIP3    H267283   3.316   4.160   3.470  1.4461 -0.4478  0.2848
15290TIP3   OH267284   2.965   0.174   2.023  0.5137  0.0873  0.6032
15290TIP3    H167285   2.946   0.146   1.934 -0.2555 -0.1992  0.8507
15290TIP3    H267286   3.029   0.245   2.012  0.7087 -0.1915 -0.1473
15291TIP3   OH267287   0.910   4.650  14.312  0.2796 -0.4043 -0.2872
15291TIP3    H167288   0.950   4.652  14.225  0.9466  0.6337  0.0239
15291TIP3    H267289   0.878   4.739  14.326 -0.2072 -0.6769  0.3553
15292TIP3   OH267290   4.041   0.957   3.099  0.0374  0.5718 -0.4307
15292TIP3    H167291   3.986   0.994   3.168 -0.0218 -1.9042  0.9397
15292TIP3    H267292   3.981   0.906   3.045  0.6770 -0.7958  0.1039
15293TIP3   OH267293   5.915   4.506   0.110  0.3414  0.1091 -0.0589
15293TIP3    H167294   5.899   4.477   0.199  0.8463 -1.3477 -0.4220
15293TIP3    H267295   5.916   4.602   0.116  0.6468  0.0294  1.5326
15294TIP3   OH267296   5.648   4.414  17.021  0.6428 -0.0038 -0.5592
15294TIP3    H167297   5.672   4.342  17.079  0.3554 -0.4155 -0.9475
15294TIP3    H267298   5.569   4.452  17.061 -1.3525 -2.1514 -2.1943
15295TIP3   OH267299   5.166   1.723   5.433 -0.3383 -0.0005  0.2593
15295TIP3    H167300   5.072   1.720   5.420 -0.4861 -1.0994  1.3531
15295TIP3    H267301   5.195   1.632   5.424  0.7186  0.4075 -0.7031
15296TIP3   OH267302   2.169   1.568   2.717  0.1263 -0.2734 -0.3384
15296TIP3    H167303   2.223   1.526   2.784 -1.1561  1.1668  1.6816
15296TIP3    H267304   2.161   1.659   2.745 -0.4755  0.4082 -2.4744
15297TIP3   OH267305   4.040   0.728   1.442 -0.4547 -0.0109 -0.0418
15297TIP3    H167306   3.965   0.780   1.412 -0.5989 -1.2912 -2.0645
15297TIP3    H267307   4.002   0.661   1.499 -0.4234  1.2220  1.4890
15298TIP3   OH267308   6.172   4.274  15.965 -0.4123  0.3617 -0.1823
15298TIP3    H167309   6.184   4.325  16.045  0.4554  1.1397 -0.7795
15298TIP3    H267310   6.078   4.280  15.946 -0.6004  0.2982  0.6755
15299TIP3   OH267311   4.840   0.684  15.653 -0.0721 -0.2549  0.3755
15299TIP3    H167312   4.878   0.596  15.660 -0.5131 -0.4241  0.6732
15299TIP3    H267313   4.752   0.669  15.619  0.0292  0.1151 -0.0476
15300TIP3   OH267314   3.328   1.076  11.287  0.0922  0.3543  0.3679
15300TIP3    H167315   3.340   1.018  11.362  1.0100 -2.0432 -1.5003
15300TIP3    H267316   3.380   1.154  11.307  2.8595 -1.5243  0.9619
15301TIP3   OH267317   5.984   1.494   3.192 -0.3163  0.7392  0.0263
15301TIP3    H167318   5.982   1.403   3.223  0.4591  1.2974  1.8768
15301TIP3    H267319   6.014   1.489   3.102 -1.3679 -0.9147 -0.2762
15302TIP3   OH267320   4.368   2.506   1.896 -0.6500  0.2442 -0.3566
15302TIP3    H167321   4.457   2.505   1.932 -0.2489 -2.0139 -1.2658
15302TIP3    H267322   4.311   2.518   1.972  0.2833 -2.0062  0.7850
15303TIP3   OH267323   2.012   0.178  13.965  0.4300 -0.1332  0.4535
15303TIP3    H167324   2.087   0.201  13.910 -0.6292 -0.2119 -1.1003
15303TIP3    H267325   1.972   0.262  13.986 -0.1613 -0.1830 -0.4060
15304TIP3   OH267326   4.807   0.382  16.369 -0.1626 -0.9420  0.6111
15304TIP3    H167327   4.812   0.474  16.395 -2.1418 -0.0701 -1.6682
15304TIP3    H267328   4.754   0.340  16.437 -1.3254  0.2035  0.4481
15305TIP3   OH267329   0.327   2.564  16.963  0.6188 -0.6923  0.0525
15305TIP3    H167330   0.285   2.620  16.898  0.3854 -0.4109  0.4399
15305TIP3    H267331   0.417   2.595  16.968 -0.0023  1.0668  1.7620
15306TIP3   OH267332   2.505   3.407  11.937  0.3078 -0.0311  0.7763
15306TIP3    H167333   2.583   3.439  11.891 -0.1251  1.0823  0.7917
15306TIP3    H267334   2.526   3.417  12.030 -0.2479  1.3495  0.7857
15307TIP3   OH267335   4.680   4.536   4.271  0.6683 -0.5982 -0.4534
15307TIP3    H167336   4.736   4.608   4.242 -0.6883 -0.0755 -1.9321
15307TIP3    H267337   4.593   4.558   4.235 -0.4280 -1.5146  1.4803
15308TIP3   OH267338   3.911   0.404   5.944  0.7266  0.6703  0.0906
15308TIP3    H167339   3.837   0.455   5.976 -0.2009 -0.7762  0.3828
15308TIP3    H267340   3.959   0.379   6.023  0.4215  0.0175  0.0811
15309TIP3   OH267341   2.295   6.396  16.223 -0.6409 -0.0214 -0.3334
15309TIP3    H167342   2.232   6.466  16.206 -0.4922  0.1331 -0.2542
15309TIP3    H267343   2.367   6.413  16.162 -0.0981  0.5406  0.4435
15310TIP3   OH267344   1.116   1.780  14.828 -0.0078 -0.1825 -0.5785
15310TIP3    H167345   1.041   1.776  14.769 -1.4223  0.1386  1.1318
15310TIP3    H267346   1.140   1.689  14.843 -0.0138 -0.2855 -1.1554
15311TIP3   OH267347   3.218   0.324   0.099 -0.5070 -0.1510  0.3373
15311TIP3    H167348   3.262   0.356   0.178  0.0982  2.7801 -1.0417
15311TIP3    H267349   3.183   0.403   0.057 -0.4424 -1.4956 -2.5212
15312TIP3   OH267350   2.968   5.441   5.274  0.2599  0.1607  0.2278
15312TIP3    H167351   2.920   5.423   5.193  0.4676  0.2661  0.0812
15312TIP3    H267352   3.056   5.408   5.258 -0.1918 -1.6132  1.1146
15313TIP3   OH267353   5.967   5.226  15.684  0.3309 -0.6446 -0.4053
15313TIP3    H167354   5.917   5.154  15.645 -0.0170 -0.1711 -0.8451
15313TIP3    H267355   5.912   5.256  15.757  0.3346 -0.6229 -0.4112
15314TIP3   OH267356   4.994   0.821  15.448  0.4707  0.6275 -0.3052
15314TIP3    H167357   4.955   0.782  15.526 -1.1627  0.2181 -1.2776
15314TIP3    H267358   5.003   0.914  15.470  0.7438  0.3992  0.6179
15315TIP3   OH267359   1.350   0.811   1.401 -0.3652  0.0218 -0.0871
15315TIP3    H167360   1.388   0.723   1.406 -1.0882 -0.2980 -0.0996
15315TIP3    H267361   1.352   0.842   1.492 -0.7315 -0.2747  0.0228
15316TIP3   OH267362   4.304   1.251   4.553 -0.6477 -0.0529 -0.1135
15316TIP3    H167363   4.339   1.310   4.487 -0.0042 -0.2019  0.0926
15316TIP3    H267364   4.209   1.265   4.549 -0.6288 -0.1424 -1.1356
15317TIP3   OH267365   0.477   0.040  14.979  0.7529 -0.1492 -0.6619
15317TIP3    H167366   0.499   0.033  14.886 -2.4345 -1.3158 -1.4443
15317TIP3    H267367   0.511  -0.042  15.017  2.4414  0.5180 -0.6373
15318TIP3   OH267368   3.599   2.933   4.282 -0.0544 -0.0571 -0.1881
15318TIP3    H167369   3.681   2.951   4.329  0.8829  4.9557 -3.0256
15318TIP3    H267370   3.627   2.907   4.194 -1.1491  4.0289 -1.9533
15319TIP3   OH267371   5.295   6.657  14.279  0.2665  0.2908  0.6490
15319TIP3    H167372   5.265   6.677  14.368  0.8294 -1.6491  1.3115
15319TIP3    H267373   5.240   6.584  14.251  0.4406  0.5522 -0.4204
15320TIP3   OH267374   2.083   2.788   5.901  0.5406 -0.0761 -0.0014
15320TIP3    H167375   2.178   2.782   5.911  0.6370  1.1860  0.0809
15320TIP3    H267376   2.056   2.701   5.871  1.4628 -1.0522  1.8435
15321TIP3   OH267377   1.730   2.904   1.714  0.5365  0.2416 -0.5776
15321TIP3    H167378   1.665   2.837   1.694  1.4644 -1.2017  1.0208
15321TIP3    H267379   1.697   2.947   1.793  1.3272 -0.2596  0.0347
15322TIP3   OH267380   3.050   5.063   4.160 -0.0313  0.0171  0.3776
15322TIP3    H167381   3.000   5.047   4.079  1.0122  0.1799 -0.3232
15322TIP3    H267382   3.053   4.978   4.203 -1.2335  0.0881  0.6304
15323TIP3   OH267383   1.820   3.990  13.848  0.1057  0.1640  0.4195
15323TIP3    H167384   1.736   4.016  13.812  0.2507  3.4692  2.0979
15323TIP3    H267385   1.884   4.015  13.781 -0.0682 -0.0709  0.1655
15324TIP3   OH267386   2.705   4.977   5.676  0.5886  0.4193  0.0236
15324TIP3    H167387   2.647   5.018   5.740  2.6321  2.6406  0.5752
15324TIP3    H267388   2.676   5.011   5.591  0.6625  1.0002  0.2294
15325TIP3   OH267389   4.845   6.612  14.358 -0.3243  0.4848 -0.3149
15325TIP3    H167390   4.898   6.653  14.290  0.2533  0.0453 -0.1354
15325TIP3    H267391   4.794   6.684  14.396 -2.3827  0.4516 -2.7123
15326TIP3   OH267392   6.235   5.672  15.721 -0.5888 -0.0877 -0.0587
15326TIP3    H167393   6.148   5.641  15.696  0.0496 -3.1311  1.0038
15326TIP3    H267394   6.244   5.646  15.813  2.2919 -2.2104 -0.8020
15327TIP3   OH267395   1.514   0.887  13.533 -0.2119 -0.4058  0.2139
15327TIP3    H167396   1.500   0.856  13.443 -0.5311  0.2413  0.0308
15327TIP3    H267397   1.555   0.973  13.522  1.7671 -1.2430  0.7186
15328TIP3   OH267398   3.370   5.230   3.723 -0.1165 -0.7319 -0.3046
15328TIP3    H167399   3.290   5.178   3.727 -2.6871  2.8765  0.9841
15328TIP3    H267400   3.363   5.279   3.641  0.5790 -0.0590  0.0235
15329TIP3   OH267401   5.834   0.641   3.254 -0.1461 -0.5801  0.8379
15329TIP3    H167402   5.908   0.689   3.291  0.2491  1.4034 -2.1612
15329TIP3    H267403   5.758   0.676   3.299  0.1314  3.1347 -1.1870
15330TIP3   OH267404   5.992   0.230   1.211 -0.3552  0.2369  0.2697
15330TIP3    H167405   5.979   0.149   1.260  1.1437 -0.2994 -0.1562
15330TIP3    H267406   5.912   0.240   1.159 -2.4385  1.3143  3.3704
15331TIP3   OH267407   1.966   2.042  13.616  0.0183  0.0158 -0.5104
15331TIP3    H167408   1.895   2.093  13.577 -0.9435  0.5149  1.7268
15331TIP3    H267409   1.997   2.096  13.689  3.0435  0.0004 -1.6431
15332TIP3   OH267410   3.681   2.508  11.822  0.3502 -0.4879  0.4509
15332TIP3    H167411   3.767   2.475  11.848  1.5381 -0.3694 -2.8860
15332TIP3    H267412   3.685   2.602  11.839  1.5713 -0.2073 -1.1529
15333TIP3   OH267413   0.477   4.650   4.682 -0.2338 -0.7019 -0.3406
15333TIP3    H167414   0.493   4.606   4.599  2.2054 -0.2951 -0.1518
15333TIP3    H267415   0.469   4.743   4.658  1.7289 -0.4147 -0.0692
15334TIP3   OH267416   6.489   4.946  11.181 -0.2557  0.0191  0.0583
15334TIP3    H167417   6.529   5.033  11.175  0.2756 -0.2726 -0.7936
15334TIP3    H267418   6.435   4.938  11.102 -0.1207 -0.5105  0.0156
15335TIP3   OH267419   6.612   1.198   5.340  0.0712  0.1206  1.1724
15335TIP3    H167420   6.676   1.239   5.283 -0.5465  0.0257  0.3870
15335TIP3    H267421   6.531   1.197   5.289  0.5109 -4.1106  0.1963
15336TIP3   OH267422   3.812   3.221  15.699  0.5691 -0.5254  0.0709
15336TIP3    H167423   3.805   3.283  15.627  2.8202 -0.8000 -0.4529
15336TIP3    H267424   3.901   3.188  15.693  0.9804 -0.2795  3.2040
15337TIP3   OH267425   0.722   2.390  15.638  0.2765 -0.3474  0.5565
15337TIP3    H167426   0.716   2.483  15.658 -2.0570 -0.1557 -0.7744
15337TIP3    H267427   0.801   2.382  15.584  0.7108  0.7711  0.9992
15338TIP3   OH267428   1.649   5.852  17.228  0.5680  0.4950  0.1462
15338TIP3    H167429   1.682   5.869  17.140 -1.5317  1.3063 -0.5380
15338TIP3    H267430   1.617   5.762  17.225  1.4536  0.1600  0.4200
15339TIP3   OH267431   1.681   3.777   6.269 -0.5088  0.7522  0.0266
15339TIP3    H167432   1.690   3.831   6.347  0.6979 -0.6972  0.9484
15339TIP3    H267433   1.738   3.702   6.285 -1.0667 -0.1211 -1.7915
15340TIP3   OH267434   0.527   6.564  11.453  0.6537 -0.3113  0.1733
15340TIP3    H167435   0.460   6.554  11.522 -0.1982 -0.0680 -0.6029
15340TIP3    H267436   0.544   6.658  11.450 -0.2738 -0.1600 -0.8245
15341TIP3   OH267437   5.643   3.297  11.865  0.5514  0.0108  0.8050
15341TIP3    H167438   5.549   3.285  11.878  0.3554 -1.0954 -1.2427
15341TIP3    H267439   5.655   3.392  11.866 -0.6855  0.1932  0.5608
15342TIP3   OH267440   6.093   6.259   1.685 -0.1583 -0.2819 -0.3836
15342TIP3    H167441   6.000   6.239   1.668 -0.3269  0.2078 -0.0580
15342TIP3    H267442   6.109   6.340   1.635 -0.0071 -0.1633 -0.1417
15343TIP3   OH267443   6.007   4.736  13.686 -0.5320  0.7978  0.1605
15343TIP3    H167444   6.035   4.754  13.596 -1.8928 -1.2109 -0.7228
15343TIP3    H267445   6.078   4.683  13.723 -0.7241  0.2127 -0.2970
15344TIP3   OH267446   0.856   0.639  13.641  0.0369  0.3950 -0.3868
15344TIP3    H167447   0.913   0.562  13.639  0.3226  0.5774  0.2281
15344TIP3    H267448   0.892   0.698  13.575 -0.5153 -0.2170 -1.2510
15345TIP3   OH267449   4.916   6.429   4.478 -0.2445  0.4301 -0.0217
15345TIP3    H167450   4.876   6.358   4.427  2.8223 -1.5084 -0.0019
15345TIP3    H267451   4.850   6.450   4.545 -0.9634 -3.2450  0.6805
15346TIP3   OH267452   4.076   1.820  12.044  0.2052 -0.5822 -0.0904
15346TIP3    H167453   4.145   1.885  12.031  0.5247 -0.5657  1.4717
15346TIP3    H267454   4.037   1.808  11.957  1.2615  0.4240 -0.7282
15347TIP3   OH267455   4.839   6.653   3.014  0.2610 -0.1085  0.0385
15347TIP3    H167456   4.913   6.708   3.035 -0.3578  0.4379  0.8408
15347TIP3    H267457   4.831   6.659   2.919  1.1528 -0.0723 -0.0417
15348TIP3   OH267458   3.138   2.641   4.993  0.3394 -0.2888  0.3003
15348TIP3    H167459   3.190   2.693   5.054  0.4443  0.4125 -0.3637
15348TIP3    H267460   3.202   2.588   4.946  0.6603  1.4562 -1.3718
15349TIP3   OH267461   4.305   5.569  14.447  0.2580 -0.4605 -0.4633
15349TIP3    H167462   4.215   5.590  14.423  0.8214  0.3604 -1.9807
15349TIP3    H267463   4.300   5.541  14.539 -1.3392  0.9028 -0.0991
15350TIP3   OH267464   5.902   0.142  17.088  0.3091  0.0415 -0.4890
15350TIP3    H167465   5.899   0.077  17.018  0.2583  0.8522 -1.2516
15350TIP3    H267466   5.913   0.226  17.043 -0.3814  0.6453  0.4242
15351TIP3   OH267467   5.318   6.256   5.488 -0.1758  0.0280  0.6673
15351TIP3    H167468   5.350   6.182   5.539  0.3691 -0.2604 -0.0680
15351TIP3    H267469   5.396   6.293   5.447 -0.6453 -0.0535 -0.3349
15352TIP3   OH267470   0.696   6.676   2.829 -0.2873  0.6589  0.5029
15352TIP3    H167471   0.694   6.582   2.848 -1.9690  0.5025 -0.2203
15352TIP3    H267472   0.781   6.690   2.788 -0.3378 -0.7289 -0.1454
15353TIP3   OH267473   1.984   4.090   5.416  0.6142  0.1382 -0.1678
15353TIP3    H167474   1.896   4.089   5.376  1.0307 -0.8535 -1.1226
15353TIP3    H267475   2.043   4.079   5.342  1.5254  0.1732  0.5457
15354TIP3   OH267476   3.491   5.635   0.752 -0.2523 -0.2207 -0.4357
15354TIP3    H167477   3.523   5.679   0.673 -0.5331  0.7383 -0.0309
15354TIP3    H267478   3.514   5.543   0.739 -0.0380 -0.0352 -1.5043
15355TIP3   OH267479   3.390   4.372  17.104  0.2461 -0.2082  0.2939
15355TIP3    H167480   3.357   4.460  17.085 -0.8132 -0.4298  0.9853
15355TIP3    H267481   3.427   4.379  17.192  0.5673 -0.3499  0.1704
15356TIP3   OH267482   4.550   6.447   2.088  0.9467  0.1048 -0.4359
15356TIP3    H167483   4.499   6.527   2.072 -3.0732 -2.4088 -1.7158
15356TIP3    H267484   4.625   6.455   2.029 -0.3966  2.0787 -2.0430
15357TIP3   OH267485   2.518   0.936  15.218  0.3340 -0.6086  0.2612
15357TIP3    H167486   2.551   0.946  15.307  1.2880 -2.2467  0.1258
15357TIP3    H267487   2.532   1.022  15.178  2.8421 -0.7119  0.7690
15358TIP3   OH267488   5.401   6.341  15.718  0.1123  0.1954  0.5124
15358TIP3    H167489   5.349   6.382  15.787  0.0636  1.3800 -0.1990
15358TIP3    H267490   5.468   6.406  15.697 -0.9028  0.6183 -1.7340
15359TIP3   OH267491   3.660   4.916   5.502 -0.0723 -0.7165 -0.5448
15359TIP3    H167492   3.612   4.960   5.572  1.1789 -0.2187  0.0242
15359TIP3    H267493   3.678   4.985   5.438 -1.1215 -1.1468 -1.3540
15360TIP3   OH267494   3.990   5.704  14.289  0.2442 -0.2902 -0.5492
15360TIP3    H167495   4.042   5.758  14.348  0.7844  0.0929 -1.3564
15360TIP3    H267496   3.930   5.657  14.346  1.3635 -0.6190  0.3987
15361TIP3   OH267497   2.635   0.589   4.422  0.3138 -0.3271  0.4102
15361TIP3    H167498   2.630   0.682   4.397  0.3720 -0.2271  0.7693
15361TIP3    H267499   2.728   0.573   4.437  0.3732 -0.5897 -0.1888
15362TIP3   OH267500   1.275   4.874   4.844 -0.5271 -0.2478  0.7208
15362TIP3    H167501   1.268   4.841   4.754  0.1313  0.5474  0.3625
15362TIP3    H267502   1.261   4.797   4.899 -0.0788 -0.9184 -0.0808
15363TIP3   OH267503   2.494   0.599   5.154  0.6966 -0.1863  0.0055
15363TIP3    H167504   2.471   0.686   5.121 -0.9413  0.6387  2.8880
15363TIP3    H267505   2.421   0.575   5.211  1.9823 -2.6358  0.7775
15364TIP3   OH267506   5.798   3.868   6.474 -0.7254  0.2532  0.4848
15364TIP3    H167507   5.819   3.805   6.405 -0.2994  0.7661  0.1374
15364TIP3    H267508   5.875   3.867   6.531 -1.3038 -0.5736  1.2672
15365TIP3   OH267509   0.069   1.380  12.942  0.8765 -0.5338 -0.0180
15365TIP3    H167510   0.024   1.397  12.860 -0.7820  0.2505  1.0029
15365TIP3    H267511   0.152   1.426  12.934  0.1967  0.6224 -0.7760
15366TIP3   OH267512   0.261   2.178   5.091  0.0639 -0.6670  0.4856
15366TIP3    H167513   0.205   2.217   5.024  0.3182 -0.5097  0.3626
15366TIP3    H267514   0.201   2.152   5.161 -0.2529 -1.2533  0.0027
15367TIP3   OH267515   0.720   6.582   5.008  0.1260  0.5952 -0.2206
15367TIP3    H167516   0.695   6.559   4.918  0.6782  3.1493 -1.1051
15367TIP3    H267517   0.739   6.497   5.049 -0.4648 -0.6863 -2.3928
15368TIP3   OH267518   6.723   3.467  16.772  0.0440  0.4230 -0.0706
15368TIP3    H167519   6.726   3.461  16.868  0.5116 -1.6197 -0.1737
15368TIP3    H267520   6.632   3.487  16.753 -0.6820 -1.7484  0.7575
15369TIP3   OH267521   2.505   0.691  10.371  0.6121  0.2276  0.5283
15369TIP3    H167522   2.464   0.605  10.382  1.4708 -0.1766  0.6110
15369TIP3    H267523   2.442   0.740  10.317  0.0709 -0.4160  0.5586
15370TIP3   OH267524   6.402   3.403  12.998  0.0026 -0.4728  0.1494
15370TIP3    H167525   6.406   3.313  12.967 -0.1413 -1.1008  1.8440
15370TIP3    H267526   6.493   3.429  13.009  0.0783 -0.0129 -1.3364
15371TIP3   OH267527   5.749   1.312   3.917 -0.4187 -0.1077 -0.6403
15371TIP3    H167528   5.669   1.363   3.928  0.8967  1.7695  0.9881
15371TIP3    H267529   5.809   1.371   3.870  1.8519  0.8726  3.0737
15372TIP3   OH267530   6.594   1.716   5.533  0.3725  0.2103  0.9025
15372TIP3    H167531   6.594   1.803   5.573  0.1330 -0.4088  2.3177
15372TIP3    H267532   6.502   1.690   5.532  0.5059 -0.2780  1.0669
15373TIP3   OH267533   3.365   0.135   5.685  0.5602  0.5082  0.7638
15373TIP3    H167534   3.329   0.181   5.761 -1.4780 -0.1669  0.2860
15373TIP3    H267535   3.387   0.048   5.717  0.3997  0.4649  0.7601
15374TIP3   OH267536   2.681   3.917   5.172 -0.1932  0.1283  0.3260
15374TIP3    H167537   2.680   3.932   5.267  0.9667  1.2356  0.1874
15374TIP3    H267538   2.702   4.003   5.135 -2.9397  0.2907 -1.1001
15375TIP3   OH267539   4.565   2.166   2.707 -0.6557 -0.1868  0.0385
15375TIP3    H167540   4.603   2.084   2.739 -2.2140 -1.1150 -0.4079
15375TIP3    H267541   4.498   2.189   2.771 -2.2418 -0.8585 -1.3009
15376TIP3   OH267542   0.647   1.762  11.870  0.6792  0.3619  0.6576
15376TIP3    H167543   0.559   1.760  11.835  0.6073 -2.0033  0.7948
15376TIP3    H267544   0.692   1.831  11.821 -1.2735  1.7714  0.7608
15377TIP3   OH267545   3.622   3.714   3.468  0.2701 -0.3640  0.3304
15377TIP3    H167546   3.623   3.807   3.490 -1.2975 -0.3269  0.3431
15377TIP3    H267547   3.530   3.691   3.466  0.5849 -1.6627 -0.8117
15378TIP3   OH267548   0.902   1.078   4.076  0.3907  0.4032 -0.4620
15378TIP3    H167549   0.855   1.028   4.009  1.1510 -0.8342 -0.1056
15378TIP3    H267550   0.971   1.019   4.106  0.2754  1.0597  1.1809
15379TIP3   OH267551   4.822   4.366  11.780 -0.8624 -0.2283  0.4803
15379TIP3    H167552   4.799   4.458  11.794 -1.8210 -0.3230 -0.3271
15379TIP3    H267553   4.743   4.327  11.743 -0.0704 -1.0940 -0.3624
15380TIP3   OH267554   3.145   5.999   3.365 -0.4810  0.0653  0.1968
15380TIP3    H167555   3.124   5.906   3.354 -0.6934  0.1956 -0.6333
15380TIP3    H267556   3.237   6.006   3.337 -0.9055  0.3352 -1.2271
15381TIP3   OH267557   6.650   4.631   0.052  0.0725 -0.1829  0.2323
15381TIP3    H167558   6.582   4.692   0.082 -1.4091 -1.2110 -0.9167
15381TIP3    H267559   6.673   4.581   0.131 -0.5607  0.1277  0.6276
15382TIP3   OH267560   3.647   5.119  11.249  0.5306  0.3868  0.5373
15382TIP3    H167561   3.606   5.069  11.178  0.3893  0.3004  0.6786
15382TIP3    H267562   3.705   5.056  11.292  0.0221  0.2193  0.9892
15383TIP3   OH267563   4.836   2.834   2.383  0.1473  0.0480 -0.0884
15383TIP3    H167564   4.834   2.823   2.288  0.1018  1.9287 -0.3447
15383TIP3    H267565   4.778   2.909   2.400 -0.7745 -0.9769  1.5459
15384TIP3   OH267566   3.161   2.871   0.575  0.1904  0.3128  0.4055
15384TIP3    H167567   3.076   2.909   0.552  1.0396  1.1090 -1.7139
15384TIP3    H267568   3.143   2.777   0.585 -0.7087  0.1723 -1.8119
15385TIP3   OH267569   5.231   6.205  10.921 -0.8498 -0.5504 -0.5628
15385TIP3    H167570   5.183   6.287  10.917 -0.3768 -0.3119 -1.8266
15385TIP3    H267571   5.288   6.214  10.998 -1.3220  0.0020 -0.2778
15386TIP3   OH267572   1.400   4.176   1.133 -0.4984  0.5935 -0.1624
15386TIP3    H167573   1.458   4.109   1.095 -0.1488  1.5069 -1.2913
15386TIP3    H267574   1.443   4.201   1.215  1.8448  2.6342 -1.8591
15387TIP3   OH267575   0.849   2.105  17.054  0.1196  0.2085  0.0528
15387TIP3    H167576   0.876   2.064  17.136  0.0705 -0.1583 -0.1119
15387TIP3    H267577   0.884   2.194  17.059 -0.3982  0.3791  0.7329
15388TIP3   OH267578   5.152   1.704  15.520 -0.7068 -0.0931  0.2791
15388TIP3    H167579   5.182   1.791  15.547 -1.1908  0.2177 -0.1700
15388TIP3    H267580   5.188   1.645  15.586  2.8068 -0.0385 -1.3192
15389TIP3   OH267581   3.222   6.053  13.976 -0.3886 -0.6220 -0.1597
15389TIP3    H167582   3.251   6.131  13.929  1.2834 -1.6075 -0.8937
15389TIP3    H267583   3.142   6.079  14.022  1.7994  2.4888  2.3196
15390TIP3   OH267584   2.432   5.715  11.157  0.0905 -0.4335 -0.1645
15390TIP3    H167585   2.369   5.695  11.088  0.0729  0.8845 -0.5727
15390TIP3    H267586   2.507   5.752  11.110  0.1255  0.3774  0.5068
15391TIP3   OH267587   0.350   4.618  12.345 -0.1635 -0.2166 -0.4344
15391TIP3    H167588   0.332   4.620  12.439  0.7079 -2.1686 -0.1660
15391TIP3    H267589   0.357   4.524  12.325  1.4942  0.2171 -2.0854
15392TIP3   OH267590   5.648   2.937  12.069  0.7531 -0.5011 -0.0053
15392TIP3    H167591   5.563   2.977  12.089  1.2209  0.3831  0.2481
15392TIP3    H267592   5.697   2.943  12.151  1.7064  0.6595 -0.6313
15393TIP3   OH267593   4.050   1.582  12.183  0.9654 -0.2825 -0.1221
15393TIP3    H167594   4.061   1.674  12.161 -1.2922  0.4510  1.5269
15393TIP3    H267595   3.968   1.556  12.140 -0.7815 -0.2181  2.9463
15394TIP3   OH267596   1.786   0.475   2.585  0.3560  0.1461  0.0559
15394TIP3    H167597   1.865   0.432   2.553  1.0550  2.3426 -1.3844
15394TIP3    H267598   1.810   0.509   2.671  0.8953  0.5808 -0.2626
15395TIP3   OH267599   0.042   2.022  10.785 -0.2804  0.4151  0.1467
15395TIP3    H167600  -0.036   2.033  10.730  0.5537 -0.0624 -1.1924
15395TIP3    H267601   0.048   2.104  10.834 -0.4394  1.3588 -1.3370
15396TIP3   OH267602   4.944   2.210   2.184 -0.2624  0.2211 -0.2673
15396TIP3    H167603   4.954   2.268   2.109 -0.1327  1.0445  0.3790
15396TIP3    H267604   5.000   2.135   2.164  1.3680  1.3430 -0.1067
15397TIP3   OH267605   4.098   2.729  15.107 -0.1228 -0.1208 -0.4528
15397TIP3    H167606   4.164   2.774  15.160 -0.5134  0.4559 -0.4434
15397TIP3    H267607   4.138   2.720  15.021 -0.7357  2.0474 -1.0420
15398TIP3   OH267608   1.015   5.374   4.426  0.5442  0.0327 -0.6348
15398TIP3    H167609   1.041   5.406   4.340  1.1303  2.4148  0.3333
15398TIP3    H267610   1.074   5.420   4.487 -0.2558 -1.1049  1.0764
15399TIP3   OH267611   5.129   5.706  13.873 -0.1520  0.0876 -0.2801
15399TIP3    H167612   5.034   5.715  13.875 -0.3458 -1.1334 -1.6724
15399TIP3    H267613   5.144   5.612  13.879  0.9605  0.2448 -0.3583
15400TIP3   OH267614   1.787   2.288  13.556 -0.1669 -0.1174  0.6119
15400TIP3    H167615   1.705   2.275  13.603 -0.5832  0.8420  0.1649
15400TIP3    H267616   1.763   2.282  13.463  0.3689 -0.3804  0.4825
15401TIP3   OH267617   4.064   0.882  13.561  0.4918  0.1959 -0.2201
15401TIP3    H167618   4.084   0.975  13.560  1.0241  0.0865  0.2025
15401TIP3    H267619   4.031   0.865  13.649  2.2917 -0.4027  0.3722
15402TIP3   OH267620   6.497   3.937  13.502  0.6263  0.5608 -0.3094
15402TIP3    H167621   6.584   3.969  13.524  1.2815 -1.5982  0.5613
15402TIP3    H267622   6.501   3.918  13.408  0.7278  1.4875 -0.4961
15403TIP3   OH267623   1.051   0.144   6.290  0.2333 -0.4062 -0.7574
15403TIP3    H167624   1.053   0.165   6.383 -0.7343 -0.7601 -0.6385
15403TIP3    H267625   1.137   0.109   6.270  0.4854 -0.2091 -0.0225
15404TIP3   OH267626   6.595   5.656  17.153 -0.9550 -0.2756 -0.0680
15404TIP3    H167627   6.520   5.615  17.111 -1.5362  0.3588  0.3339
15404TIP3    H267628   6.558   5.704  17.227  0.0999 -1.7893  1.5006
15405TIP3   OH267629   0.340   6.751   3.209 -1.1725  0.1780  0.0901
15405TIP3    H167630   0.384   6.737   3.125  0.4180 -0.1338  0.9396
15405TIP3    H267631   0.362   6.673   3.261  0.3015  1.6490  1.7950
15406TIP3   OH267632   1.454   2.644   3.652  0.8025  0.3450  0.1539
15406TIP3    H167633   1.488   2.713   3.710 -1.5821  0.3725  1.6805
15406TIP3    H267634   1.503   2.566   3.677  0.5038  0.5714  1.5898
15407TIP3   OH267635   1.639   5.853  13.145  0.3438  0.1142 -0.1392
15407TIP3    H167636   1.554   5.811  13.133  0.6127 -0.6689  0.5340
15407TIP3    H267637   1.637   5.884  13.236  1.7826 -2.4445  0.9011
15408TIP3   OH267638   4.250   1.489  13.699  0.1959  0.1910 -0.1537
15408TIP3    H167639   4.248   1.394  13.693 -0.8915  0.2704 -1.7706
15408TIP3    H267640   4.343   1.512  13.689  0.5621 -0.7087  1.0139
15409TIP3   OH267641   2.168   6.640   2.686 -0.8701 -0.3427  0.7194
15409TIP3    H167642   2.153   6.715   2.628  0.9778 -0.5437 -0.0821
15409TIP3    H267643   2.169   6.677   2.774 -2.1526  0.2034  0.5320
15410TIP3   OH267644   1.519   1.673   0.753 -1.0493  0.4047 -0.6706
15410TIP3    H167645   1.550   1.583   0.756  0.5641  0.9675  0.6873
15410TIP3    H267646   1.529   1.698   0.661 -3.1715 -1.2879 -1.4519
15411TIP3   OH267647   5.055   4.254   0.091 -0.0482  0.0681 -0.1817
15411TIP3    H167648   5.047   4.165   0.058 -1.6414  0.7193 -1.6621
15411TIP3    H267649   4.973   4.271   0.138  0.6286  0.4637  0.9223
15412TIP3   OH267650   4.012   4.810   3.275  0.8040  0.3517 -0.1648
15412TIP3    H167651   4.016   4.867   3.198  0.0788 -1.4717 -1.6044
15412TIP3    H267652   4.100   4.773   3.282  0.8306  0.4142 -0.1582
15413TIP3   OH267653   2.304   3.301  13.815  0.8657 -0.2402  0.0960
15413TIP3    H167654   2.289   3.383  13.769  1.6409 -0.6282 -0.8595
15413TIP3    H267655   2.314   3.327  13.907 -1.5186  0.4489  0.2272
15414TIP3   OH267656   5.797   2.824   6.153 -0.0076  0.1868  0.4432
15414TIP3    H167657   5.807   2.910   6.194 -0.0911  0.9071 -0.9726
15414TIP3    H267658   5.779   2.764   6.226 -0.4837  1.4536  1.4036
15415TIP3   OH267659   2.102   5.570  13.888 -0.1145  0.1310  0.4587
15415TIP3    H167660   2.014   5.583  13.923  0.4148  1.4115  1.3831
15415TIP3    H267661   2.157   5.629  13.938  1.0333  0.5208 -1.1803
15416TIP3   OH267662   0.739   0.730  12.582 -0.0598  0.2821 -0.1628
15416TIP3    H167663   0.644   0.739  12.582  0.0027  1.3521 -1.5251
15416TIP3    H267664   0.764   0.746  12.491  1.3443 -1.0554 -0.0531
15417TIP3   OH267665   5.035   4.079  16.180 -0.0853  1.0148  0.1637
15417TIP3    H167666   5.067   3.996  16.145  0.8718  1.6991 -0.6369
15417TIP3    H267667   4.941   4.076  16.166  0.0097  0.3104 -0.3908
15418TIP3   OH267668   1.189   2.549   3.638  0.0372  0.3150  0.1124
15418TIP3    H167669   1.282   2.562   3.658 -0.3156  0.8489  1.4497
15418TIP3    H267670   1.182   2.455   3.619  0.6061  0.0076  1.3522
15419TIP3   OH267671   2.597   3.784  13.919 -0.3254  0.0328 -0.1704
15419TIP3    H167672   2.552   3.764  14.001 -0.5105 -0.9949 -0.5183
15419TIP3    H267673   2.688   3.756  13.935  0.2595  2.1052  0.5344
15420TIP3   OH267674   5.740   0.711   2.372  0.1457  0.4388  0.2086
15420TIP3    H167675   5.681   0.780   2.341 -1.0240  1.2400  3.7588
15420TIP3    H267676   5.810   0.758   2.417  0.0897 -0.6291  1.4457
15421TIP3   OH267677   1.861   5.809  15.989 -0.8651  0.2358  0.2464
15421TIP3    H167678   1.790   5.771  16.042 -1.1943 -0.4009 -0.6191
15421TIP3    H267679   1.897   5.734  15.941  0.8769  0.4140  1.1855
15422TIP3   OH267680   5.398   1.477   5.935 -0.0160  0.4536  0.0753
15422TIP3    H167681   5.462   1.464   5.865 -1.0313  2.0755 -1.2479
15422TIP3    H267682   5.445   1.455   6.015  1.1764 -1.5364 -1.0852
15423TIP3   OH267683   0.698   0.651  15.148 -0.8116  0.2117  0.1418
15423TIP3    H167684   0.722   0.558  15.142  0.5491  0.5009  0.5646
15423TIP3    H267685   0.694   0.668  15.242 -1.0745  0.5770  0.0658
15424TIP3   OH267686   5.144   6.721   6.148 -0.0382 -0.1597  0.2223
15424TIP3    H167687   5.217   6.684   6.198 -0.6880 -0.6926  0.7961
15424TIP3    H267688   5.107   6.788   6.205  1.2600  1.6141 -0.8875
15425TIP3   OH267689   4.361   1.577  14.449  0.3290 -0.4243 -0.6710
15425TIP3    H167690   4.377   1.576  14.544 -0.0544 -1.1856 -0.6098
15425TIP3    H267691   4.386   1.665  14.422  1.4805 -0.5286 -0.0407
15426TIP3   OH267692   6.576   3.572  15.355 -0.2652 -0.2383 -0.4702
15426TIP3    H167693   6.663   3.611  15.346 -1.0087  1.3036 -1.3998
15426TIP3    H267694   6.570   3.546  15.447  1.0127  0.0438 -0.2963
15427TIP3   OH267695   6.245   5.331   2.719  0.3043  0.0902  0.6192
15427TIP3    H167696   6.211   5.245   2.695 -0.1810  0.7080 -1.0549
15427TIP3    H267697   6.183   5.364   2.784 -1.1421  0.2884 -0.7862
15428TIP3   OH267698   0.294   0.749   6.269  0.3336  0.3386  0.2256
15428TIP3    H167699   0.293   0.840   6.239  0.7106  0.2995  0.0884
15428TIP3    H267700   0.387   0.727   6.274  0.2925  0.4034  1.6222
15429TIP3   OH267701   2.383   4.158   5.271  0.0429  0.3313  0.2659
15429TIP3    H167702   2.477   4.158   5.254  0.3012  0.6380  1.5864
15429TIP3    H267703   2.348   4.089   5.214  1.0060  0.4813 -0.5199
15430TIP3   OH267704   3.226   0.591  15.015 -0.0757 -0.3539  0.2613
15430TIP3    H167705   3.212   0.548  14.931 -0.1139 -0.6745  0.4326
15430TIP3    H267706   3.137   0.607  15.049 -0.0900  0.6688 -0.2091
15431TIP3   OH267707   0.564   2.955  14.281  0.2178  0.0569  0.4679
15431TIP3    H167708   0.606   2.875  14.250  1.4901  0.8669  0.0062
15431TIP3    H267709   0.616   2.982  14.356 -1.4791 -0.6576  1.9631
15432TIP3   OH267710   5.552   3.061  10.871 -0.2369 -0.5643  0.1914
15432TIP3    H167711   5.468   3.026  10.903  0.1170 -0.6174  1.1041
15432TIP3    H267712   5.597   2.985  10.835  0.1279 -0.8851  1.2871
15433TIP3   OH267713   3.748   2.701   1.322  0.7958  0.0500  0.5382
15433TIP3    H167714   3.813   2.751   1.371 -0.1016 -0.0434  1.8864
15433TIP3    H267715   3.664   2.735   1.351  0.2126 -0.1782 -0.7948
15434TIP3   OH267716   5.245   6.457  15.895  0.1808 -0.6903  0.0762
15434TIP3    H167717   5.180   6.523  15.917  0.8068  0.0571 -0.2694
15434TIP3    H267718   5.262   6.412  15.978  0.2172  0.0208  0.4663
15435TIP3   OH267719   0.411   5.770  10.349 -0.1100  0.4957 -0.2062
15435TIP3    H167720   0.394   5.684  10.388 -0.0039  0.1888 -0.8297
15435TIP3    H267721   0.405   5.755  10.255 -2.4245  1.6446 -0.3209
15436TIP3   OH267722   4.799   5.458   5.373  0.3060 -0.0261  0.0199
15436TIP3    H167723   4.737   5.411   5.428  1.7986 -2.7743 -0.4797
15436TIP3    H267724   4.795   5.549   5.404 -1.4333 -0.7760  2.2380
15437TIP3   OH267725   0.900   2.314   5.164  0.3482  0.1404 -0.1348
15437TIP3    H167726   0.970   2.368   5.203 -1.0331  0.9593  1.3227
15437TIP3    H267727   0.940   2.228   5.153  1.4173  0.4201  1.2512
15438TIP3   OH267728   4.136   5.830   3.302 -0.0840  0.4344 -0.2659
15438TIP3    H167729   4.116   5.769   3.373  1.2873 -3.5182 -2.8815
15438TIP3    H267730   4.225   5.861   3.320  0.4515 -0.9488 -0.4071
15439TIP3   OH267731   5.943   2.063   2.877 -0.6749 -0.4469  0.3979
15439TIP3    H167732   6.003   1.996   2.911  1.3983  1.3779  0.5286
15439TIP3    H267733   5.918   2.030   2.790 -0.2687 -1.7171  0.7375
15440TIP3   OH267734   0.371   6.486   1.266  0.9103 -0.5809 -0.6209
15440TIP3    H167735   0.377   6.417   1.333 -2.1219 -2.3438 -1.9516
15440TIP3    H267736   0.320   6.556   1.307  0.9852 -0.6759 -0.3660
15441TIP3   OH267737   4.600   5.278   5.824 -0.0006  0.4664  0.0224
15441TIP3    H167738   4.624   5.344   5.759  1.1738  0.2354  0.2034
15441TIP3    H267739   4.525   5.316   5.870  0.2803  1.4131 -0.2742
15442TIP3   OH267740   3.897   2.249  16.187  0.5042 -0.2207  0.8212
15442TIP3    H167741   3.987   2.230  16.211  0.6834  0.2374  0.5299
15442TIP3    H267742   3.846   2.180  16.228  1.0819 -1.0159  0.2298
15443TIP3   OH267743   0.583   6.421   3.806 -0.1542 -0.4077  0.1715
15443TIP3    H167744   0.655   6.365   3.777  0.9439  1.2061 -0.3114
15443TIP3    H267745   0.615   6.461   3.887 -0.6977 -0.0473  0.2105
15444TIP3   OH267746   5.782   4.999   2.123  0.0754  0.3115 -0.2015
15444TIP3    H167747   5.732   4.949   2.059 -2.2197  0.8965  1.0365
15444TIP3    H267748   5.811   4.933   2.187  0.5167  0.0480 -0.6561
15445TIP3   OH267749   4.889   5.892   0.549  0.2235 -0.3871 -0.0068
15445TIP3    H167750   4.951   5.819   0.543  1.3848  0.6994 -2.3994
15445TIP3    H267751   4.819   5.869   0.489 -0.7718 -0.6907  1.2224
15446TIP3   OH267752   6.474   6.591  12.978  0.2910  0.6062 -0.4089
15446TIP3    H167753   6.382   6.602  13.004 -1.1197 -0.4683 -4.2798
15446TIP3    H267754   6.508   6.525  13.039 -1.7385  0.3990  0.5859
15447TIP3   OH267755   0.942   5.378  12.161 -0.6085  0.3478 -0.3866
15447TIP3    H167756   0.859   5.366  12.207 -0.7768  0.4469 -0.6606
15447TIP3    H267757   0.983   5.292  12.162 -0.8178  0.2455 -0.4465
15448TIP3   OH267758   1.062   6.659   3.289  0.4091  0.2106  0.1097
15448TIP3    H167759   1.029   6.657   3.199  0.5691 -0.2409  0.0598
15448TIP3    H267760   1.046   6.571   3.322 -1.0391  0.7766  1.0262
15449TIP3   OH267761   1.205   2.830   2.276 -0.4149 -0.3316 -0.0231
15449TIP3    H167762   1.260   2.752   2.280 -2.5168 -1.9322 -0.5598
15449TIP3    H267763   1.184   2.840   2.183  0.3962  1.3423 -0.0589
15450TIP3   OH267764   1.783   2.392  13.232 -0.6593 -0.0236 -0.1453
15450TIP3    H167765   1.869   2.406  13.272 -0.6236  1.3444 -0.6345
15450TIP3    H267766   1.781   2.454  13.159 -1.6050 -0.8852 -0.8710
15451TIP3   OH267767   4.534   6.206  15.293 -0.6487 -0.3773 -0.3040
15451TIP3    H167768   4.484   6.147  15.349  0.8424 -0.9047  0.5310
15451TIP3    H267769   4.500   6.191  15.205 -0.7841 -1.9884  0.0013
15452TIP3   OH267770   6.687   2.579  16.067  0.2288 -0.0418  0.0173
15452TIP3    H167771   6.754   2.645  16.050 -0.2201  0.0332 -1.6326
15452TIP3    H267772   6.657   2.597  16.156  2.4790 -0.1730  0.8580
15453TIP3   OH267773   5.886   4.995  14.076  0.1966  0.4619 -0.0505
15453TIP3    H167774   5.892   4.973  13.983  3.5096  1.4939 -0.2150
15453TIP3    H267775   5.838   4.922  14.115 -0.5046 -0.4402 -2.4051
15454TIP3   OH267776   4.205   0.500  12.265 -0.0451  0.2669 -0.2852
15454TIP3    H167777   4.265   0.452  12.321 -1.3878 -0.8057  0.2660
15454TIP3    H267778   4.205   0.589  12.300 -0.2337 -0.1893  0.8914
15455TIP3   OH267779   6.365   6.106  15.787 -0.0208  0.1860  0.4817
15455TIP3    H167780   6.429   6.036  15.796 -0.3952 -0.0697  1.1861
15455TIP3    H267781   6.290   6.078  15.839 -1.4516 -0.3554 -1.6907
15456TIP3   OH267782   3.753   1.885  15.894 -0.5142  0.1245 -0.1905
15456TIP3    H167783   3.753   1.869  15.799  0.0767 -0.3295 -0.1251
15456TIP3    H267784   3.817   1.955  15.906  0.0126 -0.3620 -0.0607
15457TIP3   OH267785   5.363   5.837  13.892 -0.0539  0.2446  0.4076
15457TIP3    H167786   5.287   5.784  13.868  0.3441 -0.3865  0.5131
15457TIP3    H267787   5.424   5.775  13.931  0.5924  0.7168  0.1616
15458TIP3   OH267788   1.875   1.901  12.649 -0.3305 -0.5556 -0.2987
15458TIP3    H167789   1.857   1.836  12.581 -1.4120 -1.3805  0.7448
15458TIP3    H267790   1.805   1.966  12.641 -1.3850 -1.4858  0.9961
15459TIP3   OH267791   5.356   6.239  14.156 -0.1117 -0.4696 -0.2949
15459TIP3    H167792   5.387   6.284  14.077  0.0340  0.6147  0.3492
15459TIP3    H267793   5.433   6.237  14.214 -0.0414 -1.8275 -0.4184
15460TIP3   OH267794   3.966   2.845  12.644 -0.2160 -0.6737 -0.5745
15460TIP3    H167795   4.050   2.860  12.601  0.7427  0.4597  1.5308
15460TIP3    H267796   3.911   2.918  12.617  1.0174  1.1297  1.4857
15461TIP3   OH267797   3.998   4.224   0.600 -0.9087 -0.0712 -0.0335
15461TIP3    H167798   4.056   4.297   0.577 -1.4973  0.7683  1.0279
15461TIP3    H267799   4.041   4.182   0.674 -0.2252 -1.2512 -1.0818
15462TIP3   OH267800   6.350   4.442  13.308 -0.1188  0.0136  0.6684
15462TIP3    H167801   6.308   4.376  13.254  0.3332 -0.0292  0.3633
15462TIP3    H267802   6.403   4.393  13.370  1.4717  0.0886 -0.5682
15463TIP3   OH267803   1.201   2.955   0.272  0.8717 -0.0612 -0.3280
15463TIP3    H167804   1.217   3.030   0.214  2.8852 -0.3714 -0.2276
15463TIP3    H267805   1.223   2.987   0.359  1.6705 -0.7433 -0.2740
15464TIP3   OH267806   5.067   4.942  14.181  0.1077  0.1517 -0.2517
15464TIP3    H167807   5.100   5.010  14.122  0.1764  0.0307 -0.3529
15464TIP3    H267808   4.992   4.905  14.136  1.0967 -1.0293 -1.0023
15465TIP3   OH267809   3.002   4.179   5.768  0.2961 -0.3226 -0.2030
15465TIP3    H167810   2.927   4.191   5.826 -1.4703  1.4058 -2.6499
15465TIP3    H267811   3.010   4.085   5.758 -0.1215 -0.6172  1.8008
15466TIP3   OH267812   0.265   6.561   2.830 -0.1757  0.1098 -0.3629
15466TIP3    H167813   0.327   6.609   2.886 -1.1362  2.2008 -0.9975
15466TIP3    H267814   0.179   6.591   2.860 -0.7702 -0.3923 -1.5411
15467TIP3   OH267815   6.227   0.063   3.997 -0.0583  0.8203 -0.2241
15467TIP3    H167816   6.310   0.076   4.043 -2.1229  1.7097  3.8024
15467TIP3    H267817   6.185  -0.010   4.044 -1.8078  0.8378 -1.6477
15468TIP3   OH267818   1.473   4.297  17.215 -0.1491 -0.6731 -0.6225
15468TIP3    H167819   1.437   4.224  17.166 -1.7064 -0.2363 -0.1814
15468TIP3    H267820   1.397   4.345  17.247  0.7017 -1.4863  3.1018
15469TIP3   OH267821   5.976   5.325  10.706 -0.3141 -1.2228  0.1349
15469TIP3    H167822   6.041   5.297  10.641 -0.2909  0.6413 -0.7167
15469TIP3    H267823   6.000   5.416  10.726 -0.6476 -1.5826  2.3957
15470TIP3   OH267824   2.971   4.572   1.440 -0.0165 -0.0936  0.6115
15470TIP3    H167825   2.891   4.577   1.492 -0.5461  2.9526 -0.2648
15470TIP3    H267826   3.011   4.489   1.464 -3.3161 -1.6352  1.2492
15471TIP3   OH267827   5.350   3.883  13.428 -0.3835  0.5552  0.4806
15471TIP3    H167828   5.256   3.899  13.419 -0.3481  0.1156 -0.8179
15471TIP3    H267829   5.386   3.968  13.453 -0.9930  0.9901 -0.0998
15472TIP3   OH267830   4.382   5.874   0.253 -0.0155 -0.8019 -0.3649
15472TIP3    H167831   4.327   5.833   0.186 -2.3283  2.3710 -0.6614
15472TIP3    H267832   4.399   5.962   0.220  2.3664 -0.5161  1.3748
15473TIP3   OH267833   4.000   1.492   0.783  0.2834  0.0776 -0.1273
15473TIP3    H167834   3.909   1.520   0.785  0.9638  2.6643  2.3153
15473TIP3    H267835   4.026   1.498   0.691 -1.4289  1.4263 -0.5618
15474TIP3   OH267836   1.515   5.765  13.991  0.3340  0.6135  0.0149
15474TIP3    H167837   1.449   5.717  13.943  0.9149 -0.9847  0.7456
15474TIP3    H267838   1.554   5.824  13.927 -1.0609  0.8137 -0.6693
15475TIP3   OH267839   6.648   2.908   6.008 -0.4851  0.0056  0.4132
15475TIP3    H167840   6.652   2.910   5.913 -0.2509 -1.3409  0.3814
15475TIP3    H267841   6.648   2.815   6.031 -0.2386  0.3062  1.7400
15476TIP3   OH267842   2.746   2.503   3.941 -0.0150 -0.6904 -0.0472
15476TIP3    H167843   2.832   2.523   3.903 -0.4167 -0.1712 -0.7111
15476TIP3    H267844   2.706   2.442   3.880  0.8039 -2.8727  1.4692
15477TIP3   OH267845   5.077   0.658  12.930 -0.2635 -0.0902  0.2369
15477TIP3    H167846   5.144   0.593  12.950 -0.5400 -0.6871 -0.7161
15477TIP3    H267847   5.121   0.743  12.942  0.5150 -0.4685  0.1279
15478TIP3   OH267848   5.989   3.264   2.944  0.0882 -0.1831  0.0297
15478TIP3    H167849   5.895   3.279   2.946  0.0036 -0.4120 -1.1661
15478TIP3    H267850   6.013   3.244   3.034 -0.8484  0.8149  0.5198
15479TIP3   OH267851   3.174   4.796   0.115 -0.0124 -0.2580  0.2341
15479TIP3    H167852   3.238   4.776   0.183  1.7776 -1.9176 -1.8156
15479TIP3    H267853   3.188   4.889   0.095  0.7137 -0.2338  0.8162
15480TIP3   OH267854   2.526   2.989   5.806 -0.0630  0.3041  0.3365
15480TIP3    H167855   2.463   3.059   5.821  0.0383  0.1491  1.6371
15480TIP3    H267856   2.558   2.966   5.893 -0.2318 -1.4852 -0.0220
15481TIP3   OH267857   0.285   6.551  13.836  0.5372  0.1216 -0.0404
15481TIP3    H167858   0.345   6.479  13.853 -1.7051 -1.9212 -0.1729
15481TIP3    H267859   0.254   6.576  13.923  1.1329  0.7785 -0.0127
15482TIP3   OH267860   0.165   1.990  11.550 -0.1249  0.0752 -0.3701
15482TIP3    H167861   0.095   2.044  11.512 -0.7839 -0.6789 -0.2445
15482TIP3    H267862   0.245   2.025  11.512 -0.4305  1.8026  0.4550
15483TIP3   OH267863   5.100   3.704  13.746 -0.0467 -0.0749  0.5869
15483TIP3    H167864   5.157   3.687  13.670  0.1695 -2.1712  1.1436
15483TIP3    H267865   5.161   3.726  13.816 -0.1035 -0.0217  0.6186
15484TIP3   OH267866   0.045   0.924   2.297  0.3486 -0.2939 -0.4312
15484TIP3    H167867   0.132   0.960   2.279  0.2000  0.2436 -0.1039
15484TIP3    H267868   0.061   0.833   2.319  0.7830 -0.3189 -0.8188
15485TIP3   OH267869   3.571   4.233  15.264  0.0036 -0.1028  0.5039
15485TIP3    H167870   3.518   4.293  15.316  1.3876  1.0109  0.6783
15485TIP3    H267871   3.592   4.283  15.185 -1.4472 -1.5006 -0.8357
15486TIP3   OH267872   5.497   6.623  12.137  0.1720 -0.2742 -0.0784
15486TIP3    H167873   5.584   6.605  12.172 -0.4295 -1.2888  0.9698
15486TIP3    H267874   5.446   6.544  12.156 -0.4606 -0.5274 -2.4770
15487TIP3   OH267875   5.107   6.415   1.398 -0.0464  0.0934 -0.4453
15487TIP3    H167876   5.023   6.370   1.405 -1.0150  2.0212  1.3148
15487TIP3    H267877   5.172   6.348   1.419 -1.2442 -1.0456 -0.2388
15488TIP3   OH267878   6.133   4.780   5.298 -0.2883  0.2438  1.0660
15488TIP3    H167879   6.138   4.818   5.386  0.7184 -0.6184  1.4059
15488TIP3    H267880   6.213   4.810   5.255 -2.1181  3.1877 -0.6899
15489TIP3   OH267881   5.635   4.795  15.951 -0.4371 -0.4053 -0.4526
15489TIP3    H167882   5.622   4.701  15.954  0.0451 -0.4564  0.0009
15489TIP3    H267883   5.711   4.812  16.006 -0.4154  0.2305 -0.6616
15490TIP3   OH267884   1.200   4.673  17.129  0.1299  0.2345 -0.2418
15490TIP3    H167885   1.116   4.664  17.173 -0.1117 -0.4632 -0.8175
15490TIP3    H267886   1.178   4.685  17.037  0.6596 -0.3469 -0.4569
15491TIP3   OH267887   6.220   5.180  15.784  0.1007  0.4693 -0.2434
15491TIP3    H167888   6.267   5.151  15.706 -0.0070  0.1037 -0.1752
15491TIP3    H267889   6.129   5.187  15.755  0.0667  0.3695 -0.1613
15492TIP3   OH267890   1.243   0.774  16.301 -0.4032 -0.1798 -0.6823
15492TIP3    H167891   1.280   0.707  16.358 -3.3372  0.2671  2.0202
15492TIP3    H267892   1.224   0.848  16.359  0.8350  2.2855 -3.1838
15493TIP3   OH267893   6.351   0.959   2.940  0.5290  0.0180 -0.1659
15493TIP3    H167894   6.338   0.915   2.856  0.7289 -0.0512 -0.1608
15493TIP3    H267895   6.409   0.901   2.989 -1.7304 -1.3178  1.0875
15494TIP3   OH267896   6.734   3.246   6.350  0.6615 -0.0477  0.6377
15494TIP3    H167897   6.644   3.213   6.345  1.3205 -2.2492  1.9406
15494TIP3    H267898   6.779   3.205   6.277  0.9246 -0.0797  0.8161
15495TIP3   OH267899   6.685   1.384  17.077 -0.6448 -0.0289  0.0200
15495TIP3    H167900   6.701   1.469  17.036  0.1124 -0.9113 -1.5544
15495TIP3    H267901   6.720   1.394  17.166  1.6231  0.5649 -0.8890
15496TIP3   OH267902   5.144   6.122   3.902  0.3662 -0.1723  0.4225
15496TIP3    H167903   5.149   6.216   3.882 -1.2578  0.0538  0.9319
15496TIP3    H267904   5.235   6.093   3.901  0.9522  1.5167  0.7518
15497TIP3   OH267905   6.035   1.438   4.942  0.1476 -0.5728  0.3228
15497TIP3    H167906   5.958   1.452   4.998 -0.5065 -1.9417 -0.1991
15497TIP3    H267907   6.104   1.411   5.002  0.0430 -0.0153  0.7074
15498TIP3   OH267908   4.894   0.404  11.678 -0.0354  0.2566  0.4139
15498TIP3    H167909   4.856   0.450  11.753 -1.5399 -0.3377  0.0422
15498TIP3    H267910   4.825   0.404  11.612  0.6149 -0.8609 -0.2985
15499TIP3   OH267911   0.965   1.059  13.748 -0.3145 -0.0679  0.6569
15499TIP3    H167912   0.887   1.087  13.700 -0.6263 -0.7711  0.7307
15499TIP3    H267913   0.932   0.991  13.808  0.6836 -1.8636 -0.7625
15500TIP3   OH267914   1.411   0.742  12.797 -0.0399 -0.1309 -0.9267
15500TIP3    H167915   1.485   0.745  12.736 -0.1268  0.7635 -1.0051
15500TIP3    H267916   1.360   0.821  12.776 -0.1631  0.1021  0.1896
15501TIP3   OH267917   4.560   0.092   2.503  0.1875  0.4754 -0.4510
15501TIP3    H167918   4.653   0.109   2.491  0.3284  0.2717  0.2911
15501TIP3    H267919   4.530   0.162   2.560  0.1433 -0.0978  0.2515
15502TIP3   OH267920   0.747   2.722   2.132 -0.6415 -1.0871  0.7781
15502TIP3    H167921   0.656   2.735   2.160 -1.0979 -1.0752 -0.6479
15502TIP3    H267922   0.773   2.639   2.172 -0.6385 -0.2087  2.7109
15503TIP3   OH267923   3.115   6.231  10.925 -0.4024  0.5482  0.5016
15503TIP3    H167924   3.149   6.166  10.864  0.1921  0.0868  1.3009
15503TIP3    H267925   3.066   6.292  10.871 -1.0746 -0.6291 -0.2550
15504TIP3   OH267926   5.510   4.814   2.921 -0.1617  0.2503 -0.3975
15504TIP3    H167927   5.489   4.756   2.995  0.7719  2.2647  1.5784
15504TIP3    H267928   5.544   4.756   2.854  1.7061 -1.4535  1.8420
15505TIP3   OH267929   5.713   5.698  11.653  0.2123  0.0624  0.1681
15505TIP3    H167930   5.694   5.789  11.628 -1.2982  0.2023  1.6216
15505TIP3    H267931   5.800   5.702  11.692 -1.4735  1.9069  4.3536
15506TIP3   OH267932   2.241   4.209  14.753  0.2919 -0.3026 -0.6758
15506TIP3    H167933   2.194   4.137  14.796 -0.5650  0.3776 -0.4586
15506TIP3    H267934   2.264   4.174  14.667  0.3299 -1.0140 -0.3836
15507TIP3   OH267935   5.626   0.002   1.816  0.3002  0.2395  0.2475
15507TIP3    H167936   5.550  -0.050   1.839 -1.3985  2.4486 -0.0598
15507TIP3    H267937   5.658   0.037   1.900 -0.3383  0.9986  0.1837
15508TIP3   OH267938   3.513   2.230   4.686 -0.6065 -0.1843 -0.3640
15508TIP3    H167939   3.572   2.185   4.626  0.4228 -0.9860  1.1860
15508TIP3    H267940   3.513   2.176   4.765 -2.7544  0.2469  0.0145
15509TIP3   OH267941   5.821   1.146  13.670  0.1727 -0.2462  0.1189
15509TIP3    H167942   5.884   1.081  13.640  0.6431 -0.1239  0.8133
15509TIP3    H267943   5.756   1.151  13.600  0.7515 -0.6212 -0.4570
15510TIP3   OH267944   4.623   6.129   0.520  0.1527 -0.0383 -0.4630
15510TIP3    H167945   4.633   6.169   0.434 -0.3141  0.3593 -0.3342
15510TIP3    H267946   4.678   6.181   0.578  0.9953 -0.7106 -0.6373
15511TIP3   OH267947   4.352   0.452  15.565 -0.2812  0.1126 -0.2449
15511TIP3    H167948   4.286   0.429  15.630 -0.1529  1.7623  0.5143
15511TIP3    H267949   4.434   0.417  15.600 -0.2057  1.0207  0.5254
15512TIP3   OH267950   6.390   4.664   3.140 -0.4468  0.5165 -0.0498
15512TIP3    H167951   6.381   4.687   3.233 -0.8636 -2.8954  0.8585
15512TIP3    H267952   6.396   4.749   3.096  0.7033  2.2946  3.1406
15513TIP3   OH267953   1.613   3.742  14.262 -0.2604 -0.7453 -0.3966
15513TIP3    H167954   1.644   3.658  14.294  0.6254 -0.3871 -0.2932
15513TIP3    H267955   1.672   3.806  14.301 -1.1827 -0.0291 -0.1249
15514TIP3   OH267956   6.169   4.366   4.859  0.2421 -0.5147 -0.0570
15514TIP3    H167957   6.133   4.300   4.919 -1.5728  1.0896  0.7398
15514TIP3    H267958   6.169   4.323   4.774 -0.9578 -1.5520  0.4258
15515TIP3   OH267959   3.537   3.104  15.298 -0.6385  0.3719 -0.2192
15515TIP3    H167960   3.604   3.037  15.311 -1.1807  0.2801  2.7352
15515TIP3    H267961   3.461   3.056  15.265 -0.1603  0.0040 -0.7984
15516TIP3   OH267962   1.928   3.571  16.041  0.2681 -0.2184 -0.0931
15516TIP3    H167963   1.976   3.611  16.114 -0.2580  0.8779 -0.3231
15516TIP3    H267964   1.981   3.590  15.964 -1.0220  2.0300 -0.5229
15517TIP3   OH267965   3.614   0.367  13.840 -0.5706  0.0411  0.4309
15517TIP3    H167966   3.665   0.431  13.890 -1.0390  0.7668 -0.0050
15517TIP3    H267967   3.646   0.376  13.750  0.1880 -1.1771  0.5568
15518TIP3   OH267968   0.128   5.360   1.513  0.4439 -0.1259  0.6697
15518TIP3    H167969   0.095   5.449   1.507  0.0935 -0.3460 -1.1874
15518TIP3    H267970   0.192   5.353   1.442 -1.4630 -2.0950 -1.0109
15519TIP3   OH267971   0.979   3.749  12.650  0.1741 -0.5686 -0.9037
15519TIP3    H167972   0.994   3.739  12.744  0.1861  3.1534 -0.3850
15519TIP3    H267973   0.893   3.708  12.634  0.1102 -1.1098  0.7236
15520TIP3   OH267974   1.244   1.553   5.746  0.1735 -0.5808  0.4289
15520TIP3    H167975   1.232   1.460   5.766 -0.0603 -0.4588  0.8449
15520TIP3    H267976   1.245   1.597   5.831 -0.3823 -0.1232  0.2058
15521TIP3   OH267977   0.685   5.608  10.921 -0.2600  0.4370  0.0191
15521TIP3    H167978   0.654   5.535  10.974 -0.2410  1.1504  1.0233
15521TIP3    H267979   0.618   5.618  10.852  0.1548 -1.0378 -0.6314
15522TIP3   OH267980   0.960   2.532   1.135  0.5660  0.2689 -0.4122
15522TIP3    H167981   0.952   2.543   1.230  3.1439  0.2456 -0.1285
15522TIP3    H267982   0.995   2.616   1.105 -0.9334  0.5415 -1.4813
15523TIP3   OH267983   2.623   0.891  11.305  0.6090  0.2934 -0.4191
15523TIP3    H167984   2.619   0.924  11.216 -0.2403  3.4103  0.6455
15523TIP3    H267985   2.715   0.865  11.317  0.7887  0.0718 -2.0726
15524TIP3   OH267986   0.382   5.578  16.704  0.0350  0.0107 -0.3795
15524TIP3    H167987   0.306   5.522  16.690 -0.9965  1.2285  0.2092
15524TIP3    H267988   0.457   5.521  16.688 -0.9904 -1.1089 -1.3951
15525TIP3   OH267989   5.137   1.193  16.428  0.0931  0.2609  0.7496
15525TIP3    H167990   5.205   1.138  16.466 -0.2821 -0.0269  1.0117
15525TIP3    H267991   5.083   1.133  16.377  0.2105  0.5389  0.2918
15526TIP3   OH267992   3.209   5.177   5.278 -0.1268 -0.3635  0.3255
15526TIP3    H167993   3.114   5.171   5.287 -0.2036  0.7478  0.4086
15526TIP3    H267994   3.240   5.087   5.288 -1.0897 -0.6073  1.2534
15527TIP3   OH267995   0.790   0.814   1.654 -0.1374 -0.2921  0.0947
15527TIP3    H167996   0.738   0.887   1.619 -0.2277 -0.0345  0.7619
15527TIP3    H267997   0.881   0.842   1.643 -0.0699 -1.0639 -1.7913
15528TIP3   OH267998   2.327   3.439   5.361  0.0640  0.2577  0.3520
15528TIP3    H167999   2.283   3.356   5.381  0.5776 -0.1610 -0.2194
15528TIP3    H268000   2.419   3.424   5.383 -0.2498  1.5709  2.8253
15529TIP3   OH268001   5.476   4.121  14.211  0.0525 -0.5870  0.1079
15529TIP3    H168002   5.516   4.159  14.290 -1.3614 -0.4592  0.7863
15529TIP3    H268003   5.464   4.029  14.234 -0.9375 -0.4186  0.2924
15530TIP3   OH268004   5.128   0.319  16.495 -1.0157  0.5574 -0.3711
15530TIP3    H168005   5.167   0.237  16.526  0.1478  0.3572 -2.1906
15530TIP3    H268006   5.064   0.292  16.430  0.5398  1.0578 -2.2234
15531TIP3   OH268007   6.218   0.320  14.490  0.6130  0.4363  0.3329
15531TIP3    H168008   6.147   0.379  14.466 -1.1603 -1.1672  1.3662
15531TIP3    H268009   6.270   0.312  14.410 -0.9470  0.8799 -0.7908
15532TIP3   OH268010   2.582   6.542  14.646 -0.5640  0.5282 -0.0802
15532TIP3    H168011   2.517   6.581  14.704  0.6787  0.1437  1.6443
15532TIP3    H268012   2.531   6.493  14.582 -1.9711  0.6387  0.9276
15533TIP3   OH268013   0.796   1.432   3.859 -0.0592  0.3559 -0.6927
15533TIP3    H168014   0.774   1.436   3.952 -1.9363 -1.7477 -0.9555
15533TIP3    H268015   0.884   1.394   3.857 -1.0792 -2.2889  0.2573
15534TIP3   OH268016   5.576   1.317  12.971  0.0007 -0.3664 -0.3362
15534TIP3    H168017   5.520   1.241  12.953 -1.3176  0.2946  0.7904
15534TIP3    H268018   5.644   1.282  13.030 -0.2654 -0.7934 -0.2773
15535TIP3   OH268019   5.736   4.680   5.757 -0.4945  0.4715 -0.5233
15535TIP3    H168020   5.686   4.752   5.717 -1.1699 -0.3919 -1.2731
15535TIP3    H268021   5.818   4.679   5.709 -0.5061  0.7080 -0.5504
15536TIP3   OH268022   1.118   4.165  15.616  0.3970 -0.0339  0.5107
15536TIP3    H168023   1.051   4.166  15.684 -0.9716 -0.2143 -0.7984
15536TIP3    H268024   1.201   4.165  15.665 -0.5285 -1.5417  2.1840
15537TIP3   OH268025   1.268   0.194  16.893  0.2488  0.4145 -0.0334
15537TIP3    H168026   1.227   0.148  16.820  3.0938 -0.6357 -1.0869
15537TIP3    H268027   1.221   0.162  16.970 -2.3786  1.0425 -1.2355
15538TIP3   OH268028   6.488   4.843   0.376  0.1492 -0.2092  0.5934
15538TIP3    H168029   6.396   4.825   0.356  0.2929  0.7166 -1.2085
15538TIP3    H268030   6.485   4.912   0.443 -0.6129  2.0300 -1.5709
15539TIP3   OH268031   1.847   0.636   1.465 -0.1789 -0.7893 -0.4966
15539TIP3    H168032   1.791   0.700   1.509 -0.3454 -1.5305  0.4071
15539TIP3    H268033   1.797   0.554   1.469  1.1146 -1.5597  0.6905
15540TIP3   OH268034   0.148   1.186  12.754  0.6437 -0.3164 -0.3420
15540TIP3    H168035   0.123   1.232  12.834 -0.8450 -1.7271  0.0637
15540TIP3    H268036   0.174   1.099  12.784  2.8039 -0.0148 -1.1547
15541TIP3   OH268037   6.480   1.957  15.943  0.4390  0.1877 -0.5736
15541TIP3    H168038   6.428   1.980  15.866  0.7217 -1.0901 -1.1698
15541TIP3    H268039   6.567   1.994  15.926  1.0818 -1.7168 -1.8311
15542TIP3   OH268040   5.282   6.081  17.092 -0.9028  0.3247 -0.2813
15542TIP3    H168041   5.212   6.145  17.104 -0.4750  0.5195  1.3717
15542TIP3    H268042   5.254   6.005  17.143  0.8778  1.0836  2.0313
15543TIP3   OH268043   2.669   3.404   6.185 -0.2317  0.5892 -0.6363
15543TIP3    H168044   2.657   3.378   6.276 -1.4363  0.9281 -0.6731
15543TIP3    H268045   2.756   3.444   6.182 -0.5798  1.4940  0.5854
15544TIP3   OH268046   2.872   2.785  15.492 -0.6648 -0.2083 -0.2774
15544TIP3    H168047   2.848   2.745  15.576 -1.3519  0.6496 -0.0447
15544TIP3    H268048   2.930   2.721  15.451 -0.9457 -0.9973  0.5027
15545TIP3   OH268049   3.984   4.433   1.459 -0.2442 -0.1017 -0.7394
15545TIP3    H168050   4.020   4.344   1.458  0.2611 -0.2331  4.1253
15545TIP3    H268051   4.054   4.487   1.421  0.5939 -1.5035 -1.2690
15546TIP3   OH268052   0.250   3.873   5.708  0.1779  0.2013 -0.0399
15546TIP3    H168053   0.210   3.958   5.687 -0.0425 -0.1055 -0.9080
15546TIP3    H268054   0.239   3.821   5.628  0.6128 -0.5338  0.3681
15547TIP3   OH268055   1.248   2.977  11.177 -0.5918 -0.1348 -0.3452
15547TIP3    H168056   1.272   2.885  11.176 -1.6622 -0.4876  1.3762
15547TIP3    H268057   1.308   3.019  11.116  0.4698 -1.8369 -0.5200
15548TIP3   OH268058   0.502   3.268   4.935 -0.2100 -0.6243  0.0217
15548TIP3    H168059   0.476   3.178   4.955 -1.1153 -0.4378 -0.2911
15548TIP3    H268060   0.585   3.280   4.982 -0.6346 -1.2567  0.9531
15549TIP3   OH268061   4.608   2.494  16.993 -0.0123 -0.0958  0.1906
15549TIP3    H168062   4.555   2.532  17.063 -3.3852 -0.5390 -1.9108
15549TIP3    H268063   4.644   2.570  16.947 -0.4926  0.2999  0.4632
15550TIP3   OH268064   4.817   4.124  11.917 -0.6014 -0.3887  0.1129
15550TIP3    H168065   4.836   4.203  11.868 -1.6582 -0.0373  0.2342
15550TIP3    H268066   4.733   4.094  11.882 -0.7911 -0.7907  0.8820
15551TIP3   OH268067   2.069   5.823  16.546 -0.4674 -0.1901  0.1073
15551TIP3    H168068   2.020   5.748  16.580 -1.3679  0.5567  0.5049
15551TIP3    H268069   2.021   5.849  16.467 -0.0666 -0.1308 -0.1213
15552TIP3   OH268070   4.666   6.461  17.125  0.3127 -0.2485 -0.2179
15552TIP3    H168071   4.687   6.398  17.194 -1.0639  0.1552  0.5984
15552TIP3    H268072   4.634   6.538  17.171 -2.5359 -0.6570 -1.2943
15553TIP3   OH268073   2.569   1.871   3.188 -0.1988  0.0396  0.7616
15553TIP3    H168074   2.592   1.876   3.281  2.7671  0.3933  0.0783
15553TIP3    H268075   2.637   1.920   3.143 -1.9630  0.4995 -1.6045
15554TIP3   OH268076   0.333   6.742   0.573  0.0056  0.1547  0.0871
15554TIP3    H168077   0.292   6.655   0.565 -0.6736  0.3824  0.8852
15554TIP3    H268078   0.336   6.758   0.668  0.4524  0.8500 -0.0402
15555TIP3   OH268079   0.976   0.607  14.390 -0.1277 -0.5162  0.0146
15555TIP3    H168080   0.988   0.643  14.302  0.0219 -2.0342 -0.6100
15555TIP3    H268081   1.033   0.530  14.393  1.5368  0.6705  2.1938
15556TIP3   OH268082   0.277   0.777  15.571  0.1993  0.8058  0.6989
15556TIP3    H168083   0.306   0.817  15.653  1.6843 -0.8003  1.0427
15556TIP3    H268084   0.353   0.726  15.542 -1.3365 -1.1957 -0.0171
15557TIP3   OH268085   6.218   4.959  11.343  0.4619 -0.3818 -0.1782
15557TIP3    H168086   6.218   4.922  11.431 -1.4161 -0.3447 -0.1171
15557TIP3    H268087   6.310   4.958  11.316  1.2093  0.5006  2.1329
15558TIP3   OH268088   6.768   0.121   5.158 -0.4687 -0.3417  0.2489
15558TIP3    H168089   6.732   0.143   5.243 -2.5392  0.0208 -0.6613
15558TIP3    H268090   6.741   0.192   5.100  2.3741  0.3483 -0.4259
15559TIP3   OH268091   5.808   1.945   1.388  0.3910  0.4439 -0.3623
15559TIP3    H168092   5.763   1.979   1.310  2.9548  1.2067 -1.6274
15559TIP3    H268093   5.738   1.906   1.441 -1.6538  1.1538 -2.3609
15560TIP3   OH268094   0.355   4.826   3.484 -0.0776  0.3281 -0.4261
15560TIP3    H168095   0.403   4.746   3.462 -0.2077  0.1791 -0.1786
15560TIP3    H268096   0.265   4.807   3.459 -0.4721 -0.3049  1.3018
15561TIP3   OH268097   0.443   4.734   0.639  0.0488 -0.6747  0.0391
15561TIP3    H168098   0.474   4.644   0.633 -1.7399 -1.3682  0.4521
15561TIP3    H268099   0.445   4.767   0.549 -1.8878 -2.1027 -0.5939
15562TIP3   OH268100   3.505   1.515   4.246 -0.9592  0.9485 -0.1240
15562TIP3    H168101   3.547   1.512   4.333  1.4607  2.7204 -1.0910
15562TIP3    H268102   3.475   1.426   4.230  0.1973  0.1555  1.7837
15563TIP3   OH268103   3.127   1.410  11.581 -0.3636 -0.1485 -0.2064
15563TIP3    H168104   3.143   1.454  11.664  0.6340 -1.0627  0.1087
15563TIP3    H268105   3.068   1.469  11.533 -2.4990 -0.4624  1.8735
15564TIP3   OH268106   2.391   6.561   3.982  0.4584  0.0991 -0.2689
15564TIP3    H168107   2.409   6.593   4.071  0.4514 -0.6097 -0.0066
15564TIP3    H268108   2.323   6.495   3.994 -0.9240  1.3111 -1.0242
15565TIP3   OH268109   5.623   4.004  12.694 -0.2052  0.0795  0.0244
15565TIP3    H168110   5.625   4.045  12.607  1.9040 -0.0533 -0.0503
15565TIP3    H268111   5.684   3.930  12.687 -0.8626 -0.6132  1.3053
15566TIP3   OH268112   0.912   2.623  17.069 -0.3407 -0.2220  0.1080
15566TIP3    H168113   0.961   2.667  17.139 -0.1897 -0.5362  0.2057
15566TIP3    H268114   0.939   2.667  16.989 -2.0053  1.4769  0.4172
15567TIP3   OH268115   2.515   1.697  13.211 -0.0078 -0.4707  1.1755
15567TIP3    H168116   2.448   1.684  13.144 -0.6413  2.0144  1.2328
15567TIP3    H268117   2.466   1.696  13.294  0.0033  1.1599  1.2301
15568TIP3   OH268118   1.083   1.451   2.217 -0.3558 -0.0514  0.1081
15568TIP3    H168119   1.136   1.446   2.297 -1.3634  3.5954  1.2026
15568TIP3    H268120   1.145   1.479   2.149  0.0629 -0.8521  0.1505
15569TIP3   OH268121   2.080   3.540  12.919  0.0305  0.1490  0.5024
15569TIP3    H168122   2.087   3.546  13.014  0.3682 -0.6057  0.5319
15569TIP3    H268123   2.065   3.447  12.902 -0.7873  0.3852 -0.1389
15570TIP3   OH268124   0.818   4.556   0.961 -0.1178  0.4363 -0.0950
15570TIP3    H168125   0.751   4.488   0.961  1.1647 -0.8916 -1.0633
15570TIP3    H268126   0.852   4.558   1.050  1.3086 -1.7960 -0.5002
15571TIP3   OH268127   3.118   5.481  13.316  0.2666 -0.3825  0.1940
15571TIP3    H168128   3.127   5.388  13.335 -0.2857 -0.2250  1.3113
15571TIP3    H268129   3.105   5.522  13.401 -0.2845  0.6232 -0.3498
15572TIP3   OH268130   3.941   5.482  16.566 -0.1718  0.2052  0.3346
15572TIP3    H168131   3.931   5.387  16.564 -2.0071  0.3397  1.2639
15572TIP3    H268132   3.965   5.502  16.657 -1.6654  0.7549  0.6290
15573TIP3   OH268133   1.409   3.072  16.805  0.4063  0.1667 -0.3248
15573TIP3    H168134   1.392   3.160  16.838  0.6505 -0.1219  0.5747
15573TIP3    H268135   1.409   3.082  16.709  1.4326  1.3234 -0.2168
15574TIP3   OH268136   5.241   1.577   2.848  0.5488 -0.2648  0.1817
15574TIP3    H168137   5.270   1.504   2.794  0.3766  0.2603 -0.6275
15574TIP3    H268138   5.271   1.554   2.936  2.0778 -0.4571 -0.3590
15575TIP3   OH268139   5.431   0.790  10.908  0.5885 -0.3716  0.7337
15575TIP3    H168140   5.439   0.752  10.821  1.0097  0.5359  0.3607
15575TIP3    H268141   5.512   0.839  10.920  0.1448  0.2573  1.2580
15576TIP3   OH268142   1.903   2.982   2.149 -0.1350  0.0636  0.1039
15576TIP3    H168143   1.896   2.916   2.218 -1.3677  0.2942  0.2217
15576TIP3    H268144   1.881   3.065   2.193 -1.9897  0.0744 -0.7648
15577TIP3   OH268145   0.591   4.589   5.676 -0.2890  0.3991  0.8201
15577TIP3    H168146   0.633   4.640   5.745 -0.2131  0.9203  0.4028
15577TIP3    H268147   0.635   4.617   5.596  0.5752 -1.2101  0.6980
15578TIP3   OH268148   1.823   5.047   0.255  0.2929 -0.4806 -0.1755
15578TIP3    H168149   1.778   5.128   0.278 -1.5389 -0.8531 -2.1620
15578TIP3    H268150   1.753   4.985   0.234  1.6806 -2.0641 -0.3514
15579TIP3   OH268151   5.217   1.956  14.192 -0.4711 -0.3928 -0.0836
15579TIP3    H168152   5.243   2.002  14.271 -1.2927 -0.0600  0.0074
15579TIP3    H268153   5.236   1.864  14.209 -0.9406 -0.3629  0.6290
15580TIP3   OH268154   4.508   3.711  12.272  0.2594  0.0350  0.2525
15580TIP3    H168155   4.560   3.791  12.269 -2.0231  1.6020 -1.8305
15580TIP3    H268156   4.484   3.694  12.181 -1.8169 -1.2593  0.9624
15581TIP3   OH268157   4.019   1.395   5.122  0.0982 -0.8968 -0.2185
15581TIP3    H168158   3.939   1.360   5.084  0.3544 -1.5700 -0.1563
15581TIP3    H268159   4.089   1.341   5.084  0.5415 -0.1636 -0.4526
15582TIP3   OH268160   6.584   4.981  11.679  0.6950 -0.0554  0.3451
15582TIP3    H168161   6.614   4.930  11.604  0.1429  0.9314 -0.5845
15582TIP3    H268162   6.625   5.067  11.666 -0.7780  0.6488  0.2187
15583TIP3   OH268163   1.195   2.882  15.050 -0.3846 -0.0655 -0.1957
15583TIP3    H168164   1.280   2.840  15.033 -0.9524 -0.8212 -1.2328
15583TIP3    H268165   1.218   2.964  15.095  0.8690 -0.4637 -0.0681
15584TIP3   OH268166   2.634   4.891   0.468 -0.3311  0.2604  0.4230
15584TIP3    H168167   2.555   4.925   0.424 -0.8820  2.9041  3.0877
15584TIP3    H268168   2.650   4.954   0.539  2.2635 -2.0327  2.0546
15585TIP3   OH268169   2.168   4.429   1.007 -0.7435 -0.0739 -0.3135
15585TIP3    H168170   2.263   4.417   1.006 -0.5511  1.2362  0.4106
15585TIP3    H268171   2.148   4.458   1.096 -1.8416 -0.4076 -0.4343
15586TIP3   OH268172   1.324   1.930  14.905 -0.2425 -0.0940  0.1679
15586TIP3    H168173   1.247   1.873  14.901 -3.0313  2.6484  5.1582
15586TIP3    H268174   1.378   1.892  14.974  1.3153 -0.1428 -1.0126
15587TIP3   OH268175   2.455   1.751  11.637  0.0438 -0.5023  0.0791
15587TIP3    H168176   2.453   1.678  11.698 -0.8423 -0.7582 -0.2450
15587TIP3    H268177   2.460   1.829  11.692 -0.4025 -0.7448  0.4584
15588TIP3   OH268178   4.744   5.119  14.564  0.3027  0.2209  0.3488
15588TIP3    H168179   4.753   5.214  14.574 -0.5618  0.5580 -1.6884
15588TIP3    H268180   4.821   5.093  14.512  0.3198 -0.1428  0.5495
15589TIP3   OH268181   0.363   1.780  16.577 -0.2164  0.2739  0.7108
15589TIP3    H168182   0.385   1.868  16.607 -0.4073  0.4279  0.4044
15589TIP3    H268183   0.282   1.791  16.527  1.1672  0.3693 -1.6596
15590TIP3   OH268184   1.792   5.096   2.854 -0.3477  0.5374  0.2660
15590TIP3    H168185   1.874   5.143   2.868 -0.3386  0.0367  2.1475
15590TIP3    H268186   1.817   5.003   2.858 -0.7379  0.3532 -1.0278
15591TIP3   OH268187   0.543   1.022   1.299 -0.0989  0.1648  0.2541
15591TIP3    H168188   0.591   1.096   1.263  1.0962 -0.2113  1.0174
15591TIP3    H268189   0.579   1.010   1.387 -2.0881  0.2998  1.1500
15592TIP3   OH268190   0.325   0.458   0.592  0.0324 -0.1764 -0.4162
15592TIP3    H168191   0.405   0.493   0.554 -0.1405  0.4768 -0.1943
15592TIP3    H268192   0.256   0.517   0.563 -0.3187 -0.5207 -0.3062
15593TIP3   OH268193   6.061   2.039  11.604  0.5592  0.3561  0.3263
15593TIP3    H168194   6.130   2.006  11.546  0.4771 -0.6978  0.7926
15593TIP3    H268195   6.056   2.133  11.586  1.1700  0.2052 -0.6952
15594TIP3   OH268196   1.708   0.948   5.981 -0.3620 -0.0840  0.2554
15594TIP3    H168197   1.673   1.006   5.914 -0.6170  0.2504  0.6719
15594TIP3    H268198   1.802   0.949   5.966 -0.1818  1.7057  1.2345
15595TIP3   OH268199   3.308   3.479   4.288  0.4280 -0.3290  0.5299
15595TIP3    H168200   3.377   3.441   4.342  0.0894 -1.5837  0.1049
15595TIP3    H268201   3.302   3.570   4.317  2.1613 -0.2319  0.6627
15596TIP3   OH268202   6.428   5.863   4.277  0.0644  0.6964 -0.0218
15596TIP3    H168203   6.516   5.902   4.283  0.1667  0.3472  0.9783
15596TIP3    H268204   6.387   5.886   4.361  0.2802 -1.6654  0.8073
15597TIP3   OH268205   5.213   1.298  11.714  0.0817 -0.7651  0.4037
15597TIP3    H168206   5.142   1.247  11.676  0.7811 -1.8476  0.4776
15597TIP3    H268207   5.271   1.232  11.753 -0.4604  0.2292  3.1853
15598TIP3   OH268208   6.718   3.939  12.377  0.0366 -0.4458 -0.0111
15598TIP3    H168209   6.773   3.877  12.425  0.2960  0.0006  0.2752
15598TIP3    H268210   6.632   3.898  12.375  0.1951 -0.7920  0.2190
15599TIP3   OH268211   4.413   1.355  16.102 -0.3235 -0.4581  0.4730
15599TIP3    H168212   4.367   1.285  16.057 -0.1210  0.4287 -1.1893
15599TIP3    H268213   4.503   1.350  16.070 -0.7402  1.8054 -1.3579
15600TIP3   OH268214   5.313   3.488   1.095 -0.3321  0.5891  0.4619
15600TIP3    H168215   5.257   3.562   1.072 -1.0537  0.2438  1.0595
15600TIP3    H268216   5.346   3.456   1.011 -0.7899  0.9905  0.1227
15601TIP3   OH268217   5.706   4.029  15.338 -0.2520  0.0437  0.0013
15601TIP3    H168218   5.717   3.948  15.386 -0.1322 -0.1366 -0.3279
15601TIP3    H268219   5.736   4.009  15.249  1.3267  0.8850  0.3180
15602TIP3   OH268220   6.582   5.947  15.746 -0.2539 -0.0078 -0.8146
15602TIP3    H168221   6.651   5.972  15.808 -0.5868  2.2338 -1.2668
15602TIP3    H268222   6.603   5.995  15.666 -1.1841 -0.9647 -1.6613
15603TIP3   OH268223   0.341   6.276   3.431  0.1594 -0.1676  0.0378
15603TIP3    H168224   0.313   6.215   3.499 -0.6488 -0.8339 -0.8785
15603TIP3    H268225   0.359   6.222   3.355 -0.1698  0.6873 -0.6679
15604TIP3   OH268226   0.597   2.370   0.667 -0.2370  0.4515 -0.0321
15604TIP3    H168227   0.562   2.282   0.677  1.1034 -0.0120  0.9630
15604TIP3    H268228   0.611   2.401   0.756  2.6587  0.2258 -0.3081
15605TIP3   OH268229   5.231   5.218   1.306  0.5149  0.4015 -0.3419
15605TIP3    H168230   5.289   5.279   1.260  0.2940  1.1990  0.4212
15605TIP3    H268231   5.274   5.202   1.390 -2.1456  4.1377  2.0032
15606TIP3   OH268232   4.643   2.499   2.010  0.1509  0.1244  0.3594
15606TIP3    H168233   4.683   2.412   2.011  1.1343  0.5289  2.1184
15606TIP3    H268234   4.712   2.556   1.974  0.5953  0.5746  1.8548
15607TIP3   OH268235   6.558   6.154   4.087 -0.3313  0.5066 -0.1152
15607TIP3    H168236   6.472   6.196   4.090  0.0513  1.5765 -2.2010
15607TIP3    H268237   6.610   6.201   4.152 -1.8134 -1.5631  2.7604
15608TIP3   OH268238   5.060   3.045   1.074 -0.6657 -0.1307  0.2406
15608TIP3    H168239   5.054   2.951   1.095 -0.6677  0.0261  0.9744
15608TIP3    H268240   5.146   3.071   1.106  0.1581 -0.2807 -1.6951
15609TIP3   OH268241   0.305   0.265  13.505 -0.3699 -0.3907  0.0443
15609TIP3    H168242   0.393   0.296  13.481 -1.3198  0.3266 -2.8947
15609TIP3    H268243   0.300   0.281  13.599  2.1314  0.9048  0.0562
15610TIP3   OH268244   4.219   4.478   2.863 -0.2460 -0.0826 -0.0776
15610TIP3    H168245   4.214   4.438   2.776 -0.5564 -2.5414  0.9941
15610TIP3    H268246   4.290   4.432   2.906  0.5028  1.7284  0.7244
15611TIP3   OH268247   0.868   2.271  14.954 -0.3567 -0.2157 -0.0276
15611TIP3    H168248   0.809   2.343  14.930  0.1643 -0.0456 -0.8331
15611TIP3    H268249   0.956   2.308  14.947 -0.1078 -0.7540  0.1706
15612TIP3   OH268250   1.848   4.626   4.556  0.0983 -0.1535 -0.0646
15612TIP3    H168251   1.804   4.543   4.538 -1.0619  0.4950 -0.3360
15612TIP3    H268252   1.893   4.648   4.474 -2.0190  0.9017 -1.0235
15613TIP3   OH268253   0.296   4.682  15.455 -0.5741 -0.2088  0.4006
15613TIP3    H168254   0.328   4.758  15.407  0.9807  0.2014  1.9683
15613TIP3    H268255   0.204   4.674  15.431 -0.5884  1.7542 -0.3151
15614TIP3   OH268256   6.694   0.173   3.452 -0.1083 -0.3607  0.0860
15614TIP3    H168257   6.728   0.158   3.540 -1.4842 -2.7761  0.2824
15614TIP3    H268258   6.753   0.124   3.395 -0.9245 -1.2693  0.0046
15615TIP3   OH268259   4.493   2.984   0.462  0.7234  0.1672  0.1800
15615TIP3    H168260   4.453   2.959   0.379 -0.6505  1.6346  0.3513
15615TIP3    H268261   4.573   3.031   0.438  0.5878  0.1658 -0.2841
15616TIP3   OH268262   2.254   1.192  14.590 -0.5004 -0.7835  0.1676
15616TIP3    H168263   2.192   1.124  14.620  0.4683 -1.7422  0.0539
15616TIP3    H268264   2.205   1.274  14.600 -2.3702 -1.6258 -1.3917
15617TIP3   OH268265   0.992   1.729   3.887  1.0094  0.5394  0.7029
15617TIP3    H168266   1.000   1.659   3.952  2.1048  1.0635  1.1567
15617TIP3    H268267   0.999   1.684   3.803  1.8854  0.1146  0.9875
15618TIP3   OH268268   4.458   4.064   4.142  0.1870  0.0493 -0.4672
15618TIP3    H168269   4.531   4.034   4.195  1.1501 -2.4741 -2.9307
15618TIP3    H268270   4.475   4.157   4.127  2.9337 -0.4493 -0.9272
15619TIP3   OH268271   0.156   5.485  14.028  0.3671  0.6263  0.0995
15619TIP3    H168272   0.207   5.404  14.025 -1.4978 -0.5800 -2.1991
15619TIP3    H268273   0.095   5.471  14.101  0.4776  0.2277  0.1210
15620TIP3   OH268274   0.092   4.756   3.417  0.0963  0.0649 -0.5743
15620TIP3    H168275   0.020   4.740   3.356  0.8178 -1.7848 -0.9881
15620TIP3    H268276   0.086   4.850   3.436 -1.8117  0.1482 -1.3463
15621TIP3   OH268277   4.344   2.432   5.292  0.6577 -0.3951  0.1331
15621TIP3    H168278   4.333   2.357   5.233  1.5528 -0.9837  0.6861
15621TIP3    H268279   4.439   2.441   5.302  0.5306 -0.2328  1.3849
15622TIP3   OH268280   0.368   2.147   2.073 -0.3375 -0.1976 -0.4510
15622TIP3    H168281   0.294   2.117   2.021  0.2989 -1.7379 -0.5026
15622TIP3    H268282   0.434   2.172   2.008 -0.7766  1.1877 -0.4052
15623TIP3   OH268283   4.327   0.534  12.625  0.0173 -0.1898 -0.2855
15623TIP3    H168284   4.341   0.450  12.581 -0.0540 -0.8731  0.9470
15623TIP3    H268285   4.415   0.564  12.647  0.0262 -0.0943 -0.4513
15624TIP3   OH268286   4.153   4.434  10.639 -0.5430 -0.9080 -0.0131
15624TIP3    H168287   4.123   4.524  10.625  0.1922 -0.5950  0.3405
15624TIP3    H268288   4.097   4.400  10.709  0.0797 -0.2436  0.8306
15625TIP3   OH268289   4.115   4.664  15.244 -0.3131  0.4188 -0.4145
15625TIP3    H168290   4.153   4.645  15.158  1.7206 -0.6867  0.6673
15625TIP3    H268291   4.102   4.759  15.244  0.9181  0.6138 -1.4603
15626TIP3   OH268292   4.386   6.189   1.825 -0.4539 -0.3437 -0.2782
15626TIP3    H168293   4.344   6.174   1.909  0.9179 -1.2618  0.2726
15626TIP3    H268294   4.414   6.281   1.828  0.3061 -0.5981  0.6030
15627TIP3   OH268295   0.706   5.625   2.391 -0.6344 -0.0870 -0.0921
15627TIP3    H168296   0.772   5.589   2.332 -1.7221  0.5885 -1.8063
15627TIP3    H268297   0.661   5.549   2.428 -0.1384 -0.5211 -0.3754
15628TIP3   OH268298   2.553   1.205   6.568 -0.0405  0.2675 -0.4676
15628TIP3    H168299   2.595   1.199   6.482 -0.0327  0.1179 -0.4550
15628TIP3    H268300   2.524   1.115   6.587  0.6353  0.1468  0.0249
15629TIP3   OH268301   1.749   6.001   1.255  0.8714  0.0654  0.5659
15629TIP3    H168302   1.730   6.091   1.282 -1.3386 -0.1373 -0.0908
15629TIP3    H268303   1.699   5.947   1.316  1.2758 -0.6638  0.2582
15630TIP3   OH268304   1.018   0.576   3.625  0.0237 -0.8960 -0.0156
15630TIP3    H168305   1.011   0.519   3.702 -1.6872  0.3359  0.8191
15630TIP3    H268306   1.101   0.623   3.636 -1.2546  1.0220  2.4499
15631TIP3   OH268307   4.329   1.760  14.923 -0.5953 -0.0173 -0.1452
15631TIP3    H168308   4.268   1.834  14.922 -1.1403 -0.4609 -0.0716
15631TIP3    H268309   4.372   1.766  15.009 -0.1465  0.6026 -0.4047
15632TIP3   OH268310   5.354   2.390   0.906  0.3465  0.2287  0.3159
15632TIP3    H168311   5.304   2.467   0.934  0.3577  0.3320  0.0554
15632TIP3    H268312   5.308   2.359   0.828  0.9890  0.6458 -0.2479
15633TIP3   OH268313   3.815   1.379   3.116 -0.5490 -0.5227  0.1762
15633TIP3    H168314   3.779   1.291   3.123 -1.2087 -0.2995 -0.2388
15633TIP3    H268315   3.768   1.430   3.182 -0.6826 -0.3285 -0.0636
15634TIP3   OH268316   5.754   3.579   3.455  0.0224 -0.3157 -0.2415
15634TIP3    H168317   5.811   3.593   3.531  0.9308 -1.9733 -0.5719
15634TIP3    H268318   5.770   3.655   3.399  2.5602 -1.0985 -0.6883
15635TIP3   OH268319   0.648   0.368   2.321 -0.4071  0.5239 -0.4236
15635TIP3    H168320   0.726   0.370   2.376 -1.1220  1.5097  0.6125
15635TIP3    H268321   0.677   0.400   2.236  0.4950  0.0069 -0.3245
15636TIP3   OH268322   4.927   4.997   1.813  0.2002  0.2186 -0.0361
15636TIP3    H168323   4.919   5.029   1.723 -0.6571 -2.5906 -1.0680
15636TIP3    H268324   4.836   4.984   1.841  0.4833  0.4351  1.0005
15637TIP3   OH268325   1.387   0.473  16.229  0.0469 -0.5167 -0.4832
15637TIP3    H168326   1.327   0.482  16.154 -2.1188  1.2776  1.3068
15637TIP3    H268327   1.338   0.420  16.292 -0.0323  1.4836  1.2643
15638TIP3   OH268328   6.641   2.505  10.462  0.4064  0.3264 -0.3456
15638TIP3    H168329   6.580   2.483  10.392 -0.5692  0.5551  0.3982
15638TIP3    H268330   6.670   2.420  10.496 -0.0679  0.1983 -0.2411
15639TIP3   OH268331   4.485   3.976  17.045 -0.0797 -0.1986  0.2350
15639TIP3    H168332   4.427   3.930  17.106 -3.1018  0.6772 -1.7147
15639TIP3    H268333   4.544   4.026  17.101 -0.1891 -2.2768  2.3793
15640TIP3   OH268334   6.674   4.060  15.335  0.0033  0.0346  0.1850
15640TIP3    H168335   6.743   3.997  15.314 -0.3054  0.0842 -1.0368
15640TIP3    H268336   6.615   4.013  15.393  0.0754 -0.6229 -0.2653
15641TIP3   OH268337   1.918   3.405   1.485  0.0357 -0.4696  0.3319
15641TIP3    H168338   1.977   3.466   1.530  2.4628 -1.6476 -1.0266
15641TIP3    H268339   1.910   3.332   1.545 -1.6895  0.4797  1.3348
15642TIP3   OH268340   6.509   2.007   1.790 -0.6169 -0.0969  0.4959
15642TIP3    H168341   6.587   2.039   1.745 -0.6305  0.1338  0.6355
15642TIP3    H268342   6.449   2.081   1.790 -0.9156 -0.3374  0.2116
15643TIP3   OH268343   5.645   3.375  10.185  0.1581  0.0469 -0.1921
15643TIP3    H168344   5.688   3.439  10.241  1.1990 -0.2959 -0.5671
15643TIP3    H268345   5.571   3.422  10.147  0.2483  0.6836  0.4085
15644TIP3   OH268346   1.900   2.765   2.322  0.0150 -0.1076  0.1571
15644TIP3    H168347   1.922   2.776   2.415  0.1901  0.3640  0.0601
15644TIP3    H268348   1.881   2.672   2.314 -1.8711  0.1458  1.0701
15645TIP3   OH268349   4.694   4.022   1.025  0.3452  0.0131 -0.0241
15645TIP3    H168350   4.737   4.033   0.940  0.3919 -0.3450 -0.0510
15645TIP3    H268351   4.610   4.066   1.015  0.8299  0.9827  0.1262
15646TIP3   OH268352   1.937   0.929   1.618  0.2811 -0.0367  0.2123
15646TIP3    H168353   1.862   0.901   1.565  0.1185  0.4841  0.1604
15646TIP3    H268354   1.955   0.854   1.675  1.4174 -1.2142 -1.6024
15647TIP3   OH268355   0.207   3.830   0.412  0.3432 -0.2283  0.0993
15647TIP3    H168356   0.179   3.750   0.369  1.0672 -0.7794  0.6410
15647TIP3    H268357   0.265   3.872   0.348 -1.4905  0.8415 -0.9646
15648TIP3   OH268358   2.130   0.781   5.647  0.1400 -0.0495  0.4014
15648TIP3    H168359   2.207   0.758   5.699  1.2351 -0.1237 -1.1535
15648TIP3    H268360   2.056   0.771   5.706  1.1715 -1.6311  1.4856
15649TIP3   OH268361   6.507   0.595   4.391  0.1526  0.0882  0.4117
15649TIP3    H168362   6.598   0.611   4.366  0.3384  2.1188  2.1499
15649TIP3    H268363   6.506   0.600   4.486 -1.4422 -2.0694  0.5945
15650TIP3   OH268364   2.196   3.544   1.072  0.5332 -0.1934  0.4884
15650TIP3    H168365   2.247   3.465   1.089  0.9149  0.1182  0.8002
15650TIP3    H268366   2.121   3.539   1.132  2.0376  1.0636  2.6045
15651TIP3   OH268367   5.295   1.680  16.029 -0.3176 -0.1262  0.1596
15651TIP3    H168368   5.307   1.700  16.122  0.0169 -1.8685  0.5136
15651TIP3    H268369   5.200   1.687  16.016 -0.8148 -3.0650  1.4680
15652TIP3   OH268370   2.834   4.773  16.021  0.1894 -0.4268 -0.0971
15652TIP3    H168371   2.747   4.756  16.059 -0.3699  1.7182 -0.2571
15652TIP3    H268372   2.855   4.693  15.974 -1.0046 -1.5839  1.1996
15653TIP3   OH268373   4.875   2.348  13.893 -0.5160  0.3207 -0.5190
15653TIP3    H168374   4.793   2.360  13.845 -0.7458 -0.7677 -0.4118
15653TIP3    H268375   4.850   2.351  13.985 -0.4383 -0.0602 -0.4864
15654TIP3   OH268376   1.281   3.718   0.697  0.2107  0.9244  0.3858
15654TIP3    H168377   1.342   3.679   0.635  0.6335  1.2977  0.5675
15654TIP3    H268378   1.243   3.792   0.650 -0.7937  0.1632 -0.0571
15655TIP3   OH268379   2.629   0.747   1.696 -0.0852  0.1490 -0.1476
15655TIP3    H168380   2.709   0.736   1.748  0.0709 -0.0507 -0.4332
15655TIP3    H268381   2.601   0.658   1.675 -1.5562  0.0890  1.7302
15656TIP3   OH268382   1.859   4.186   0.017 -0.5352 -0.6328 -0.5120
15656TIP3    H168383   1.793   4.117   0.009 -0.3415 -0.6607 -2.0397
15656TIP3    H268384   1.829   4.254  -0.042  0.7835 -0.6259 -1.1978
15657TIP3   OH268385   3.079   2.598   0.650  0.1404 -1.0858 -0.5221
15657TIP3    H168386   2.990   2.569   0.672  1.0990 -3.6869  0.2264
15657TIP3    H268387   3.113   2.529   0.594  1.1731  0.6920 -2.1997
15658TIP3   OH268388   4.629   0.405  13.958 -0.2692 -0.2884  0.6395
15658TIP3    H168389   4.629   0.315  13.989 -1.1910 -0.6997 -0.4612
15658TIP3    H268390   4.721   0.424  13.938 -0.2150 -1.4524 -0.3522
15659TIP3   OH268391   5.384   2.608   3.941  0.6390 -0.3499  0.9387
15659TIP3    H168392   5.355   2.699   3.953 -0.4938 -0.5332 -0.1921
15659TIP3    H268393   5.479   2.614   3.934  0.6727  0.6211  1.8589
15660TIP3   OH268394   0.033   3.315   0.090 -0.2215 -0.1175  0.3549
15660TIP3    H168395   0.079   3.270   0.018  1.8844 -1.1182  2.1912
15660TIP3    H268396   0.069   3.404   0.089 -2.2324  0.7818 -1.4362
15661TIP3   OH268397   6.292   5.012  13.020  0.2769 -0.1997  0.0175
15661TIP3    H168398   6.381   5.048  13.018 -0.2645  1.3673  1.3278
15661TIP3    H268399   6.247   5.055  12.947 -0.0366  0.9678  0.8553
15662TIP3   OH268400   6.240   6.008   3.417 -0.3912  0.1403  0.4560
15662TIP3    H168401   6.150   6.016   3.387 -0.5210  1.8030  1.1335
15662TIP3    H268402   6.292   6.042   3.344 -0.4950  1.2976  0.8978
15663TIP3   OH268403   5.276   1.253   5.669 -0.2009  0.1531  0.3660
15663TIP3    H168404   5.278   1.162   5.701 -1.7188 -0.3816 -0.9042
15663TIP3    H268405   5.360   1.265   5.624 -0.4045 -1.0087 -0.3785
15664TIP3   OH268406   0.151   1.642   0.884 -0.2028  0.5447 -0.3729
15664TIP3    H168407   0.225   1.617   0.939 -0.0249  1.1014 -0.3544
15664TIP3    H268408   0.133   1.564   0.830  1.1562  0.7844 -1.2233
15665TIP3   OH268409   0.160   2.418   1.677 -0.2612 -0.4725 -0.8251
15665TIP3    H168410   0.181   2.439   1.586  1.2504  1.3576 -0.1143
15665TIP3    H268411   0.123   2.499   1.712 -1.2650 -1.3031  0.0954
15666TIP3   OH268412   5.483   2.048   2.833 -0.3739  0.2311 -0.3848
15666TIP3    H168413   5.519   2.107   2.767 -0.1806  0.6804  0.1196
15666TIP3    H268414   5.551   2.042   2.900 -1.2310  1.1154  0.5935
15667TIP3   OH268415   6.460   4.083  16.690 -0.2285 -0.0836  0.0568
15667TIP3    H168416   6.466   4.003  16.742 -1.3380 -0.9124 -1.0036
15667TIP3    H268417   6.502   4.059  16.607  1.8977  1.3416  0.6442
15668TIP3   OH268418   6.245   6.435  15.415  0.1658  0.0901 -0.3125
15668TIP3    H168419   6.248   6.342  15.436 -0.4962  0.1795  0.2081
15668TIP3    H268420   6.235   6.479  15.500  1.2314  0.6909 -0.4759
15669TIP3   OH268421   5.901   3.660   1.171  0.3043 -0.2428  0.1138
15669TIP3    H168422   5.821   3.640   1.220 -0.8033 -0.7178 -1.7885
15669TIP3    H268423   5.884   3.746   1.132  0.4961 -0.5678 -0.7073
15670TIP3   OH268424   3.863   2.967  16.128 -0.5812 -0.5310 -0.3755
15670TIP3    H168425   3.852   2.881  16.086  0.1395 -0.5717 -0.4986
15670TIP3    H268426   3.827   3.029  16.066 -0.0872 -0.6510 -0.7922
15671TIP3   OH268427   4.461   0.817   2.430 -0.0779  0.3180  0.2729
15671TIP3    H168428   4.530   0.826   2.495  3.1646 -3.7734 -2.0855
15671TIP3    H268429   4.410   0.741   2.460 -0.7991  0.5850 -0.2412
15672TIP3   OH268430   0.940   5.238   0.646  0.5158  0.5730 -0.7171
15672TIP3    H168431   0.923   5.225   0.740  0.0789 -1.0276 -0.9921
15672TIP3    H268432   0.978   5.326   0.641 -2.0424  1.8761  0.6409
15673TIP3   OH268433   2.641   5.167   4.402  0.0951  0.1757  0.0788
15673TIP3    H168434   2.718   5.185   4.349 -0.2986  0.5579 -0.3852
15673TIP3    H268435   2.586   5.246   4.391 -2.2647 -1.6558 -2.9763
15674TIP3   OH268436   2.033   1.473   3.186  0.6580 -0.3397 -1.1825
15674TIP3    H168437   2.057   1.488   3.094  0.1890 -1.0505 -1.4257
15674TIP3    H268438   1.944   1.509   3.193  0.3117 -1.1597 -1.2617
15675TIP3   OH268439   3.622   4.558  16.133 -0.5504 -0.8193 -0.2540
15675TIP3    H168440   3.596   4.588  16.221 -1.0253 -1.5269 -0.1479
15675TIP3    H268441   3.543   4.518  16.098 -0.2817 -0.7797 -0.9089
15676TIP3   OH268442   4.485   3.794   0.245 -0.2420  0.2135 -0.3285
15676TIP3    H168443   4.448   3.881   0.231  0.6664  0.3491 -2.1665
15676TIP3    H268444   4.416   3.733   0.217 -0.7987  0.3179  0.7604
15677TIP3   OH268445   6.113   3.591  12.205  0.2028 -0.0030  0.6116
15677TIP3    H168446   6.036   3.643  12.228 -0.0141 -0.0106 -0.1001
15677TIP3    H268447   6.158   3.642  12.138  0.0423 -0.6803 -0.0239
15678TIP3   OH268448   2.057   5.621  12.807  0.1262  0.0716  0.3057
15678TIP3    H168449   2.104   5.630  12.890  0.7467  2.7344 -0.2320
15678TIP3    H268450   1.974   5.668  12.821 -0.5625 -1.0110 -0.0432
15679TIP3   OH268451   5.946   2.914   5.753  0.1641 -0.0919  0.0644
15679TIP3    H168452   6.038   2.929   5.731  0.2805  0.0919  0.6628
15679TIP3    H268453   5.920   2.839   5.699  0.2564  0.7505 -1.1935
15680TIP3   OH268454   3.413   6.031  13.233  0.5147 -0.3390 -0.3304
15680TIP3    H168455   3.469   5.955  13.213  0.3255 -0.8068  0.8318
15680TIP3    H268456   3.425   6.045  13.326  1.9576  2.2239 -0.8060
15681TIP3   OH268457   4.829   5.910   0.828 -0.0266 -0.0341  0.2242
15681TIP3    H168458   4.847   5.870   0.743 -0.5537 -0.9643  0.5252
15681TIP3    H268459   4.888   5.984   0.833  1.9266 -1.5093  0.1510
15682TIP3   OH268460   4.969   1.345  15.520 -0.3917 -0.1054 -0.3053
15682TIP3    H168461   4.903   1.317  15.457 -1.0901  1.8799 -0.5358
15682TIP3    H268462   5.047   1.365  15.467  0.4014 -2.2381 -0.0560
15683TIP3   OH268463   3.966   4.348   2.659  0.4664 -0.0389 -0.6313
15683TIP3    H168464   4.008   4.434   2.653  1.4483 -0.5572 -1.5513
15683TIP3    H268465   4.038   4.286   2.665 -0.2400 -0.7634  1.0064
15684TIP3   OH268466   5.977   0.567   3.805  0.4572  0.0894 -0.0470
15684TIP3    H168467   5.979   0.498   3.872 -2.1105 -0.6596 -0.6133
15684TIP3    H268468   5.976   0.519   3.722  0.8259  0.8996 -0.5271
15685TIP3   OH268469   2.136   2.839  17.065 -0.0647 -0.5023 -0.4313
15685TIP3    H168470   2.048   2.832  17.029 -0.0801 -2.0041 -0.1664
15685TIP3    H268471   2.182   2.762  17.031  0.2195 -1.4446  1.8711
15686TIP3   OH268472   5.286   4.067   2.865  0.3733 -0.2430 -0.3614
15686TIP3    H168473   5.224   3.996   2.885 -0.3926  0.3079 -0.7015
15686TIP3    H268474   5.372   4.025   2.866  0.1462 -0.7468  1.5555
15687TIP3   OH268475   2.108   2.299  13.765  0.6696 -0.2145 -0.0752
15687TIP3    H168476   2.119   2.248  13.846 -2.2600  1.9844  1.9097
15687TIP3    H268477   2.146   2.384  13.785 -2.0424  1.0968 -0.0431
15688TIP3   OH268478   6.222   1.627   3.403 -0.1944 -0.0616 -0.8153
15688TIP3    H168479   6.280   1.602   3.332 -0.6996 -0.7173 -1.0053
15688TIP3    H268480   6.134   1.606   3.372 -0.5709  1.1811 -0.6432
15689TIP3   OH268481   6.562   6.611   4.461 -0.0535  0.1257  0.5173
15689TIP3    H168482   6.594   6.626   4.372 -1.8302 -0.8093 -0.3420
15689TIP3    H268483   6.614   6.538   4.493 -0.5109 -0.6370 -0.4215
15690TIP3   OH268484   6.606   5.407   5.040 -0.2179 -0.0351  0.4901
15690TIP3    H168485   6.570   5.484   5.085 -0.6385  1.7638 -2.5971
15690TIP3    H268486   6.700   5.424   5.037 -0.1895 -0.1566  0.6696
15691TIP3   OH268487   5.626   3.624   4.117 -0.1512  0.1594 -0.1455
15691TIP3    H168488   5.582   3.696   4.071 -0.0822 -0.5151 -1.2990
15691TIP3    H268489   5.580   3.545   4.088 -0.2692 -0.2807  1.1555
15692TIP3   OH268490   1.183   3.357  16.272 -0.3081  0.2520  0.0744
15692TIP3    H168491   1.261   3.332  16.322 -0.6987  0.2751  0.7029
15692TIP3    H268492   1.110   3.328  16.326 -0.7436  0.8494 -0.1894
15693TIP3   OH268493   4.536   4.968   2.124  0.1698 -0.2796  0.0531
15693TIP3    H168494   4.477   5.035   2.159 -1.3987 -2.1925  1.2590
15693TIP3    H268495   4.615   4.974   2.178  0.5968  1.3912 -0.6871
15694TIP3   OH268496   6.233   2.956   2.222 -0.2829 -0.4275 -0.5296
15694TIP3    H168497   6.221   2.881   2.279 -0.8354 -1.5245 -2.0253
15694TIP3    H268498   6.302   2.929   2.161  1.6189  1.4039  0.6631
15695TIP3   OH268499   5.411   5.480  15.523  0.3696  0.1325  0.1558
15695TIP3    H168500   5.494   5.494  15.570 -0.1656  0.5509  0.9920
15695TIP3    H268501   5.375   5.568  15.512  0.9213  0.1629 -1.9116
15696TIP3   OH268502   0.189   0.193   0.014  0.1027  0.3080  0.0484
15696TIP3    H168503   0.139   0.131  -0.040  0.7846 -1.4017  1.2952
15696TIP3    H268504   0.176   0.277  -0.029 -2.4407 -0.3340 -0.6506
15697TIP3   OH268505   1.694   0.693  14.285  0.2389 -0.3058  0.4870
15697TIP3    H168506   1.619   0.736  14.326 -0.5670 -0.2664 -0.9716
15697TIP3    H268507   1.682   0.600  14.304  1.2735 -0.0955  2.5013
15698TIP3   OH268508   1.709   1.717  16.471 -0.1018  0.0954 -0.0234
15698TIP3    H168509   1.695   1.718  16.566 -0.8877  1.8282 -0.1087
15698TIP3    H268510   1.802   1.736  16.460  0.3562 -1.7452  0.4043
15699TIP3   OH268511   1.074   2.821   2.794  0.5835 -0.0571  0.3334
15699TIP3    H168512   1.117   2.888   2.739 -0.7233  1.4736  1.0995
15699TIP3    H268513   1.014   2.777   2.734  0.0812  0.7472  0.2311
15700TIP3   OH268514   0.589   2.968  16.239  0.6019  0.3510  0.3551
15700TIP3    H168515   0.602   3.002  16.151  1.9633 -0.1423  0.3430
15700TIP3    H268516   0.632   3.031  16.296  1.8881 -0.5703  0.4462
15701TIP3   OH268517   5.995   2.190  10.869  0.2864  0.2318 -0.4350
15701TIP3    H168518   5.958   2.152  10.949  0.3153  0.1868 -0.4434
15701TIP3    H268519   5.946   2.272  10.857  2.0843  1.6235  1.1171
15702TIP3   OH268520   0.639   2.292  14.092  1.1679 -0.0076  0.3341
15702TIP3    H168521   0.693   2.371  14.095  0.1113  0.7179  0.7194
15702TIP3    H268522   0.695   2.224  14.130  2.0291  0.5858  0.1600
15703TIP3   OH268523   5.222   5.969   0.432 -0.4033  0.7349  0.6065
15703TIP3    H168524   5.254   5.881   0.412 -0.4245  0.6486  0.9520
15703TIP3    H268525   5.213   6.011   0.346  1.5112  1.0855  0.5195
15704TIP3   OH268526   0.282   0.063  12.488  0.3547 -0.1163 -0.1830
15704TIP3    H168527   0.222   0.070  12.562  0.1460 -0.8163 -0.2750
15704TIP3    H268528   0.309   0.153  12.470  0.0725  0.1038  0.4662
15705TIP3   OH268529   1.199   5.356   5.789 -0.4851  0.4562  0.0085
15705TIP3    H168530   1.150   5.281   5.824 -0.6716  0.2564 -0.6694
15705TIP3    H268531   1.284   5.319   5.763 -0.7298  0.3898 -0.7164
15706TIP3   OH268532   1.495   2.213  12.453  0.1680 -0.5756 -0.6894
15706TIP3    H168533   1.468   2.128  12.418 -2.0216  0.0963 -0.7703
15706TIP3    H268534   1.452   2.277  12.397  0.9205  0.5841  0.0263
15707TIP3   OH268535   3.048   1.277   1.587  0.3755 -0.4712 -0.1306
15707TIP3    H168536   2.972   1.334   1.593  1.5168  0.9740  1.8409
15707TIP3    H268537   3.016   1.191   1.616 -0.4178  0.2253  1.1157
15708TIP3   OH268538   0.924   1.662   2.122  0.3279  0.0186  0.5618
15708TIP3    H168539   0.996   1.701   2.073  2.4527 -1.0656  2.6025
15708TIP3    H268540   0.950   1.570   2.133 -2.7754 -1.1965 -1.0317
15709TIP3   OH268541   3.866   3.533  14.605  0.1659  0.3947  1.0320
15709TIP3    H168542   3.894   3.495  14.522  0.2773  0.9750  0.7924
15709TIP3    H268543   3.947   3.540  14.656  0.2954  1.1061  0.7407
15710TIP3   OH268544   2.434   1.104   5.887  0.4454 -0.1654  0.5163
15710TIP3    H168545   2.469   1.188   5.916  0.2970 -0.3957  1.3864
15710TIP3    H268546   2.485   1.082   5.810 -0.7904  1.6451 -0.9185
15711TIP3   OH268547   3.416   3.933  17.179 -0.3253  0.0097 -0.0331
15711TIP3    H168548   3.345   3.979  17.224 -1.0128 -0.9276 -0.1295
15711TIP3    H268549   3.443   3.993  17.109 -0.8970  0.4487  0.1139
15712TIP3   OH268550   6.246   5.739   3.513  0.2359  0.2559  0.5918
15712TIP3    H168551   6.154   5.727   3.489 -1.5209  2.9181  4.8530
15712TIP3    H268552   6.263   5.832   3.497  2.1545 -0.1396  0.1192
15713TIP3   OH268553   4.394   6.757  11.310 -0.1361  0.1897 -0.0456
15713TIP3    H168554   4.321   6.709  11.271  1.0759 -1.1351 -0.7734
15713TIP3    H268555   4.473   6.712  11.278  1.0111  1.5129  0.7785
15714TIP3   OH268556   5.545   2.185  12.503  0.8641  0.2209 -0.7554
15714TIP3    H168557   5.484   2.144  12.442  1.7236 -3.2164  0.5097
15714TIP3    H268558   5.630   2.178  12.461  1.3137 -1.2648  0.3297
15715TIP3   OH268559   5.869   1.615  14.217  0.0713  0.3604  0.9178
15715TIP3    H168560   5.846   1.550  14.151  1.4625 -0.0936  0.8675
15715TIP3    H268561   5.836   1.578  14.299 -0.6586  0.4057  0.6565
15716TIP3   OH268562   6.311   3.551  16.207 -0.0028 -0.0627  0.2902
15716TIP3    H168563   6.371   3.491  16.251  0.9714  0.3667 -0.4174
15716TIP3    H268564   6.238   3.561  16.268 -0.1639 -1.8957  0.4444
15717TIP3   OH268565   0.584   2.389  12.726  0.4400 -0.4147 -0.0315
15717TIP3    H168566   0.492   2.401  12.705  0.2047  1.7546  1.9387
15717TIP3    H268567   0.629   2.459  12.677  0.3787  1.7933  2.8421
15718TIP3   OH268568   3.518   0.057   5.236 -0.2009 -0.0932 -0.3130
15718TIP3    H168569   3.443   0.063   5.297  0.4610 -1.1409  0.6490
15718TIP3    H268570   3.527   0.145   5.201 -1.9490  0.0405 -0.5187
15719TIP3   OH268571   1.964   5.315   0.433  0.1095 -0.1994  0.4663
15719TIP3    H168572   1.994   5.337   0.345  0.2873 -0.8181  0.3643
15719TIP3    H268573   2.005   5.230   0.452 -0.5779 -0.4650  0.8174
15720TIP3   OH268574   0.209   0.175  11.417  0.1354  0.5100 -0.3627
15720TIP3    H168575   0.202   0.251  11.475 -1.1035 -0.2008  0.4607
15720TIP3    H268576   0.218   0.213  11.330 -0.3980  1.6038  0.0292
15721TIP3   OH268577   4.237   3.565  17.217 -0.6991 -0.3966 -0.0289
15721TIP3    H168578   4.190   3.486  17.189  0.5559 -0.8169 -1.0840
15721TIP3    H268579   4.173   3.615  17.267 -2.3232 -0.8467 -1.5644
15722TIP3   OH268580   1.054   5.040  17.106  0.0707  0.4028 -0.3927
15722TIP3    H168581   1.102   5.020  17.186 -1.3539 -1.9879 -0.0212
15722TIP3    H268582   1.010   5.123  17.124  1.3699  0.9331  0.4907
15723TIP3   OH268583   2.519   1.281   0.756 -0.1931 -0.2621 -0.6395
15723TIP3    H168584   2.463   1.208   0.782 -0.0436 -0.2813 -0.3720
15723TIP3    H268585   2.484   1.357   0.802  1.2538 -0.6401  1.2334
15724TIP3   OH268586   4.266   1.890  16.654  0.1900 -0.2531  0.4086
15724TIP3    H168587   4.306   1.803  16.663 -0.2632 -0.2898  2.9775
15724TIP3    H268588   4.219   1.887  16.571  0.3516 -2.3959  0.3347
15725TIP3   OH268589   0.323   2.797   2.663  0.3694  0.0117  0.3529
15725TIP3    H168590   0.258   2.778   2.730  0.7487 -1.4041  0.3450
15725TIP3    H268591   0.371   2.715   2.651  1.2549  0.6355 -0.6255
15726TIP3   OH268592   5.768   4.861   0.875 -0.5396  0.1086  0.2267
15726TIP3    H168593   5.744   4.932   0.933  1.1281  1.4765 -0.6527
15726TIP3    H268594   5.844   4.819   0.917  0.7085  1.1397 -0.9073
15727TIP3   OH268595   6.123   6.117   5.076 -0.3986  0.1649  0.4000
15727TIP3    H168596   6.037   6.135   5.113 -0.5186  1.1730 -0.3288
15727TIP3    H268597   6.128   6.172   4.998  0.6372 -0.3962  0.0452
15728TIP3   OH268598   4.834   1.263  13.194  0.4738 -0.0449  0.8233
15728TIP3    H168599   4.828   1.233  13.285  1.1505 -0.1330  0.8451
15728TIP3    H268600   4.926   1.252  13.172  0.0543 -1.4050 -0.3582
15729TIP3   OH268601   1.666   4.439  14.786  0.1617 -0.4948  0.1233
15729TIP3    H168602   1.590   4.469  14.836  1.6416  1.8184  1.1283
15729TIP3    H268603   1.659   4.484  14.702  0.9200  0.5337  0.5949
15730TIP3   OH268604   6.430   2.870   6.473  0.0311 -0.8098  0.1004
15730TIP3    H168605   6.510   2.863   6.526  0.4501 -0.3499 -0.4674
15730TIP3    H268606   6.359   2.848   6.534  0.5516 -0.7685  0.7288
15731TIP3   OH268607   1.726   5.584  13.223  0.0529 -0.0691  0.5110
15731TIP3    H168608   1.682   5.669  13.219 -0.1061 -0.1722  0.0052
15731TIP3    H268609   1.813   5.604  13.259  0.8897  0.6786 -1.7212
15732TIP3   OH268610   4.556   4.205  16.267 -0.1319 -0.5633 -0.4155
15732TIP3    H168611   4.541   4.299  16.279  0.0824 -0.5059 -0.5907
15732TIP3    H268612   4.474   4.164  16.295  0.0600 -0.3825  0.4243
15733TIP3   OH268613   4.307   4.710  12.589  1.1509 -0.1611 -0.2765
15733TIP3    H168614   4.231   4.696  12.646  0.8863  0.7981 -0.3717
15733TIP3    H268615   4.270   4.712  12.501  1.2595  0.4224 -0.3147
15734TIP3   OH268616   4.649   4.406   1.447 -0.1737 -0.3347 -0.0758
15734TIP3    H168617   4.616   4.324   1.410 -0.0830 -0.3018 -0.2312
15734TIP3    H268618   4.642   4.394   1.541 -2.1817  0.3071 -0.0993
15735TIP3   OH268619   2.289   0.865   5.950  0.0388  0.5684 -0.1775
15735TIP3    H168620   2.315   0.944   5.903  1.8863  0.6489  0.8895
15735TIP3    H268621   2.262   0.896   6.036 -1.2055  0.2029 -0.4052
15736TIP3   OH268622   0.671   3.962  12.789 -0.4347 -0.2135  0.2220
15736TIP3    H168623   0.762   3.957  12.763  0.7465 -1.6629  3.9674
15736TIP3    H268624   0.647   4.054  12.777  1.3060  0.0791 -1.3304
15737TIP3   OH268625   4.289   6.603   1.702 -0.2986  0.2191 -0.0230
15737TIP3    H168626   4.367   6.656   1.720 -1.3559  2.6117 -1.8553
15737TIP3    H268627   4.275   6.613   1.608 -2.6452 -0.3587  0.2161
15738TIP3   OH268628   5.896   4.453  13.194  0.3242 -0.2731 -0.3258
15738TIP3    H168629   5.944   4.508  13.132  1.5499 -1.8258 -0.8348
15738TIP3    H268630   5.804   4.468  13.173  0.6171  1.4582 -0.5083
15739TIP3   OH268631   1.942   5.473  12.278 -0.1370 -0.0854  0.3389
15739TIP3    H168632   1.910   5.505  12.362  0.8457  1.2033  0.2558
15739TIP3    H268633   1.863   5.463  12.225 -0.6128  1.0945  0.7720
15740TIP3   OH268634   1.525   2.074  16.244 -0.1532  0.6503  0.1307
15740TIP3    H168635   1.577   2.136  16.295  1.2547 -1.8221  1.8826
15740TIP3    H268636   1.439   2.074  16.287  0.3030  0.3030  1.0644
15741TIP3   OH268637   4.134   0.543   3.660 -0.0542 -0.0248 -0.2104
15741TIP3    H168638   4.160   0.612   3.599  0.4284 -0.2881 -0.3000
15741TIP3    H268639   4.043   0.524   3.636 -0.6066  1.3937  0.5732
15742TIP3   OH268640   6.679   0.671   3.556  0.4480 -0.5535  0.1411
15742TIP3    H168641   6.773   0.658   3.544  0.9367  0.0937  2.7247
15742TIP3    H268642   6.649   0.592   3.601  0.0083 -0.2171  0.4479
15743TIP3   OH268643   6.747   1.304  13.988  0.7918  0.3319  0.4693
15743TIP3    H168644   6.799   1.363  13.933  2.2229 -0.8332  0.4912
15743TIP3    H268645   6.704   1.361  14.051  3.1637  1.2907  1.3288
15744TIP3   OH268646   2.241   5.163  13.214  0.0377  0.2932 -0.0319
15744TIP3    H168647   2.243   5.076  13.254  2.9149 -0.3087 -1.2264
15744TIP3    H268648   2.332   5.179  13.187 -0.8188  2.7597 -1.8241
15745TIP3   OH268649   1.670   0.647  13.687 -0.2565  0.0481 -0.0313
15745TIP3    H168650   1.680   0.665  13.593 -2.9192  1.0077 -0.2461
15745TIP3    H268651   1.590   0.594  13.692  1.3674 -2.4553  1.5536
15746TIP3   OH268652   0.407   3.316   0.734  0.6886 -0.5125  0.1561
15746TIP3    H168653   0.315   3.340   0.746  1.1765  0.3597  2.5826
15746TIP3    H268654   0.426   3.340   0.643 -1.4933 -0.8555 -0.4508
15747TIP3   OH268655   3.678   3.010  11.086  0.0072 -0.2896 -0.2071
15747TIP3    H168656   3.719   2.955  11.018 -0.3440 -0.1406 -0.5432
15747TIP3    H268657   3.608   3.056  11.040 -1.3091 -1.4242  0.6171
15748TIP3   OH268658   0.962   3.704   2.903  0.0043 -0.0624 -0.4142
15748TIP3    H168659   0.927   3.793   2.896 -1.3635 -0.6433 -1.2220
15748TIP3    H268660   0.988   3.681   2.814 -0.3787 -0.7674 -0.3491
15749TIP3   OH268661   2.122   1.355   4.605 -0.2738  0.6088  0.2229
15749TIP3    H168662   2.046   1.397   4.645 -0.7821  0.2043 -0.3220
15749TIP3    H268663   2.190   1.423   4.607 -1.5600  2.0859 -2.1991
15750TIP3   OH268664   5.958   0.484  14.837 -0.1079 -0.0152 -0.4720
15750TIP3    H168665   5.907   0.503  14.758  1.4359 -0.5382 -1.6401
15750TIP3    H268666   6.042   0.452  14.805  0.4328 -0.6281  1.3991
15751TIP3   OH268667   0.736   4.001   1.290 -0.3334 -0.4802 -0.5737
15751TIP3    H168668   0.826   4.032   1.282  0.2748 -1.7314  0.7795
15751TIP3    H268669   0.684   4.081   1.302  0.4737  0.3064 -2.0571
15752TIP3   OH268670   3.810   4.297   1.243  0.1073 -0.1845  0.0644
15752TIP3    H168671   3.831   4.203   1.242  1.9717  0.2062  0.0366
15752TIP3    H268672   3.827   4.324   1.333  1.1801  0.4395 -0.3044
15753TIP3   OH268673   4.520   3.471   2.386 -0.5544  0.7776 -0.1204
15753TIP3    H168674   4.598   3.464   2.330 -1.4875  0.1740 -1.4058
15753TIP3    H268675   4.454   3.511   2.329 -0.9813  1.9761  1.1782
15754TIP3   OH268676   0.062   1.013   0.324  0.1268  0.1479 -0.7973
15754TIP3    H168677   0.005   0.936   0.325  0.7830 -0.3751 -1.7051
15754TIP3    H268678   0.033   1.063   0.248 -0.0786  0.6337 -0.4035
15755TIP3   OH268679   5.568   4.455   5.880  0.2873 -0.1729  0.4090
15755TIP3    H168680   5.630   4.525   5.861  0.0091  0.1641  0.7079
15755TIP3    H268681   5.504   4.459   5.809 -1.6057  2.0687  2.0738
15756TIP3   OH268682   0.812   0.298  16.694 -0.3213  0.1685 -0.0795
15756TIP3    H168683   0.727   0.258  16.715 -1.0565  0.6710 -1.8614
15756TIP3    H268684   0.829   0.358  16.766 -1.3881 -0.0885  0.4125
15757TIP3   OH268685   6.698   6.764  14.756  0.1704 -0.1569  0.1936
15757TIP3    H168686   6.774   6.810  14.794 -1.0930  0.4181  2.1930
15757TIP3    H268687   6.624   6.820  14.778 -1.0519 -1.6091 -0.1199
15758TIP3   OH268688   2.371   1.063  12.589  0.2010  0.2248  0.0691
15758TIP3    H168689   2.330   1.069  12.676  0.2116 -0.9182  0.1605
15758TIP3    H268690   2.354   1.149  12.550 -0.0762  0.6531  1.0754
15759TIP3   OH268691   3.743   4.584  15.438 -0.2241 -0.0720 -0.5916
15759TIP3    H168692   3.803   4.644  15.394  1.0475 -0.7253  0.2199
15759TIP3    H268693   3.767   4.588  15.530  0.1078 -2.0403 -0.5478
15760TIP3   OH268694   3.915   5.766  14.738 -0.2686 -0.1400 -0.0676
15760TIP3    H168695   3.908   5.672  14.720 -3.7494  0.1012 -0.8250
15760TIP3    H268696   3.948   5.772  14.828 -0.7929 -2.1200  0.2957
15761TIP3   OH268697   0.170   0.096  14.837  0.5071 -0.1719  0.0708
15761TIP3    H168698   0.174   0.155  14.913 -1.2920 -0.5197  0.4691
15761TIP3    H268699   0.221   0.141  14.770 -0.1133  1.4492  0.6307
15762TIP3   OH268700   0.378   4.917   5.069 -0.3394  0.1287 -0.3332
15762TIP3    H168701   0.364   5.012   5.072 -1.2899  0.0136 -0.6922
15762TIP3    H268702   0.319   4.887   5.000  1.4638 -0.4821 -1.6807
15763TIP3   OH268703   1.822   0.617   2.047  0.0505 -0.0349  0.2573
15763TIP3    H168704   1.883   0.563   2.098 -0.9575  0.1278  1.7229
15763TIP3    H268705   1.845   0.707   2.070 -0.0855  0.0552  0.0381
15764TIP3   OH268706   2.843   2.313  12.999  0.1473 -0.1454 -0.5070
15764TIP3    H168707   2.848   2.219  12.982 -0.9652 -0.1045 -1.1418
15764TIP3    H268708   2.841   2.320  13.095  0.1580 -0.7643 -0.4595
15765TIP3   OH268709   5.156   1.090   0.512  0.5891 -0.1856 -0.1141
15765TIP3    H168710   5.215   1.094   0.588  0.8838  0.5506 -0.3701
15765TIP3    H268711   5.136   1.182   0.494  0.6305 -0.3517 -1.0162
15766TIP3   OH268712   1.019   2.389  11.149 -0.3445  0.0658 -0.3798
15766TIP3    H168713   1.047   2.308  11.191  1.1223 -0.6985 -2.6715
15766TIP3    H268714   0.931   2.371  11.116 -1.3006  0.5059  1.7191
15767TIP3   OH268715   2.613   1.109  11.835 -0.7229  0.0414  0.0117
15767TIP3    H168716   2.676   1.110  11.763 -0.3277 -0.5375  0.3325
15767TIP3    H268717   2.553   1.037  11.814  0.2052 -1.0376  0.9080
15768TIP3   OH268718   6.145   1.310  12.792  0.4427 -0.0807  0.2814
15768TIP3    H168719   6.223   1.301  12.737  0.5814 -0.3928  0.5257
15768TIP3    H268720   6.099   1.386  12.756  1.6480  1.1068  1.0876
15769TIP3   OH268721   0.218   3.835   5.003 -0.0431  0.7669  0.5204
15769TIP3    H168722   0.292   3.804   4.950  1.4620  1.0444  2.3342
15769TIP3    H268723   0.213   3.928   4.983 -1.0940  0.4346 -0.9231
15770TIP3   OH268724   3.319   3.790  13.351  0.4429 -0.0120  0.4458
15770TIP3    H168725   3.349   3.876  13.381  1.7089 -0.6453  1.0864
15770TIP3    H268726   3.352   3.729  13.417  1.1053 -1.1760 -0.9059
15771TIP3   OH268727   0.296   4.529  12.582 -0.2743  0.1393 -0.0929
15771TIP3    H168728   0.257   4.450  12.620 -0.7391  0.7031  0.6357
15771TIP3    H268729   0.326   4.579  12.659 -0.1178  0.7413 -0.5430
15772TIP3   OH268730   4.703   3.706   2.795 -0.4321 -0.0403 -0.2165
15772TIP3    H168731   4.655   3.752   2.725 -1.4081  0.7546  0.9155
15772TIP3    H268732   4.741   3.777   2.847 -0.0311 -0.6031  0.2576
15773TIP3   OH268733   1.604   5.976   5.025 -0.4698 -0.4570  0.4031
15773TIP3    H168734   1.630   5.989   5.116  2.7241  1.9995 -0.6537
15773TIP3    H268735   1.680   5.935   4.984 -0.6544  1.1443 -1.6932
15774TIP3   OH268736   3.535   6.156   6.372  0.3295  0.2619  0.4814
15774TIP3    H168737   3.574   6.164   6.285 -1.0331 -1.0099 -0.3127
15774TIP3    H268738   3.605   6.177   6.433  1.6306  0.1098 -0.9119
15775TIP3   OH268739   4.111   1.032  15.255  0.1490 -0.1420  0.3147
15775TIP3    H168740   4.095   1.083  15.175  1.4040 -0.6979 -0.3209
15775TIP3    H268741   4.028   1.035  15.302 -1.0245 -0.8131 -1.5832
15776TIP3   OH268742   3.207   1.110  13.250  0.3566  0.3074  0.4261
15776TIP3    H168743   3.116   1.136  13.235  0.8279  2.2020  0.5668
15776TIP3    H268744   3.254   1.145  13.174  0.9101 -1.1654  0.0520
15777TIP3   OH268745   5.390   0.881   3.183 -0.7626 -0.0090 -0.7854
15777TIP3    H168746   5.452   0.892   3.111  0.1864 -0.6718 -0.0999
15777TIP3    H268747   5.442   0.896   3.262 -1.6053 -0.0339 -0.2099
15778TIP3   OH268748   2.234   6.715  16.023  0.6625 -0.2016  0.1962
15778TIP3    H168749   2.145   6.680  16.014 -0.4945  2.8885 -2.1094
15778TIP3    H268750   2.290   6.640  16.005 -1.5033 -1.7829 -0.5109
15779TIP3   OH268751   4.876   4.728  13.026 -0.5645  0.4641 -0.2392
15779TIP3    H168752   4.852   4.655  12.969 -0.2630  0.0198  0.1963
15779TIP3    H268753   4.945   4.694  13.083  0.0632  1.2950 -0.4824
15780TIP3   OH268754   6.313   3.363  11.955 -0.3070 -0.5125  0.0865
15780TIP3    H168755   6.249   3.298  11.984  1.5591 -2.3739  0.2546
15780TIP3    H268756   6.334   3.411  12.035 -2.8693  1.5390 -0.3175
15781TIP3   OH268757   2.773   1.061   3.866  0.6466 -0.3161 -0.1723
15781TIP3    H168758   2.809   1.110   3.792 -0.1122 -0.9497 -0.9913
15781TIP3    H268759   2.820   1.095   3.942 -0.3797  2.2479 -0.5788
15782TIP3   OH268760   4.464   3.176  12.420 -0.4579  0.0353 -0.9833
15782TIP3    H168761   4.558   3.160  12.426  0.1406  2.5702 -2.0424
15782TIP3    H268762   4.442   3.157  12.329 -0.7689  0.3109 -0.9711
15783TIP3   OH268763   1.304   6.742  13.963 -0.1078 -0.4630 -0.1882
15783TIP3    H168764   1.266   6.739  13.876 -1.0081 -0.7315  0.2061
15783TIP3    H268765   1.241   6.696  14.019  0.1864  0.1833  0.6985
15784TIP3   OH268766   2.356   5.361   5.356  0.1255 -0.0509 -0.2056
15784TIP3    H168767   2.333   5.271   5.333  1.2821 -0.2183 -0.7743
15784TIP3    H268768   2.441   5.375   5.315  0.4482  0.9573  0.7683
15785TIP3   OH268769   2.109   1.777   1.874  0.0491  0.2665  0.2055
15785TIP3    H168770   2.110   1.798   1.780  0.1367  0.0478  0.1565
15785TIP3    H268771   2.078   1.857   1.916 -3.4761 -0.6559 -0.2878
15786TIP3   OH268772   0.705   4.559   0.091 -0.2359 -0.6276  0.1031
15786TIP3    H168773   0.721   4.647   0.125 -0.3952 -0.9127  0.9271
15786TIP3    H268774   0.748   4.500   0.154 -2.4431 -1.2951  1.0697
15787TIP3   OH268775   2.801   0.423  16.073 -0.5716  0.2975  0.3361
15787TIP3    H168776   2.800   0.517  16.057 -0.9682  0.2062 -0.1663
15787TIP3    H268777   2.883   0.393  16.033  0.3224  0.6438  1.7942
15788TIP3   OH268778   0.146   1.793  15.873 -0.7947 -0.5609  0.0650
15788TIP3    H168779   0.203   1.717  15.890  0.2207  0.7030  2.9490
15788TIP3    H268780   0.071   1.780  15.931 -1.4067 -0.1347 -0.6191
15789TIP3   OH268781   4.795   1.924   1.990  0.3743  0.0993 -0.1507
15789TIP3    H168782   4.886   1.903   2.008  0.0563 -1.1385  0.0940
15789TIP3    H268783   4.769   1.864   1.921 -0.3879  0.1009  0.1239
15790TIP3   OH268784   3.791   4.652   4.977 -0.0817  0.7757 -0.1369
15790TIP3    H168785   3.729   4.683   4.911  0.2564 -1.6596 -1.7432
15790TIP3    H268786   3.867   4.708   4.968 -0.1332  0.6261 -1.6850
15791TIP3   OH268787   6.344   1.680  12.142  0.4482 -0.5382 -0.4459
15791TIP3    H168788   6.330   1.597  12.096  1.2645 -1.5516  1.0485
15791TIP3    H268789   6.428   1.669  12.187  0.9044  1.3744 -0.7436
15792TIP3   OH268790   1.493   1.026  15.709  0.1643 -0.0128 -0.0269
15792TIP3    H168791   1.437   1.091  15.751 -0.7481 -0.1540 -0.9709
15792TIP3    H268792   1.465   0.942  15.746 -0.4894 -0.1154 -0.7310
15793TIP3   OH268793   0.819   1.990  14.568  0.0621 -0.1898  0.1125
15793TIP3    H168794   0.864   1.913  14.603  1.9731  0.2228 -1.2732
15793TIP3    H268795   0.778   1.960  14.488 -0.2355 -0.0381  0.2061
15794TIP3   OH268796   3.237   6.152   2.960 -0.6582  0.5757 -0.0190
15794TIP3    H168797   3.276   6.110   2.883  0.0996  0.7325  0.2707
15794TIP3    H268798   3.312   6.174   3.015 -1.1545  1.0239  0.4802
15795TIP3   OH268799   1.770   1.727  12.414  0.0164 -0.2313 -0.1580
15795TIP3    H168800   1.767   1.667  12.339 -0.5644 -0.4531  0.0329
15795TIP3    H268801   1.765   1.814  12.376 -1.4359 -0.3692 -0.3320
15796TIP3   OH268802   1.395   4.685   3.156  0.6576  0.1824  0.0747
15796TIP3    H168803   1.410   4.758   3.217  1.5192  1.1891 -1.2722
15796TIP3    H268804   1.333   4.628   3.202  0.2817  1.5376  1.3562
15797TIP3   OH268805   3.809   0.846  16.155 -0.6241 -0.0619  0.2442
15797TIP3    H168806   3.900   0.875  16.153 -0.4208 -0.7138 -1.4252
15797TIP3    H268807   3.814   0.751  16.138 -1.6278 -0.0218 -0.3103
15798TIP3   OH268808   3.630   3.314   2.354  0.6040 -0.3407  0.1282
15798TIP3    H168809   3.594   3.389   2.400 -1.5938 -2.6868  2.5960
15798TIP3    H268810   3.590   3.317   2.267 -0.6269  0.5637  0.7010
15799TIP3   OH268811   0.445   6.253  16.243  0.0825  0.1159  0.1217
15799TIP3    H168812   0.360   6.296  16.256  0.1050  0.1035  0.3077
15799TIP3    H268813   0.496   6.315  16.191 -1.0996 -1.1193 -2.7654
15800TIP3   OH268814   1.558   4.836  12.138  0.2951 -0.2978  0.0990
15800TIP3    H168815   1.463   4.843  12.136  0.3330  0.2499 -2.3990
15800TIP3    H268816   1.586   4.907  12.196 -0.7954 -0.7117  1.1789
15801TIP3   OH268817   3.836   1.503  12.020  0.4063  0.5404  0.0202
15801TIP3    H168818   3.760   1.473  12.070  0.8726 -0.5313  0.1047
15801TIP3    H268819   3.835   1.450  11.940  3.0311 -2.1096  1.5703
15802TIP3   OH268820   6.422   1.779   2.484  0.7825 -0.0593 -0.4601
15802TIP3    H168821   6.391   1.722   2.555  0.3308  0.0999 -0.5269
15802TIP3    H268822   6.353   1.775   2.418 -0.6273  2.7005  0.6731
15803TIP3   OH268823   6.552   4.192  12.640  0.6068 -0.7469  0.2708
15803TIP3    H168824   6.506   4.208  12.557  0.4187 -0.8647  0.3544
15803TIP3    H268825   6.552   4.097  12.650  1.5608 -0.8030 -0.1263
15804TIP3   OH268826   1.393   6.445   0.148  0.5560  0.3172 -0.0500
15804TIP3    H168827   1.450   6.431   0.224  0.2048  0.2724  0.2077
15804TIP3    H268828   1.330   6.511   0.178  0.7343  0.6823 -0.4728
15805TIP3   OH268829   6.451   0.343   2.352  0.6844  0.0325 -0.2378
15805TIP3    H168830   6.479   0.367   2.440  1.0444 -0.5159 -0.1922
15805TIP3    H268831   6.531   0.345   2.300  0.2791  1.5718 -0.8565
15806TIP3   OH268832   5.123   2.189  14.086  0.4193  0.4356  0.1050
15806TIP3    H168833   5.176   2.226  14.156  0.9985  0.5091 -0.3631
15806TIP3    H268834   5.032   2.205  14.113  0.6448  2.2882 -0.1457
15807TIP3   OH268835   5.676   5.727  14.108 -0.1710 -0.7087 -0.1249
15807TIP3    H168836   5.640   5.814  14.093  0.5204 -0.2989  0.5721
15807TIP3    H268837   5.599   5.674  14.131 -0.4474 -0.0034  0.6370
15808TIP3   OH268838   2.590   4.710  12.405  0.5065 -0.2551 -0.7350
15808TIP3    H168839   2.534   4.759  12.344  0.5750  0.1506 -0.4667
15808TIP3    H268840   2.528   4.671  12.467  0.5244  0.2698 -0.3822
15809TIP3   OH268841   3.045   3.106   5.548 -0.0691  0.0671  0.2851
15809TIP3    H168842   3.134   3.139   5.533  0.7626 -2.3926 -0.7772
15809TIP3    H268843   2.991   3.152   5.484  0.5660  1.0741  0.4626
15810TIP3   OH268844   5.920   0.813   5.118  0.2075  0.6092 -0.2456
15810TIP3    H168845   5.837   0.776   5.148  0.5880  0.2905  0.4401
15810TIP3    H268846   5.915   0.809   5.022 -0.5908  0.6557 -0.2100
15811TIP3   OH268847   0.611   1.728   4.060 -0.4134 -0.6426  0.1691
15811TIP3    H168848   0.551   1.654   4.049 -0.3856 -0.9207  1.6194
15811TIP3    H268849   0.612   1.744   4.154  1.1810 -0.1376  0.0974
15812TIP3   OH268850   3.735   2.491   4.343 -0.1393 -0.0806  0.3002
15812TIP3    H168851   3.709   2.504   4.434 -2.2624  2.4327 -0.5334
15812TIP3    H268852   3.775   2.574   4.318  0.2290 -0.6659 -1.1444
15813TIP3   OH268853   6.418   4.376  11.894  0.1585  0.6900  0.2865
15813TIP3    H168854   6.410   4.322  11.973 -2.5724  1.7050  0.8223
15813TIP3    H268855   6.407   4.465  11.925  0.9221  1.2768 -1.0422
15814TIP3   OH268856   1.912   1.182  14.272  0.5006 -0.2606  0.3890
15814TIP3    H168857   1.856   1.105  14.274 -1.5166  1.0415  3.8235
15814TIP3    H268858   1.859   1.249  14.227  1.6897 -0.4199 -1.3579
15815TIP3   OH268859   6.646   2.560  13.570  0.8791  0.6833  0.4316
15815TIP3    H168860   6.609   2.503  13.502  0.4660  0.1739  1.0754
15815TIP3    H268861   6.604   2.645  13.554  1.0696  0.6727 -0.1761
15816TIP3   OH268862   6.480   1.307   4.027 -0.1493  0.3374 -0.3052
15816TIP3    H168863   6.483   1.368   4.101  2.3965  0.5127 -0.4699
15816TIP3    H268864   6.400   1.255   4.042  0.4027  0.1567  2.7174
15817TIP3   OH268865   1.837   1.225   3.038 -0.3056  0.1237 -0.2211
15817TIP3    H168866   1.873   1.306   3.002 -0.7307  0.7824  0.7972
15817TIP3    H268867   1.913   1.167   3.049  0.2643  1.0124  0.6669
15818TIP3   OH268868   1.384   4.526  13.970 -0.0144 -0.4623  0.3705
15818TIP3    H168869   1.391   4.442  14.015  0.1557  0.5153  2.3014
15818TIP3    H268870   1.470   4.567  13.984  0.2414 -0.3397 -1.3807
15819TIP3   OH268871   3.783   3.204  13.280 -0.2116  0.5962 -0.5307
15819TIP3    H168872   3.832   3.123  13.298 -0.6223  0.9122  2.5989
15819TIP3    H268873   3.851   3.267  13.254  0.5674  0.0684  0.1552
15820TIP3   OH268874   5.103   4.005  15.778  0.0894  0.3211  0.3790
15820TIP3    H168875   5.048   3.972  15.707 -0.3233  0.8079  0.4729
15820TIP3    H268876   5.098   3.937  15.845  0.3370 -0.0567  0.0191
15821TIP3   OH268877   0.497   3.871  13.790  0.5651 -0.3022 -0.0885
15821TIP3    H168878   0.555   3.945  13.772 -1.6614  1.4660 -0.4470
15821TIP3    H268879   0.471   3.883  13.881 -0.8575  0.2145 -0.5255
15822TIP3   OH268880   2.943   4.729   6.627 -0.2126  0.4757 -0.0189
15822TIP3    H168881   2.855   4.736   6.664  0.1779  1.0518  0.8330
15822TIP3    H268882   2.975   4.819   6.624  0.3567  0.2649 -0.3099
15823TIP3   OH268883   5.447   1.796   0.863  0.3256 -0.1504 -0.0998
15823TIP3    H168884   5.404   1.775   0.781  1.4967  0.5428 -0.9145
15823TIP3    H268885   5.411   1.880   0.889 -2.5171 -1.7990  1.8853
15824TIP3   OH268886   3.932   0.325  13.734  0.7719 -0.1681  0.0390
15824TIP3    H168887   3.978   0.311  13.816  1.7769  2.1731 -0.0638
15824TIP3    H268888   3.995   0.299  13.666  0.2474 -1.2979 -0.0346
15825TIP3   OH268889   2.655   3.714   3.099  0.3097 -0.1613 -0.1800
15825TIP3    H168890   2.723   3.656   3.066  0.6961 -0.3063  0.8608
15825TIP3    H268891   2.694   3.802   3.094 -0.9050  0.3721 -3.5227
15826TIP3   OH268892   3.773   5.053  11.654 -0.0656 -0.4562  0.0103
15826TIP3    H168893   3.704   4.997  11.620  0.3414 -1.2677  0.4898
15826TIP3    H268894   3.728   5.115  11.711 -0.3492 -1.3072  0.7231
15827TIP3   OH268895   0.157   2.693   1.778 -0.0270  0.4278  0.2843
15827TIP3    H168896   0.235   2.722   1.825 -0.5784  2.4540  0.0126
15827TIP3    H268897   0.089   2.754   1.804 -1.5287 -1.1888  0.3646
15828TIP3   OH268898   6.559   3.120   2.350  0.4919 -0.5073 -0.6518
15828TIP3    H168899   6.629   3.132   2.415 -0.8887 -0.0012  0.8160
15828TIP3    H268900   6.529   3.030   2.364 -0.2781 -0.1674 -0.0880
15829TIP3   OH268901   0.829   1.292  12.061 -0.3983 -0.0956 -0.0586
15829TIP3    H168902   0.761   1.356  12.040  0.0818  0.0959 -1.0944
15829TIP3    H268903   0.782   1.220  12.102 -1.0632  0.5378  0.3196
15830TIP3   OH268904   3.753   2.324   4.896 -0.0125 -0.3260 -0.1213
15830TIP3    H168905   3.699   2.403   4.905  0.2605 -0.0798 -0.5555
15830TIP3    H268906   3.827   2.339   4.955 -1.9518 -2.0780  2.9789
15831TIP3   OH268907   3.081   1.410  17.082  0.1558 -0.4975 -0.1599
15831TIP3    H168908   3.106   1.477  17.146 -1.4544 -0.4596  0.4844
15831TIP3    H268909   3.113   1.328  17.119 -1.1074 -0.5306  0.9565
15832TIP3   OH268910   5.005   0.132  17.016 -0.0594 -0.0617  0.0529
15832TIP3    H168911   4.926   0.107  17.065  1.0914 -1.8353  1.1094
15832TIP3    H268912   5.078   0.103  17.071  1.3319 -0.3072 -1.8177
15833TIP3   OH268913   6.489   6.665  12.189  1.0158 -0.1598 -0.7053
15833TIP3    H168914   6.558   6.657  12.255  0.7410  1.4033 -0.1984
15833TIP3    H268915   6.502   6.751  12.150 -2.1197  1.3951  1.2221
15834TIP3   OH268916   2.975   0.252   3.608  0.2459 -0.1105  0.2780
15834TIP3    H168917   2.947   0.283   3.694 -2.0599 -1.3217  0.0584
15834TIP3    H268918   3.026   0.173   3.626  1.4295  0.6933  0.5754
15835TIP3   OH268919   4.621   1.394   4.265 -0.1990  0.9131  0.4123
15835TIP3    H168920   4.588   1.347   4.188 -0.4110  0.2666  0.8891
15835TIP3    H268921   4.543   1.407   4.319 -0.0047  1.1477  0.6339
15836TIP3   OH268922   1.033   2.648  11.263  0.2528  0.1112 -0.1582
15836TIP3    H168923   1.020   2.564  11.221  2.2199  0.2686 -1.2229
15836TIP3    H268924   0.959   2.701  11.236  0.5227 -0.3781 -1.9734
15837TIP3   OH268925   0.185   3.651   5.871 -0.2805 -0.5692 -0.4183
15837TIP3    H168926   0.212   3.707   5.797 -1.2122 -0.3364 -0.5943
15837TIP3    H268927   0.201   3.704   5.948 -0.8400 -0.1780 -0.5647
15838TIP3   OH268928   1.139   6.652   5.436  0.3839 -0.4399  0.5751
15838TIP3    H168929   1.183   6.570   5.415  1.1575  0.4338 -1.5271
15838TIP3    H268930   1.058   6.649   5.385  0.1142 -0.1681  0.9853
15839TIP3   OH268931   4.381   2.486  15.162 -0.1346  0.3750 -0.0133
15839TIP3    H168932   4.357   2.500  15.254 -2.3314  0.5947 -0.5542
15839TIP3    H268933   4.346   2.399  15.142  0.6215  0.1922 -0.5733
15840TIP3   OH268934   5.963   2.345  16.441 -0.1750 -0.1562  0.4419
15840TIP3    H168935   5.935   2.255  16.459 -0.0182 -0.4683 -0.7957
15840TIP3    H268936   5.939   2.360  16.349  0.0957  0.9508  0.5378
15841TIP3   OH268937   6.184   1.653  14.032  0.5282 -0.2035  0.0124
15841TIP3    H168938   6.209   1.635  14.122 -0.0323 -0.8526  0.0478
15841TIP3    H268939   6.179   1.748  14.027 -0.0095 -0.1780  0.8356
15842TIP3   OH268940   2.141   1.438  17.281  0.4318  0.4789  1.0853
15842TIP3    H168941   2.133   1.416  17.374  0.0907  0.1200  0.9705
15842TIP3    H268942   2.220   1.392  17.252 -0.2076 -0.5109  0.8754
15843TIP3   OH268943   5.631   2.143   3.601  0.0432 -0.3951 -0.3352
15843TIP3    H168944   5.692   2.084   3.645 -0.3905 -0.7110 -0.1392
15843TIP3    H268945   5.629   2.222   3.656  0.4926 -0.2681 -0.5027
15844TIP3   OH268946   1.527   2.915  16.580  0.7955  0.0105 -0.9136
15844TIP3    H168947   1.525   2.835  16.527 -1.5116 -0.0349 -0.8802
15844TIP3    H268948   1.503   2.886  16.668 -0.4478  0.7677 -0.9880
15845TIP3   OH268949   0.913   3.842   5.978 -0.5404 -0.1334 -0.1459
15845TIP3    H168950   0.899   3.791   6.058 -0.0308  0.7101  0.4914
15845TIP3    H268951   0.825   3.856   5.943 -0.6986 -1.3564 -0.2904
15846TIP3   OH268952   2.651   4.825  15.765  0.2255  0.0337 -0.4747
15846TIP3    H168953   2.672   4.732  15.766  2.3224  0.4552  1.2805
15846TIP3    H268954   2.574   4.833  15.821  1.6141 -0.3959  1.6101
15847TIP3   OH268955   1.299   0.806   5.737  0.1239  0.0293  0.0579
15847TIP3    H168956   1.251   0.728   5.764  2.1211 -1.2020  0.2582
15847TIP3    H268957   1.334   0.843   5.819 -0.2033  0.7170 -0.1062
15848TIP3   OH268958   2.312   4.252  16.976 -0.4851  0.5451 -0.1505
15848TIP3    H168959   2.345   4.171  17.015  0.1706  1.3835  1.1088
15848TIP3    H268960   2.378   4.277  16.912 -1.5421 -0.8132 -1.8632
15849TIP3   OH268961   2.393   5.464   2.045  0.4140 -0.0609  0.0091
15849TIP3    H168962   2.453   5.482   2.117  1.4665 -2.4047 -0.1958
15849TIP3    H268963   2.312   5.438   2.087  1.5898 -3.3424  0.5523
15850TIP3   OH268964   0.648   5.550  17.052 -0.3999 -0.2177 -0.0946
15850TIP3    H168965   0.617   5.494  17.124 -0.5460  0.2938  0.2448
15850TIP3    H268966   0.612   5.636  17.072  1.2373  0.4139  0.3246
15851TIP3   OH268967   5.485   4.029   3.209  0.0785 -0.1519  0.5516
15851TIP3    H168968   5.417   3.961   3.215 -0.2825  0.2685  1.3756
15851TIP3    H268969   5.567   3.982   3.222  0.0819 -0.8506 -1.5059
15852TIP3   OH268970   5.060   4.538  11.885  0.5057 -0.2713 -0.0461
15852TIP3    H168971   5.011   4.463  11.853  0.4895  0.2719 -1.3550
15852TIP3    H268972   5.108   4.570  11.808  0.9967  0.6809  0.6366
15853TIP3   OH268973   5.764   5.296   5.260 -0.4898  0.0383 -0.2286
15853TIP3    H168974   5.746   5.382   5.299 -0.1485  0.6171 -1.2871
15853TIP3    H268975   5.725   5.233   5.321  0.1347  0.8813  1.0843
15854TIP3   OH268976   0.971   6.454   0.775 -0.3124  0.4893  0.1096
15854TIP3    H168977   0.886   6.431   0.738 -0.2462 -0.2705  0.4058
15854TIP3    H268978   0.967   6.423   0.866  0.1224  0.8434  0.2582
15855TIP3   OH268979   3.823   4.062   3.415  0.1207 -0.8319 -0.4891
15855TIP3    H168980   3.748   4.042   3.472  0.7655  1.2585  1.2343
15855TIP3    H268981   3.783   4.087   3.332 -1.3760  2.1123  0.9369
15856TIP3   OH268982   0.329   1.712   4.289 -0.1158  0.1795  0.7072
15856TIP3    H168983   0.242   1.740   4.260 -1.3287 -3.0677  0.7664
15856TIP3    H268984   0.382   1.791   4.285 -2.3914  1.7823 -1.9235
15857TIP3   OH268985   6.279   0.477   4.826  0.3425  0.2827  0.1209
15857TIP3    H168986   6.221   0.507   4.756  2.0532 -0.6237 -1.7994
15857TIP3    H268987   6.332   0.409   4.786  1.2486 -0.4744  2.4133
15858TIP3   OH268988   5.202   6.394  14.725 -0.3080  0.7813 -0.5226
15858TIP3    H168989   5.205   6.372  14.632 -0.6353  2.8262 -1.0684
15858TIP3    H268990   5.121   6.354  14.757 -0.0804 -0.1220 -1.0385
15859TIP3   OH268991   5.915   5.859  15.378 -0.3645 -0.3033  0.3836
15859TIP3    H168992   5.845   5.797  15.358  0.6613 -1.9264  1.6370
15859TIP3    H268993   5.925   5.855  15.473 -1.2879  2.9756  0.7616
15860TIP3   OH268994   3.461   3.195  11.655  0.9621 -0.0990  0.0776
15860TIP3    H168995   3.455   3.104  11.684  1.1261  0.1484  0.9383
15860TIP3    H268996   3.495   3.241  11.732 -0.2444  0.8819  0.0440
15861TIP3   OH268997   2.515   3.768   0.651 -0.1189  0.3437  0.0503
15861TIP3    H168998   2.551   3.857   0.649  1.3349 -0.1698  1.0594
15861TIP3    H268999   2.574   3.717   0.595 -0.8637 -0.0081 -0.4210
15862TIP3   OH269000   0.921   5.645   3.309  0.1137  0.0139 -0.1707
15862TIP3    H169001   0.901   5.567   3.257  0.6221 -0.2732  0.0520
15862TIP3    H269002   0.844   5.659   3.363  0.2973 -0.7708  0.3181
15863TIP3   OH269003   1.608   4.424   5.219 -0.4233  0.4288 -0.4292
15863TIP3    H169004   1.546   4.410   5.147 -0.8649  0.1092  0.0018
15863TIP3    H269005   1.687   4.377   5.193 -0.7715 -0.1493 -0.4573
15864TIP3   OH269006   0.540   5.182  10.796 -0.2580 -0.0606 -0.0038
15864TIP3    H169007   0.446   5.192  10.781  0.0762  1.9286 -1.1119
15864TIP3    H269008   0.579   5.182  10.709  0.8838  0.4837  0.4858
15865TIP3   OH269009   0.210   5.646  10.981 -0.0338  0.0209  0.5038
15865TIP3    H169010   0.238   5.647  11.072  0.4185  1.2898  0.3786
15865TIP3    H269011   0.118   5.672  10.984 -0.4142 -1.3016  0.6926
15866TIP3   OH269012   6.190   6.159   2.548  0.0858 -0.8748 -0.3084
15866TIP3    H169013   6.275   6.128   2.517  0.6857  1.2086 -0.9767
15866TIP3    H269014   6.172   6.235   2.492 -0.7105  0.6127  1.8549
15867TIP3   OH269015   3.244   6.196   0.247  0.1150 -0.3242 -0.1715
15867TIP3    H169016   3.334   6.180   0.221  0.1667 -0.5455  0.1333
15867TIP3    H269017   3.251   6.232   0.336 -0.0959 -0.3456 -0.1456
15868TIP3   OH269018   2.792   4.285  16.731  0.5467 -0.6490 -0.0507
15868TIP3    H169019   2.869   4.251  16.686  1.6681 -0.0308  1.3404
15868TIP3    H269020   2.823   4.310  16.818 -1.0799  0.2552  0.3207
15869TIP3   OH269021   3.945   3.180  11.029  0.6803 -0.4701 -0.0314
15869TIP3    H169022   3.853   3.198  11.012  1.0748  1.9994  0.0135
15869TIP3    H269023   3.988   3.266  11.024  2.5457 -1.1086  2.6031
15870TIP3   OH269024   3.754   3.472  12.538  0.0568  0.2294 -0.4457
15870TIP3    H169025   3.738   3.523  12.618 -0.3915 -1.5367  0.6278
15870TIP3    H269026   3.680   3.411  12.533  0.9901 -0.8748 -1.2392
15871TIP3   OH269027   1.901   5.333  11.963 -0.2564  0.1742 -0.2070
15871TIP3    H169028   1.970   5.335  11.896  2.1877  0.0895  2.1612
15871TIP3    H269029   1.865   5.421  11.963  1.3957  0.8726 -0.0017
15872TIP3   OH269030   4.280   4.833   0.052 -0.0942  0.3874  0.0330
15872TIP3    H169031   4.222   4.856  -0.020  0.4516 -1.6136 -1.1056
15872TIP3    H269032   4.286   4.913   0.104 -2.6082  1.1104 -0.6549
15873TIP3   OH269033   5.287   3.970   4.523 -0.4438 -0.2410 -0.2621
15873TIP3    H169034   5.364   4.013   4.561 -1.2064  0.7329  0.2290
15873TIP3    H269035   5.299   3.978   4.429  0.1572 -0.2759 -0.1950
15874TIP3   OH269036   2.252   3.580  15.181  0.1214  0.0650  0.2879
15874TIP3    H169037   2.291   3.615  15.261 -1.9220  1.3240  0.8169
15874TIP3    H269038   2.310   3.610  15.111  1.1430  0.2026  1.1617
15875TIP3   OH269039   1.966   5.474  11.509  0.1125  0.2739 -0.4315
15875TIP3    H169040   2.060   5.490  11.517 -0.2036  1.9590  0.2396
15875TIP3    H269041   1.960   5.399  11.449  1.8683  0.0394 -0.3826
15876TIP3   OH269042   2.340   3.233   0.908  0.1821 -0.3056  0.2466
15876TIP3    H169043   2.296   3.204   0.988  2.6725  0.5675  2.0396
15876TIP3    H269044   2.305   3.321   0.893 -0.4534 -0.5552  0.2115
15877TIP3   OH269045   1.392   2.049  12.979 -0.3750 -0.1744 -1.0351
15877TIP3    H169046   1.441   2.111  13.032 -0.1362 -1.7402  0.6352
15877TIP3    H269047   1.303   2.084  12.978 -0.3689 -0.0857  0.3633
15878TIP3   OH269048   2.676   1.885   2.365 -0.1773  0.2085  0.5226
15878TIP3    H169049   2.615   1.816   2.342  1.5623 -0.9185 -0.9709
15878TIP3    H269050   2.701   1.865   2.456  0.5330 -1.3457  0.0164
15879TIP3   OH269051   0.508   1.430   1.231 -0.1310 -0.2454 -0.5137
15879TIP3    H169052   0.583   1.371   1.225  0.4921  0.5298 -0.4964
15879TIP3    H269053   0.458   1.399   1.307  2.0565  1.3129  1.7374
15880TIP3   OH269054   6.650   4.952   2.920  0.3544 -0.5541 -0.5301
15880TIP3    H169055   6.656   5.006   3.000 -0.3350 -2.6738  1.0455
15880TIP3    H269056   6.729   4.899   2.921  0.0657 -0.9976 -0.9595
15881TIP3   OH269057   0.449   3.975  15.357 -0.6022 -1.1146 -0.1296
15881TIP3    H169058   0.494   4.058  15.348 -2.4542 -0.1564 -0.9724
15881TIP3    H269059   0.518   3.914  15.386  0.6488  0.8276  1.2745
15882TIP3   OH269060   3.231   6.571  15.579  0.1727  0.6874 -0.2112
15882TIP3    H169061   3.205   6.640  15.640  1.1023  0.4364  0.4870
15882TIP3    H269062   3.316   6.542  15.611  0.8996  0.8628 -1.8761
15883TIP3   OH269063   6.466   1.901  13.653 -0.1511  0.4107  0.0015
15883TIP3    H169064   6.370   1.905  13.655 -0.1453  1.0524  1.9707
15883TIP3    H269065   6.494   1.993  13.656  0.5860  0.3247 -2.3714
15884TIP3   OH269066   5.870   0.928  15.786  0.1285 -0.0071 -0.1636
15884TIP3    H169067   5.813   1.004  15.780  1.1742  0.7514 -0.9787
15884TIP3    H269068   5.909   0.920  15.699  0.1959 -1.3563 -0.0341
15885TIP3   OH269069   0.162   4.998   0.297  0.1871 -0.0853  0.4145
15885TIP3    H169070   0.098   4.999   0.226 -0.4985 -0.5901  1.0129
15885TIP3    H269071   0.143   4.918   0.345  1.9037 -0.7511  0.0482
15886TIP3   OH269072   2.782   1.351   3.852 -0.3354 -0.5377  0.2191
15886TIP3    H169073   2.779   1.435   3.897 -3.2728 -0.6374  0.3792
15886TIP3    H269074   2.766   1.372   3.760 -1.5628 -0.9396  0.3316
15887TIP3   OH269075   0.492   6.765  12.201  0.0788 -0.1081  0.0695
15887TIP3    H169076   0.561   6.714  12.158 -0.1501 -0.4538  0.1052
15887TIP3    H269077   0.538   6.817  12.267  0.1930 -1.0671  0.7647
15888TIP3   OH269078   5.446   1.631  13.202 -0.1588 -0.1048  0.9118
15888TIP3    H169079   5.368   1.679  13.229  0.6467  1.7586  0.0995
15888TIP3    H269080   5.487   1.605  13.284  0.2452  2.1191  1.4819
15889TIP3   OH269081   5.894   3.029  15.131  0.2345 -0.1042  0.3374
15889TIP3    H169082   5.886   3.077  15.213 -1.8551  0.7086 -0.2734
15889TIP3    H269083   5.974   3.063  15.091  0.7882  0.1477  1.6157
15890TIP3   OH269084   1.194   5.363  11.894  0.2194 -0.3275  0.8171
15890TIP3    H169085   1.145   5.282  11.910  1.6056 -1.2495  0.5374
15890TIP3    H269086   1.127   5.425  11.863 -0.5167 -2.1157 -1.5194
15891TIP3   OH269087   0.066   4.892  16.162 -0.4254  0.4240  0.4096
15891TIP3    H169088   0.032   4.939  16.238 -2.3549  0.0849 -0.1929
15891TIP3    H269089   0.137   4.838  16.197 -3.1963 -2.1117  2.6950
15892TIP3   OH269090   2.163   1.390  12.597  0.4686  0.0473 -0.0156
15892TIP3    H169091   2.253   1.396  12.564  0.5673 -0.1055  0.2246
15892TIP3    H269092   2.173   1.380  12.691  0.2187 -0.6781 -0.0626
15893TIP3   OH269093   4.840   4.536  12.830  0.5900 -0.4432  0.5776
15893TIP3    H169094   4.842   4.537  12.734 -1.4377 -1.4949  0.4814
15893TIP3    H269095   4.802   4.451  12.852  0.1760  0.1629  2.2912
15894TIP3   OH269096   2.924   5.113   5.176  0.2568  0.1112 -0.3107
15894TIP3    H169097   2.984   5.080   5.109  1.2837  1.9844 -0.3664
15894TIP3    H269098   2.848   5.145   5.127 -0.1894 -0.9584 -0.3458
15895TIP3   OH269099   4.501   4.391  11.734 -0.8758 -0.3339  0.4647
15895TIP3    H169100   4.510   4.392  11.638  3.1931  0.6897  0.6563
15895TIP3    H269101   4.547   4.312  11.761  0.2882  0.6777  1.6027
15896TIP3   OH269102   2.710   2.907  13.376  0.4442  0.2409  0.4388
15896TIP3    H169103   2.707   2.846  13.302 -1.8241 -2.0470  2.2237
15896TIP3    H269104   2.795   2.891  13.417 -0.4647 -2.6221  1.4347
15897TIP3   OH269105   2.555   0.822  12.894  0.5908 -0.1996  0.6506
15897TIP3    H169106   2.607   0.885  12.844  0.5794 -0.7968 -0.1266
15897TIP3    H269107   2.615   0.790  12.961  1.4241 -1.2624 -0.5454
15898TIP3   OH269108   3.207   5.295  17.203 -0.1077 -0.0685  0.0130
15898TIP3    H169109   3.245   5.336  17.281 -1.3520  1.7252 -0.2675
15898TIP3    H269110   3.234   5.352  17.131  0.8531 -1.5901 -0.8751
15899TIP3   OH269111   5.515   3.996  15.104  0.0794 -0.2511  0.3878
15899TIP3    H169112   5.611   3.999  15.106  0.1817 -1.6757 -0.7126
15899TIP3    H269113   5.492   3.954  15.187  0.3133  1.1340  1.1857
15900TIP3   OH269114   4.203   6.542  11.404  0.2565  0.4834 -0.3742
15900TIP3    H169115   4.148   6.620  11.415  1.2708  1.3387 -1.0883
15900TIP3    H269116   4.259   6.564  11.329 -1.4264 -2.0948 -2.5606
15901TIP3   OH269117   0.320   1.505   5.027 -0.3490  0.0868 -0.0763
15901TIP3    H169118   0.398   1.470   5.071 -0.0841  0.9673  0.1609
15901TIP3    H269119   0.345   1.507   4.934  0.3725  1.5210  0.1304
15902TIP3   OH269120   6.613   3.515   3.669 -0.2311 -0.0941  0.3289
15902TIP3    H169121   6.677   3.575   3.630 -0.0696  0.9175  2.0690
15902TIP3    H269122   6.638   3.429   3.636  0.8892  0.5075 -0.4686
15903TIP3   OH269123   2.076   5.055  13.717  0.2072  0.0223 -0.0127
15903TIP3    H169124   2.093   4.962  13.704  4.0278  0.4399  0.7463
15903TIP3    H269125   2.029   5.082  13.638 -0.8792 -2.4689 -0.3158
15904TIP3   OH269126   4.320   1.416   2.998 -0.2449 -0.3014 -0.3179
15904TIP3    H169127   4.269   1.422   2.917 -1.0530  0.1726  0.2147
15904TIP3    H269128   4.254   1.413   3.068  0.4578  0.2475  0.3808
15905TIP3   OH269129   5.212   3.427   4.359 -0.1846  0.1938 -0.3829
15905TIP3    H169130   5.254   3.450   4.276 -0.4183  1.1290 -0.2488
15905TIP3    H269131   5.120   3.450   4.346 -0.8622 -2.4548 -0.9134
15906TIP3   OH269132   0.970   0.323  14.555  0.0771  0.2608 -0.3992
15906TIP3    H169133   0.981   0.312  14.650  1.1247 -1.2062 -0.6739
15906TIP3    H269134   0.875   0.319  14.542  0.0098 -2.5785  0.2917
15907TIP3   OH269135   4.841   5.379   2.222  0.0329 -0.1004  0.0447
15907TIP3    H169136   4.909   5.322   2.258 -0.6825 -0.4079  0.9391
15907TIP3    H269137   4.764   5.361   2.275 -0.4193  1.1447 -0.1691
15908TIP3   OH269138   2.000   2.522   4.288  0.2012 -0.7385 -0.2296
15908TIP3    H169139   2.022   2.614   4.273  0.6916 -0.9513 -0.8621
15908TIP3    H269140   2.057   2.474   4.228 -0.0977 -1.4529  0.0504
15909TIP3   OH269141   1.359   0.340  14.575 -0.0092  0.2336  0.0395
15909TIP3    H169142   1.350   0.392  14.655  0.7139 -0.0095  0.2857
15909TIP3    H269143   1.449   0.306  14.578 -0.7307 -1.7722  0.3307
15910TIP3   OH269144   6.201   5.519   0.765 -0.2846 -0.5896  0.4815
15910TIP3    H169145   6.212   5.570   0.845 -0.9255 -0.9869  0.8330
15910TIP3    H269146   6.275   5.545   0.709 -1.9775  2.8133 -0.4908
15911TIP3   OH269147   5.666   1.581  12.232 -0.2677 -0.7437 -0.7972
15911TIP3    H169148   5.660   1.487  12.248  1.5922 -0.7704 -0.0313
15911TIP3    H269149   5.688   1.618  12.318 -0.4866  0.3397 -1.1948
15912TIP3   OH269150   2.153   4.371  17.168  0.3372  0.2792 -0.2840
15912TIP3    H169151   2.223   4.328  17.117  0.1733 -1.4782  0.8921
15912TIP3    H269152   2.112   4.300  17.216 -0.7644  1.6328  0.8379
15913TIP3   OH269153   0.229   5.312   3.842 -0.1563 -0.0257 -0.6075
15913TIP3    H169154   0.191   5.399   3.833 -0.4765 -0.0970  0.0312
15913TIP3    H269155   0.265   5.311   3.931 -1.6191 -1.1183 -0.0041
15914TIP3   OH269156   3.634   3.481   3.630  0.3462  0.2387  0.3098
15914TIP3    H169157   3.631   3.566   3.587 -0.7350 -0.3179 -0.7864
15914TIP3    H269158   3.579   3.425   3.576  2.2954 -1.5929  0.0807
15915TIP3   OH269159   4.385   1.380   3.778 -0.4363  0.1576  0.1875
15915TIP3    H169160   4.293   1.398   3.761  0.1367  1.1229 -2.4414
15915TIP3    H269161   4.389   1.285   3.791 -1.6773 -0.0752 -0.9354
15916TIP3   OH269162   0.368   3.610   3.940 -0.1251  0.0667 -0.2930
15916TIP3    H169163   0.305   3.544   3.968  0.3384  0.2525  1.3262
15916TIP3    H269164   0.363   3.678   4.007  0.3622  1.0455 -1.2176
15917TIP3   OH269165   3.102   3.937   5.257  0.3260 -0.4283 -0.1588
15917TIP3    H169166   3.093   3.878   5.332  0.7254  1.2156  1.2412
15917TIP3    H269167   3.196   3.935   5.236  0.4509  0.1746  0.3119
15918TIP3   OH269168   3.347   0.611   5.045  0.2101 -0.1584  0.1507
15918TIP3    H169169   3.281   0.543   5.030 -0.0585  0.1347 -0.0121
15918TIP3    H269170   3.380   0.593   5.133  0.7299 -0.9929 -0.2029
15919TIP3   OH269171   4.689   6.060   2.071  0.4228 -0.5126  0.1463
15919TIP3    H169172   4.742   6.115   2.013 -0.2874 -0.0934 -0.1224
15919TIP3    H269173   4.605   6.107   2.078  0.1166 -1.1215  0.6231
15920TIP3   OH269174   1.535   6.426  13.633 -0.1048  0.2562 -0.4746
15920TIP3    H169175   1.485   6.390  13.706  0.4095 -0.1563 -0.3160
15920TIP3    H269176   1.492   6.509  13.612 -1.7808 -0.7906 -1.3427
15921TIP3   OH269177   3.769   5.135   0.577 -0.1333 -0.2521 -0.5890
15921TIP3    H169178   3.723   5.159   0.496 -1.5050 -0.9651 -0.0589
15921TIP3    H269179   3.709   5.076   0.622 -0.1177  1.3341  1.7056
15922TIP3   OH269180   3.548   0.521  13.262 -1.0384 -0.0297  0.1069
15922TIP3    H169181   3.561   0.430  13.289 -0.1897  0.0755  0.0863
15922TIP3    H269182   3.524   0.516  13.170 -2.7203 -0.3193  0.5235
15923TIP3   OH269183   1.967   2.577   5.205 -0.0541 -0.5103 -0.0175
15923TIP3    H169184   1.897   2.517   5.180  0.1596 -0.8701  0.2248
15923TIP3    H269185   1.958   2.586   5.300  1.1784 -1.8103  0.2524
15924TIP3   OH269186   4.739   1.887   4.206 -0.1790  0.4972  0.5460
15924TIP3    H169187   4.757   1.948   4.135  0.1366  0.0307  0.2208
15924TIP3    H269188   4.732   1.802   4.164  0.4328  0.1553  1.1169
15925TIP3   OH269189   5.439   3.378  14.960 -0.0072 -0.2832 -0.4801
15925TIP3    H169190   5.391   3.383  15.043 -0.4509  0.3438 -0.7705
15925TIP3    H269191   5.456   3.469  14.937  2.8438 -0.4713  0.4837
15926TIP3   OH269192   3.161   4.182   4.427 -0.4333  0.6997 -0.1341
15926TIP3    H169193   3.235   4.213   4.479  1.0107  0.1181 -1.7370
15926TIP3    H269194   3.126   4.108   4.477 -0.3098  1.3475  0.9321
15927TIP3   OH269195   5.203   1.650  17.236  0.1798  0.2845 -0.0910
15927TIP3    H169196   5.219   1.725  17.179 -0.7359  1.0088  0.5693
15927TIP3    H269197   5.108   1.638  17.232  0.3771 -1.2985 -0.7431
15928TIP3   OH269198   6.537   2.876  10.931 -0.0155 -0.1532 -0.1249
15928TIP3    H169199   6.604   2.940  10.956 -0.1233  0.1658 -0.6164
15928TIP3    H269200   6.585   2.808  10.883  0.0682 -0.3310  0.2096
15929TIP3   OH269201   5.555   3.740   6.542  0.0637 -0.4850 -0.2639
15929TIP3    H169202   5.577   3.655   6.503  0.6559 -0.2816 -0.3954
15929TIP3    H269203   5.632   3.795   6.523 -1.1805  0.7395 -2.0926
15930TIP3   OH269204   4.995   4.319  14.885 -0.5890 -0.0579  0.2671
15930TIP3    H169205   5.076   4.324  14.833 -0.2422  1.6474  0.8944
15930TIP3    H269206   5.024   4.330  14.976 -1.4174 -0.7089  0.6280
15931TIP3   OH269207   3.718   5.520   5.643  0.3395 -0.8800 -0.3498
15931TIP3    H169208   3.763   5.454   5.591  0.1216 -1.2379 -0.0869
15931TIP3    H269209   3.663   5.567   5.581  0.5497 -0.8991 -0.5500
15932TIP3   OH269210   2.489   4.483   2.405 -0.3459 -0.1229 -0.3433
15932TIP3    H169211   2.403   4.448   2.383 -0.7160 -0.3345  1.3183
15932TIP3    H269212   2.487   4.496   2.500  1.9714 -1.6740  0.0283
15933TIP3   OH269213   3.511   5.507   1.019  0.1527  0.2307 -0.0963
15933TIP3    H169214   3.443   5.451   0.981  0.7035 -0.5627  0.0655
15933TIP3    H269215   3.531   5.571   0.950  0.7419 -0.8417 -0.9348
15934TIP3   OH269216   2.726   3.134   4.135 -0.0667 -0.2700 -0.4026
15934TIP3    H169217   2.680   3.175   4.063  1.5366  0.8802 -0.8180
15934TIP3    H269218   2.773   3.060   4.096  0.3525  0.0104 -0.4288
15935TIP3   OH269219   3.369   4.833   1.130  0.0246  0.0171 -0.1205
15935TIP3    H169220   3.407   4.791   1.053  0.3805 -0.3355  0.2453
15935TIP3    H269221   3.289   4.785   1.147 -0.6689  0.8424 -0.9694
15936TIP3   OH269222   6.467   5.494   4.077  0.5614  0.1425  0.3993
15936TIP3    H169223   6.554   5.531   4.094  1.2188 -1.1761 -0.0184
15936TIP3    H269224   6.420   5.508   4.159  0.6452  2.2233  0.1438
15937TIP3   OH269225   6.278   6.546   2.434 -0.7258 -0.2131 -0.0834
15937TIP3    H169226   6.316   6.629   2.461 -0.9624 -0.4759  1.1081
15937TIP3    H269227   6.334   6.516   2.362 -1.3728  1.5563 -1.3919
15938TIP3   OH269228   3.754   1.142   0.206 -0.1047  0.0685 -0.2431
15938TIP3    H169229   3.800   1.061   0.229  0.2043  0.5961  1.0860
15938TIP3    H269230   3.692   1.115   0.138 -0.2438 -1.3691  0.4019
15939TIP3   OH269231   4.306   1.675  16.404 -0.9514 -0.5414 -0.2300
15939TIP3    H169232   4.302   1.654  16.497 -0.5129  2.6491  0.5998
15939TIP3    H269233   4.270   1.597  16.361 -0.2468 -2.5237  2.4843
15940TIP3   OH269234   6.429   0.502   2.684  0.5325 -0.2372  0.3615
15940TIP3    H169235   6.351   0.550   2.656 -0.5230 -1.3928  1.2410
15940TIP3    H269236   6.502   0.548   2.641 -0.8481 -1.2082 -3.4449
15941TIP3   OH269237   3.469   0.888  12.882 -0.2130 -0.0062  0.0333
15941TIP3    H169238   3.416   0.928  12.813 -1.3734  0.6532  1.2571
15941TIP3    H269239   3.511   0.961  12.926 -0.3912 -0.3166  0.7372
15942TIP3   OH269240   1.869   4.994  16.034 -0.1447 -0.6501 -0.1207
15942TIP3    H169241   1.865   4.904  16.002 -0.9059 -0.4344 -0.6520
15942TIP3    H269242   1.780   5.014  16.060  0.1102 -0.1920  0.4230
15943TIP3   OH269243   1.998   2.337  16.128 -0.4259 -0.9224 -0.1486
15943TIP3    H169244   1.987   2.246  16.101  1.7092 -0.8779 -1.3222
15943TIP3    H269245   1.987   2.388  16.048 -2.6461  0.0316  0.6539
15944TIP3   OH269246   4.245   2.730   3.384  0.2256  0.1282  0.4158
15944TIP3    H169247   4.160   2.701   3.351  0.0883 -0.0921  0.9532
15944TIP3    H269248   4.294   2.649   3.398  0.4199  0.2401  0.3701
15945TIP3   OH269249   5.101   3.070  16.369 -0.1629 -0.2906 -0.3137
15945TIP3    H169250   5.015   3.096  16.336 -0.2712 -0.4178 -0.1352
15945TIP3    H269251   5.091   2.978  16.392 -0.6677  0.2508  1.8850
15946TIP3   OH269252   1.619   5.192   1.728  0.0406  0.0373 -0.1537
15946TIP3    H169253   1.624   5.275   1.776  2.0075  0.3598 -0.8285
15946TIP3    H269254   1.648   5.126   1.791 -0.0181  0.0723 -0.0893
15947TIP3   OH269255   3.015   0.440   0.933 -0.0367 -0.5360 -0.1839
15947TIP3    H169256   3.045   0.463   0.846  1.9946 -0.0858  0.5800
15947TIP3    H269257   2.920   0.441   0.927  0.0594  0.1111 -2.2143
15948TIP3   OH269258   4.766   4.169   2.002  0.1601 -0.4062  0.4448
15948TIP3    H169259   4.830   4.098   1.998  0.0863 -0.4266 -0.5261
15948TIP3    H269260   4.819   4.249   2.003  0.3214 -0.4387  3.1749
15949TIP3   OH269261   4.234   5.601   1.942  0.2183 -0.7274 -0.4669
15949TIP3    H169262   4.208   5.648   1.863  1.0037 -0.9656 -0.8797
15949TIP3    H269263   4.175   5.633   2.010  1.9407  2.3468 -0.2495
15950TIP3   OH269264   3.211   5.495  13.048  0.9003 -0.2574  0.1037
15950TIP3    H169265   3.214   5.403  13.020  1.4894 -0.6370  1.3056
15950TIP3    H269266   3.195   5.490  13.142  0.3397  0.9031  0.0867
15951TIP3   OH269267   4.458   6.224  14.718 -0.1626 -0.4500 -0.1762
15951TIP3    H169268   4.387   6.241  14.780  0.0407 -0.1531 -0.0250
15951TIP3    H269269   4.414   6.196  14.638 -0.4398 -0.4883 -0.0107
15952TIP3   OH269270   3.347   1.895  12.099 -0.0389  0.4962 -0.1489
15952TIP3    H169271   3.389   1.913  12.015  2.4640 -2.9737  0.1159
15952TIP3    H269272   3.410   1.926  12.164 -0.9535  1.1787  0.4288
15953TIP3   OH269273   0.834   0.193  16.012  0.4002 -0.3224  0.2904
15953TIP3    H169274   0.781   0.165  16.086  1.2538 -0.8867  0.6984
15953TIP3    H269275   0.772   0.235  15.953 -0.6450 -1.6461  0.3998
15954TIP3   OH269276   2.148   6.755   5.529 -0.7809 -0.0135 -0.5276
15954TIP3    H169277   2.065   6.732   5.572  0.0034  2.4110  2.6073
15954TIP3    H269278   2.212   6.696   5.568 -0.5963 -0.3092 -1.2461
15955TIP3   OH269279   0.128   0.906  16.688 -0.2154 -0.1528  0.2663
15955TIP3    H169280   0.205   0.937  16.737 -0.2870  2.0517 -0.8968
15955TIP3    H269281   0.136   0.948  16.602 -2.2734 -0.5710 -0.1712
15956TIP3   OH269282   6.714   1.060   3.608  0.5674  0.8135 -0.4292
15956TIP3    H169283   6.658   1.076   3.532  0.4502  2.3910 -0.0434
15956TIP3    H269284   6.655   1.019   3.672 -0.2007  2.4370 -0.0356
15957TIP3   OH269285   4.880   1.475  16.586 -0.0650 -0.1815 -0.2460
15957TIP3    H169286   4.834   1.391  16.575  0.5538 -0.4036 -1.2799
15957TIP3    H269287   4.830   1.521  16.654  0.4041 -1.9610  1.4038
15958TIP3   OH269288   0.498   3.560   4.653 -0.2546  0.3353 -0.1467
15958TIP3    H169289   0.462   3.531   4.737 -0.9675  2.4196  0.3220
15958TIP3    H269290   0.564   3.625   4.676 -2.6270  3.3003 -1.1842
15959TIP3   OH269291   4.423   0.012  10.869  0.7750 -0.4717  0.3021
15959TIP3    H169292   4.407   0.101  10.900 -0.6878 -1.3541  2.3419
15959TIP3    H269293   4.366   0.003  10.792  1.0757  0.3850 -0.0316
15960TIP3   OH269294   3.116   0.449  11.121  0.0356 -0.4188 -0.2035
15960TIP3    H169295   3.122   0.542  11.098  1.0124  0.1597  2.1047
15960TIP3    H269296   3.200   0.413  11.095 -0.0705 -0.5006 -0.4365
15961TIP3   OH269297   2.252   6.057   3.930  0.2829  0.5659 -0.5862
15961TIP3    H169298   2.318   5.987   3.932  2.0021  2.1301 -0.2162
15961TIP3    H269299   2.228   6.071   4.021 -0.7012 -0.0700 -0.7258
15962TIP3   OH269300   3.909   6.255  12.315  0.0556  0.0659 -0.3685
15962TIP3    H169301   3.835   6.194  12.318 -0.4500  0.7069  1.2456
15962TIP3    H269302   3.892   6.316  12.387  2.8560 -0.6096  1.0018
15963TIP3   OH269303   4.791   4.974   3.188  0.4150 -0.4769  0.1027
15963TIP3    H169304   4.874   4.988   3.142  1.3637 -1.4453  1.4465
15963TIP3    H269305   4.736   4.930   3.124  0.5659  1.0268 -1.1313
15964TIP3   OH269306   1.271   2.100  15.800  0.7521 -0.2003  0.0799
15964TIP3    H169307   1.366   2.093  15.813  0.9723 -0.3731 -1.4082
15964TIP3    H269308   1.253   2.193  15.804  1.3950  0.0582 -1.9667
15965TIP3   OH269309   6.541   1.886   2.097 -0.1558  0.1755  0.1076
15965TIP3    H169310   6.485   1.886   2.019  0.4015 -1.5576 -0.3445
15965TIP3    H269311   6.608   1.951   2.079 -0.1749 -0.0388 -0.7721
15966TIP3   OH269312   4.888   5.977  15.242  0.1294  0.2147 -0.1832
15966TIP3    H169313   4.874   6.071  15.236  0.6021  0.3154  0.2425
15966TIP3    H269314   4.981   5.965  15.224 -0.3523 -0.4012 -2.5600
15967TIP3   OH269315   3.054   5.629  10.919  0.3794 -0.6974 -0.0383
15967TIP3    H169316   2.964   5.635  10.887 -0.0122 -0.3876  1.0865
15967TIP3    H269317   3.102   5.692  10.865 -0.7700  1.7760  1.6157
15968TIP3   OH269318   0.750   4.653  15.362  0.9245 -0.0473  0.2367
15968TIP3    H169319   0.670   4.697  15.391  1.7671  1.0565  0.9339
15968TIP3    H269320   0.719   4.567  15.332 -0.5290  0.3697  0.4319
15969TIP3   OH269321   5.770   2.125  16.127 -0.1935 -1.0317 -0.5818
15969TIP3    H169322   5.857   2.113  16.089  0.6376  0.4949  0.6948
15969TIP3    H269323   5.731   2.196  16.077  0.4017  0.1146  0.5143
15970TIP3   OH269324   6.117   1.508  16.133  0.1340 -0.0010  0.1985
15970TIP3    H169325   6.026   1.487  16.153 -0.0841  0.0428 -0.6901
15970TIP3    H269326   6.165   1.491  16.214 -0.7774  0.7291  0.9114
15971TIP3   OH269327   5.942   4.818   4.030 -0.9633  0.2806  0.0663
15971TIP3    H169328   6.012   4.786   4.088 -1.6506 -1.5006 -0.0191
15971TIP3    H269329   5.861   4.789   4.073 -1.5844  1.0828 -0.5463
15972TIP3   OH269330   2.661   6.602  12.104 -0.1271 -0.1012  0.1449
15972TIP3    H169331   2.738   6.602  12.160  0.6087  0.0470 -0.8461
15972TIP3    H269332   2.596   6.550  12.153  0.8561 -0.9079  0.6393
15973TIP3   OH269333   3.457   3.074  13.818  0.3038  0.3806  0.2040
15973TIP3    H169334   3.526   3.008  13.831  0.5693  0.4999 -0.5754
15973TIP3    H269335   3.383   3.041  13.869  0.6697 -0.1623  0.3918
15974TIP3   OH269336   2.049   3.253  12.956 -0.5050  0.3027  0.0239
15974TIP3    H169337   2.001   3.193  12.900 -2.1446  0.4835  1.1580
15974TIP3    H269338   1.983   3.287  13.016  0.6761  2.0750  0.3945
15975TIP3   OH269339   1.664   4.098  14.049  0.0481 -0.4746 -0.0039
15975TIP3    H169340   1.686   4.173  14.104  0.4478 -0.8425  0.3541
15975TIP3    H269341   1.714   4.112  13.969 -1.3377  0.5932 -0.7226
15976TIP3   OH269342   1.674   3.153  12.259 -0.4901  0.3863 -0.7682
15976TIP3    H169343   1.692   3.204  12.180 -1.1444  0.5293 -0.8298
15976TIP3    H269344   1.626   3.213  12.316  0.2851  0.3951 -0.1116
15977TIP3   OH269345   6.348   1.658   1.038  0.3906 -0.3805  0.4229
15977TIP3    H169346   6.348   1.594   1.109  0.7623 -0.7480  0.0980
15977TIP3    H269347   6.426   1.637   0.987 -0.5711 -1.0033 -0.8652
15978TIP3   OH269348   1.093   4.610   6.098  0.7387  0.3480  0.2544
15978TIP3    H169349   1.046   4.533   6.132 -0.1090  0.6476 -0.2012
15978TIP3    H269350   1.178   4.607   6.141 -0.3835  0.8725  2.6478
15979TIP3   OH269351   3.758   1.779   1.449  0.7416  0.0657  0.8526
15979TIP3    H169352   3.739   1.692   1.413  3.2886 -0.3705  0.3815
15979TIP3    H269353   3.760   1.837   1.373  2.6827 -0.2078  0.6430
15980TIP3   OH269354   1.651   6.062  16.822 -0.1449  0.2116  0.3462
15980TIP3    H169355   1.727   6.063  16.765 -0.5192  1.7918 -0.1840
15980TIP3    H269356   1.687   6.075  16.910  0.2269  0.8830  0.1070
15981TIP3   OH269357   1.915   5.013   3.929  0.8506  0.0315  0.1998
15981TIP3    H169358   1.905   5.084   3.992 -0.5637  0.4133 -0.4082
15981TIP3    H269359   1.861   4.942   3.965  1.8420 -0.5759  0.5402
15982TIP3   OH269360   5.150   3.382   4.856 -0.2254  0.0217 -0.0617
15982TIP3    H169361   5.137   3.477   4.853 -1.0147 -0.0859 -0.3593
15982TIP3    H269362   5.084   3.351   4.919  0.5734 -0.2490  0.6641
15983TIP3   OH269363   6.083   4.761  11.525  0.5498 -0.0924  0.0208
15983TIP3    H169364   6.164   4.801  11.555  0.0830  1.5075 -0.7462
15983TIP3    H269365   6.109   4.702  11.454  0.9031  1.8488 -1.5418
15984TIP3   OH269366   1.752   1.982  13.069  0.4815  0.0859  0.1161
15984TIP3    H169367   1.698   2.054  13.036 -1.2900 -1.5123 -0.7009
15984TIP3    H269368   1.757   1.921  12.995 -3.0978 -3.3610  2.2923
15985TIP3   OH269369   2.618   1.228  11.220 -0.1402  0.0191 -0.0709
15985TIP3    H169370   2.533   1.195  11.191 -0.9200  1.7716  0.1191
15985TIP3    H269371   2.664   1.251  11.139 -1.1441  2.0816 -0.1168
15986TIP3   OH269372   3.733   3.140  15.962 -0.1807 -0.2206  0.1635
15986TIP3    H169373   3.761   3.161  15.873  1.0589  0.7637  0.7515
15986TIP3    H269374   3.658   3.198  15.978  1.9781  2.5579  1.0614
15987TIP3   OH269375   4.973   5.263  11.105  0.0420 -0.1051 -0.4741
15987TIP3    H169376   4.944   5.267  11.196  0.0854 -0.4081 -0.4467
15987TIP3    H269377   5.055   5.312  11.104 -0.8490  1.4704 -0.7117
15988TIP3   OH269378   6.375   3.966  11.999 -0.4124 -0.0267 -0.6027
15988TIP3    H169379   6.350   4.056  11.977 -0.4750  0.4014  1.0796
15988TIP3    H269380   6.406   3.971  12.089 -2.4917 -2.0776  0.3195
15989TIP3   OH269381   1.533   3.813  12.375  0.0584 -0.1029 -0.3228
15989TIP3    H169382   1.541   3.884  12.438 -0.5172 -0.5062  0.2248
15989TIP3    H269383   1.558   3.852  12.291  1.3180  0.3080  0.2214
15990TIP3   OH269384   1.999   3.214  14.736 -0.2622  0.4625  0.2918
15990TIP3    H169385   2.064   3.164  14.687 -0.9198  1.1410 -1.3479
15990TIP3    H269386   2.019   3.197  14.828  0.7853 -1.1670 -0.2031
15991TIP3   OH269387   4.955   0.710  16.753  0.1047  0.0946  0.1662
15991TIP3    H169388   5.042   0.697  16.791 -0.0154  0.6213  0.6351
15991TIP3    H269389   4.910   0.626  16.765  1.0794 -0.7064 -1.5228
15992TIP3   OH269390   1.634   3.174  10.889 -0.3414 -0.2205  0.2358
15992TIP3    H169391   1.562   3.126  10.930  0.3833 -1.6815 -0.1380
15992TIP3    H269392   1.592   3.239  10.833 -1.4784 -2.8195 -2.1205
15993TIP3   OH269393   4.310   5.180   3.111  0.4385  0.2333 -0.2008
15993TIP3    H169394   4.272   5.102   3.071 -1.1885  0.9897 -0.2270
15993TIP3    H269395   4.310   5.160   3.205 -0.3837  0.3583 -0.1678
15994TIP3   OH269396   6.337   5.622  16.224  0.9810 -0.4512  0.5156
15994TIP3    H169397   6.348   5.684  16.297  1.6264 -0.3078  0.2957
15994TIP3    H269398   6.245   5.595  16.230  1.1441 -0.8058  1.6698
15995TIP3   OH269399   2.182   5.199   1.903 -0.1697  0.1015  0.0759
15995TIP3    H169400   2.087   5.204   1.892 -0.0252  1.1133 -0.9313
15995TIP3    H269401   2.217   5.243   1.826  1.1120  0.2982  0.7442
15996TIP3   OH269402   3.814   2.925   5.044 -0.3180 -0.1341 -0.2451
15996TIP3    H169403   3.860   2.999   5.083  0.7810  0.6609 -2.8805
15996TIP3    H269404   3.723   2.937   5.072 -0.0377  1.7734  0.0089
15997TIP3   OH269405   1.634   0.031   3.636 -0.1759 -0.7856  1.0990
15997TIP3    H169406   1.675  -0.023   3.569  1.1407 -1.1417  2.1638
15997TIP3    H269407   1.543   0.041   3.607  0.5309 -0.3185 -1.1002
15998TIP3   OH269408   1.434   5.215  14.203  0.2588 -0.0490  0.1352
15998TIP3    H169409   1.411   5.146  14.265  0.9439  0.2720  0.7606
15998TIP3    H269410   1.435   5.171  14.118 -2.8313 -0.0422 -0.0024
15999TIP3   OH269411   0.841   4.479  13.795 -0.1087  0.5518  0.3436
15999TIP3    H169412   0.838   4.465  13.889 -0.8300 -0.0612  0.2352
15999TIP3    H269413   0.904   4.550  13.784 -0.6156  1.1872  1.3513
16000TIP3   OH269414   5.855   3.040   0.956  0.3761 -0.3289 -0.7781
16000TIP3    H169415   5.773   2.997   0.934  0.1295 -1.2494  1.5604
16000TIP3    H269416   5.917   2.967   0.967  0.7803  0.1394  0.1170
16001TIP3   OH269417   4.515   0.224  10.629  0.7631 -0.4702 -0.4578
16001TIP3    H169418   4.595   0.230  10.578  1.2294 -2.6234 -0.0453
16001TIP3    H269419   4.531   0.282  10.704  0.7518  1.3400 -1.7839
16002TIP3   OH269420   0.185   2.821  14.283  0.4054  0.4907 -0.0719
16002TIP3    H169421   0.215   2.763  14.212  1.3473  0.0813  0.6298
16002TIP3    H269422   0.196   2.769  14.363  0.0242  1.1832  0.4446
16003TIP3   OH269423   3.736   0.125  14.594  0.1685 -0.0902 -0.7230
16003TIP3    H169424   3.701   0.106  14.507 -2.1353 -0.5565  0.2372
16003TIP3    H269425   3.738   0.040  14.638  0.8303  0.2181 -0.1363
16004TIP3   OH269426   4.375   2.162   6.394 -0.1408 -0.5194  0.3678
16004TIP3    H169427   4.310   2.232   6.388  0.0252 -0.4835 -2.6707
16004TIP3    H269428   4.324   2.084   6.414 -0.9672 -0.2227 -0.4617
16005TIP3   OH269429   4.785   6.716  14.898 -0.7568  0.1275 -0.2740
16005TIP3    H169430   4.799   6.787  14.836  0.4662 -0.3280 -0.5371
16005TIP3    H269431   4.866   6.665  14.896 -0.6382  0.1533  1.7710
16006TIP3   OH269432   0.793   2.625  15.175  0.0390 -0.7005  0.2844
16006TIP3    H169433   0.814   2.701  15.120 -1.1466  0.2437  1.0609
16006TIP3    H269434   0.708   2.595  15.141  0.5841 -1.7950 -0.1238
16007TIP3   OH269435   3.227   0.900  15.384 -0.4701  0.1902  0.1662
16007TIP3    H169436   3.205   0.939  15.299  0.6637  0.5741  0.0439
16007TIP3    H269437   3.170   0.945  15.447 -2.5414 -1.2483 -0.5647
16008TIP3   OH269438   5.667   6.695   0.086 -0.1107  0.6751  0.1030
16008TIP3    H169439   5.691   6.635   0.157  0.9560  0.2310 -0.5974
16008TIP3    H269440   5.748   6.743   0.068 -0.6547  1.5151 -0.1144
16009TIP3   OH269441   3.975   2.266   5.584  0.5254  0.5865 -0.2074
16009TIP3    H169442   4.006   2.349   5.548  1.1008  0.3514 -0.2661
16009TIP3    H269443   4.039   2.202   5.554 -1.3339 -0.3562 -2.4503
16010TIP3   OH269444   5.502   5.086   6.128  0.2470 -0.2727  0.8638
16010TIP3    H169445   5.460   5.115   6.209  1.1325 -0.5155  1.4316
16010TIP3    H269446   5.570   5.025   6.158  0.9817  0.0995 -0.0185
16011TIP3   OH269447   0.691   0.047  14.159  0.0473 -0.0038  0.1046
16011TIP3    H169448   0.783   0.071  14.169  0.1397 -0.4544  0.4014
16011TIP3    H269449   0.642   0.120  14.198  0.3263 -0.3549  1.1416
16012TIP3   OH269450   3.379   5.075   5.544 -0.7987  0.1758  0.3394
16012TIP3    H169451   3.378   4.989   5.503 -0.6435 -0.0703  0.8394
16012TIP3    H269452   3.289   5.089   5.573 -1.2066  0.8934 -1.1638
16013TIP3   OH269453   3.434   6.395  16.077  0.4721 -1.1557 -0.0520
16013TIP3    H169454   3.469   6.327  16.019  1.8068  0.1998 -0.8964
16013TIP3    H269455   3.472   6.375  16.162 -0.0254 -2.0767 -0.0231
16014TIP3   OH269456   2.973   4.125  14.908  0.9023 -0.4185 -0.1732
16014TIP3    H169457   2.888   4.116  14.950  1.2634  1.1170  0.9788
16014TIP3    H269458   3.033   4.148  14.979  2.1179 -0.6396 -1.0869
16015TIP3   OH269459   1.870   3.766   0.128  1.0043 -0.2224  0.6354
16015TIP3    H169460   1.901   3.675   0.131  0.0374 -0.5729  0.2389
16015TIP3    H269461   1.856   3.789   0.219  1.4525 -0.3948  0.7546
16016TIP3   OH269462   0.298   0.615   5.725  0.6233 -0.0691 -0.0126
16016TIP3    H169463   0.296   0.655   5.812  0.9869  1.5838 -0.7324
16016TIP3    H269464   0.275   0.686   5.665 -1.6382 -1.6366 -1.1519
16017TIP3   OH269465   3.673   4.662  16.391  0.1226  0.1567 -0.4883
16017TIP3    H169466   3.749   4.632  16.441  1.7502  2.5341 -1.3708
16017TIP3    H269467   3.644   4.741  16.436  0.4763  1.3019 -2.1789
16018TIP3   OH269468   5.746   6.042  12.386 -0.3552 -0.2051 -0.0451
16018TIP3    H169469   5.791   6.106  12.331  1.6996 -1.6789 -0.2215
16018TIP3    H269470   5.814   5.978  12.408 -1.5901 -0.7480  2.5776
16019TIP3   OH269471   0.921   4.398   0.539 -0.4519  0.0604  0.3030
16019TIP3    H169472   0.990   4.343   0.504  2.1387  2.9276  0.4817
16019TIP3    H269473   0.929   4.392   0.634 -0.2311  0.6494  0.3241
16020TIP3   OH269474   5.129   4.603  14.968  0.0204  0.5837 -0.4080
16020TIP3    H169475   5.133   4.661  15.044 -1.2557  0.4336 -0.1984
16020TIP3    H269476   5.062   4.539  14.991 -0.9373  0.9693 -1.9385
16021TIP3   OH269477   5.649   5.799  11.929  0.0510 -0.2144  0.2438
16021TIP3    H169478   5.705   5.858  11.880 -2.3672  1.2576 -0.9499
16021TIP3    H269479   5.679   5.807  12.020  2.2836 -0.2158 -0.4420
16022TIP3   OH269480   3.026   1.328   5.704  0.0565  0.1974 -0.0356
16022TIP3    H169481   2.966   1.331   5.779 -0.7507  0.5039 -0.6773
16022TIP3    H269482   3.103   1.281   5.737 -0.7150 -0.6143  0.6794
16023TIP3   OH269483   0.245   5.180  13.499 -0.6794 -0.1661 -0.6025
16023TIP3    H169484   0.233   5.175  13.404  3.5747  1.5879 -1.4815
16023TIP3    H269485   0.329   5.137  13.515 -1.5894 -1.0601  2.5790
16024TIP3   OH269486   0.604   5.325  16.315  0.4669  0.5507  0.1383
16024TIP3    H169487   0.594   5.354  16.225 -1.1346 -1.1475 -0.3007
16024TIP3    H269488   0.553   5.244  16.320  0.2022  0.7926  2.6690
16025TIP3   OH269489   2.705   5.931   4.144 -0.0943 -0.5257  0.0243
16025TIP3    H169490   2.746   6.003   4.096  2.1621 -1.5926  0.2154
16025TIP3    H269491   2.779   5.878   4.176 -1.6564 -2.9988 -0.1954
16026TIP3   OH269492   3.186   5.611   2.616  0.1688  0.5851  0.1426
16026TIP3    H169493   3.275   5.605   2.581 -0.9509 -0.9102 -2.8678
16026TIP3    H269494   3.189   5.681   2.681  3.4475  0.7471 -0.0590
16027TIP3   OH269495   6.054   3.215  14.381  0.1716 -0.6276  0.3899
16027TIP3    H169496   6.050   3.228  14.287 -2.1508 -0.1842  0.4708
16027TIP3    H269497   6.081   3.300  14.416 -0.8870 -0.1786  0.1783
16028TIP3   OH269498   5.079   0.248  14.688  0.3678 -0.0649  0.2262
16028TIP3    H169499   5.165   0.256  14.728  0.2465  2.9263  0.0638
16028TIP3    H269500   5.079   0.311  14.615 -2.1530  0.5662  0.6585
16029TIP3   OH269501   6.498   1.696   0.018  0.3800 -1.0002  0.2894
16029TIP3    H169502   6.551   1.637  -0.036 -0.2949 -0.9033 -0.5020
16029TIP3    H269503   6.467   1.763  -0.043 -1.6886 -1.7553  0.4132
16030TIP3   OH269504   5.128   0.534   2.939 -0.0453 -0.1233  0.0923
16030TIP3    H169505   5.044   0.533   2.892 -0.2483  0.3668  0.4321
16030TIP3    H269506   5.105   0.562   3.028  0.4394 -0.2881  0.2701
16031TIP3   OH269507   6.104   4.191  12.290 -0.3770 -0.6746 -0.1601
16031TIP3    H169508   6.090   4.103  12.256  1.0068 -1.0449  0.1290
16031TIP3    H269509   6.160   4.233  12.225 -3.6621  1.1973 -1.9799
16032TIP3   OH269510   1.281   5.423   3.191 -0.4458 -0.4669  0.0173
16032TIP3    H169511   1.236   5.343   3.163  1.0198 -1.4051  0.2220
16032TIP3    H269512   1.326   5.398   3.271 -0.3739  0.7265  0.3693
16033TIP3   OH269513   6.059   3.655  13.146 -0.1170 -0.0655 -0.3743
16033TIP3    H169514   6.140   3.637  13.193 -0.8250 -1.7812  0.2658
16033TIP3    H269515   6.023   3.569  13.126 -0.7304  0.6286 -2.5412
16034TIP3   OH269516   5.959   0.331   5.043 -0.4563 -0.1131  0.2578
16034TIP3    H169517   6.018   0.397   5.079 -0.6417  0.3700 -0.3243
16034TIP3    H269518   5.989   0.249   5.083  0.1627  0.2267  0.5100
16035TIP3   OH269519   0.041   0.489   5.738  0.2960  0.3696  0.0022
16035TIP3    H169520   0.116   0.546   5.724  1.4201 -1.1795 -0.5985
16035TIP3    H269521   0.020   0.498   5.831  0.5199  1.6336 -0.0556
16036TIP3   OH269522   4.485   2.022  13.926 -0.2528  0.2195  1.1652
16036TIP3    H169523   4.486   2.095  13.988 -3.1666  2.3774 -1.0483
16036TIP3    H269524   4.395   1.990  13.927  0.2182 -1.2999 -0.1434
16037TIP3   OH269525   2.446   3.805   2.301 -0.2845 -0.8907 -0.5788
16037TIP3    H169526   2.499   3.789   2.379 -0.8027  1.2933  0.3148
16037TIP3    H269527   2.493   3.875   2.256 -0.9301 -0.9200 -1.2949
16038TIP3   OH269528   1.838   2.885  15.327 -0.1166 -0.3202 -0.1484
16038TIP3    H169529   1.873   2.797  15.320  0.8058  0.1061 -1.1861
16038TIP3    H269530   1.788   2.898  15.247 -0.6228 -0.0611  0.2077
16039TIP3   OH269531   1.445   5.280  11.244  0.3471 -0.1580 -0.1472
16039TIP3    H169532   1.525   5.309  11.288  1.1393  0.5628 -1.9589
16039TIP3    H269533   1.456   5.186  11.233 -0.0690 -0.4332  1.5296
16040TIP3   OH269534   3.043   1.526   0.533  0.0037  0.2246  0.0224
16040TIP3    H169535   2.984   1.596   0.504 -0.2538 -0.5980 -1.5353
16040TIP3    H269536   2.985   1.454   0.556  0.3484 -0.5400 -1.3777
16041TIP3   OH269537   4.309   4.399   5.569 -0.4798  0.3610 -0.1129
16041TIP3    H169538   4.361   4.392   5.649  0.4820 -0.1326 -0.7526
16041TIP3    H269539   4.247   4.469   5.586  2.1379  2.9043 -0.2422
16042TIP3   OH269540   3.099   3.859   0.031  0.5269 -0.4255 -0.1420
16042TIP3    H169541   3.101   3.795   0.103  0.0450  0.5448  0.7610
16042TIP3    H269542   3.089   3.806  -0.048 -1.9159 -1.3949  0.7318
16043TIP3   OH269543   6.648   1.611   4.121  0.2568 -0.1477  0.6317
16043TIP3    H169544   6.633   1.551   4.194 -1.3351  1.2602  1.5334
16043TIP3    H269545   6.666   1.554   4.047 -2.6132 -1.8698  1.0897
16044TIP3   OH269546   3.599   4.248   4.870  0.3218  0.1788  0.5807
16044TIP3    H169547   3.559   4.180   4.923 -1.3496  1.8644  1.5874
16044TIP3    H269548   3.531   4.314   4.859  1.6300  1.3735 -0.9905
16045TIP3   OH269549   2.144   5.720  11.245  0.1775  0.5610  0.1734
16045TIP3    H169550   2.192   5.735  11.163  0.3140 -1.7150 -0.2216
16045TIP3    H269551   2.098   5.802  11.260  0.6811  1.2886 -1.8227
16046TIP3   OH269552   4.932   2.593  10.703 -0.3455 -0.2950  0.1782
16046TIP3    H169553   4.869   2.523  10.724 -0.3736 -0.8887 -1.6989
16046TIP3    H269554   5.016   2.548  10.699 -0.0817  0.1384  0.7364
16047TIP3   OH269555   4.734   5.667  16.720  0.3462  0.5591 -0.3029
16047TIP3    H169556   4.730   5.592  16.780 -1.6898  0.0111 -1.0441
16047TIP3    H269557   4.743   5.627  16.634 -1.2384  1.1121 -0.7503
16048TIP3   OH269558   5.213   0.945  14.564 -0.0375  0.2383 -0.2933
16048TIP3    H169559   5.181   0.937  14.474  0.2294  0.2892 -0.3937
16048TIP3    H269560   5.164   0.878  14.613 -0.8864  0.8532 -0.2774
16049TIP3   OH269561   5.257   4.729  15.936 -0.8746 -0.0505 -0.5676
16049TIP3    H169562   5.246   4.784  15.858  3.0815 -1.3015 -2.3063
16049TIP3    H269563   5.250   4.639  15.902 -1.1269 -0.6193  0.9417
16050TIP3   OH269564   3.245   2.757  16.626 -0.0136  0.7611  0.1976
16050TIP3    H169565   3.165   2.809  16.634  0.5754  1.5949  0.9218
16050TIP3    H269566   3.312   2.820  16.597  0.5608  0.2488  0.3835
16051TIP3   OH269567   5.915   5.570   4.156  0.2111 -0.3361  0.0070
16051TIP3    H169568   5.914   5.542   4.064  0.1199 -4.1045  1.0154
16051TIP3    H269569   6.008   5.575   4.178  0.2211 -1.1480  0.1579
16052TIP3   OH269570   0.509   5.347  15.014 -0.1863 -0.6601 -1.0128
16052TIP3    H169571   0.553   5.300  14.944 -0.9496 -1.6471 -0.8480
16052TIP3    H269572   0.440   5.397  14.970  1.4180  1.3583 -1.3452
16053TIP3   OH269573   5.287   5.353   4.335 -0.5349 -0.3741 -0.3597
16053TIP3    H169574   5.239   5.308   4.266  1.3842 -0.5462 -1.6538
16053TIP3    H269575   5.283   5.446   4.310  1.6800 -0.5881 -1.8128
16054TIP3   OH269576   2.672   2.283   0.573 -0.2197  0.8400 -0.5931
16054TIP3    H169577   2.579   2.295   0.552 -0.2612  0.6286 -0.5353
16054TIP3    H269578   2.708   2.372   0.578 -0.3869  0.9173 -0.7604
16055TIP3   OH269579   6.228   1.721   4.250 -0.4973 -0.3001  0.7578
16055TIP3    H169580   6.290   1.750   4.184 -1.5426  1.4255  0.4588
16055TIP3    H269581   6.282   1.698   4.326  0.5292  1.4067  0.6035
16056TIP3   OH269582   5.037   2.191   4.048 -0.6499  0.4170  0.2884
16056TIP3    H169583   4.943   2.171   4.054 -0.6432  0.1157 -0.3942
16056TIP3    H269584   5.054   2.193   3.953  0.1302 -0.0200  0.4107
16057TIP3   OH269585   2.373   5.480  13.596  0.2092  0.5955 -0.1369
16057TIP3    H169586   2.430   5.412  13.632 -0.7625 -0.3945 -0.4141
16057TIP3    H269587   2.385   5.473  13.501 -0.9956 -0.1935 -0.2400
16058TIP3   OH269588   2.820   4.691  11.247  0.2381  0.1074 -0.0255
16058TIP3    H169589   2.829   4.690  11.152 -1.6695 -1.2236 -0.2440
16058TIP3    H269590   2.812   4.599  11.272  2.2331  0.3260  1.6285
16059TIP3   OH269591   6.716   6.658  15.112 -0.2078  0.1740 -0.0411
16059TIP3    H169592   6.716   6.746  15.074 -2.0005  0.3832  0.3512
16059TIP3    H269593   6.630   6.623  15.089  0.2455 -1.2426  0.3583
16060TIP3   OH269594   0.696   5.561   5.443  0.3476  0.1701  0.0663
16060TIP3    H169595   0.702   5.532   5.534  2.4913 -1.1423 -0.4320
16060TIP3    H269596   0.786   5.568   5.414 -0.2765 -0.5883 -2.2946
16061TIP3   OH269597   1.287   1.757   0.853  0.3157  0.1177  0.1500
16061TIP3    H169598   1.358   1.716   0.805  0.8390  0.6945  0.4177
16061TIP3    H269599   1.330   1.821   0.910 -0.4418  0.7583  0.0201
16062TIP3   OH269600   0.719   1.632  14.016  0.3346  0.2521  0.1457
16062TIP3    H169601   0.722   1.670  14.104  2.1780 -0.5705  0.4682
16062TIP3    H269602   0.810   1.615  13.994 -0.2731 -2.1903 -0.7654
16063TIP3   OH269603   6.505   1.097  13.096 -0.2489  0.0658  0.3354
16063TIP3    H169604   6.520   1.183  13.136 -0.0672  0.6695 -0.9824
16063TIP3    H269605   6.469   1.117  13.009  1.3405 -1.1274 -0.6437
16064TIP3   OH269606   6.758   3.119   0.285  0.2002 -0.5095  0.1912
16064TIP3    H169607   6.753   3.180   0.211  0.9525 -2.4073 -1.5322
16064TIP3    H269608   6.708   3.042   0.256  0.4590 -1.2810  1.6959
16065TIP3   OH269609   1.283   6.716  13.011 -0.8284  0.1213 -0.0383
16065TIP3    H169610   1.262   6.809  13.026 -0.3917  0.0673  0.9877
16065TIP3    H269611   1.379   6.713  13.011 -0.8204 -0.1410 -1.3905
16066TIP3   OH269612   6.576   4.150   0.217  0.8107  0.3890  0.0065
16066TIP3    H169613   6.559   4.086   0.147 -0.9326  0.6594  0.1359
16066TIP3    H269614   6.489   4.181   0.242  1.5983  3.0996 -0.2973
16067TIP3   OH269615   0.698   1.873   0.803 -0.0813  0.7235 -0.7829
16067TIP3    H169616   0.690   1.778   0.815 -2.4248  1.0241  0.6856
16067TIP3    H269617   0.792   1.890   0.810  0.1897 -1.1697  1.9972
16068TIP3   OH269618   2.544   6.415   0.084  0.1367  0.6022 -0.5288
16068TIP3    H169619   2.547   6.322   0.062  0.5801  0.8179 -1.4153
16068TIP3    H269620   2.509   6.458   0.006  2.1336  1.4349 -1.0265
16069TIP3   OH269621   5.435   0.862  11.567 -0.2895 -0.0154  0.9500
16069TIP3    H169622   5.526   0.852  11.596  0.6417 -0.4866 -1.8116
16069TIP3    H269623   5.431   0.950  11.531 -1.0273  0.1048  1.3098
16070TIP3   OH269624   5.135   1.997   1.709  0.3024 -0.2088  0.1854
16070TIP3    H169625   5.046   2.032   1.712  0.0317 -0.7748 -0.8301
16070TIP3    H269626   5.166   2.002   1.799 -0.8961 -0.3779  0.6197
16071TIP3   OH269627   3.795   5.273   2.391 -0.0151  0.3526 -0.6079
16071TIP3    H169628   3.886   5.251   2.374  0.2909  1.5476 -0.5482
16071TIP3    H269629   3.792   5.292   2.485 -0.7695 -1.7101 -0.1445
16072TIP3   OH269630   5.076   5.388  14.193 -0.3766  0.4457 -0.0062
16072TIP3    H169631   5.171   5.395  14.190 -0.4710  2.8414  0.6899
16072TIP3    H269632   5.047   5.425  14.110 -0.7238  0.6913  0.2213
16073TIP3   OH269633   1.776   2.170  13.981 -0.3595  0.0948 -0.0308
16073TIP3    H169634   1.712   2.237  13.959 -0.8049 -0.4870 -0.5618
16073TIP3    H269635   1.750   2.094  13.928 -1.3663 -1.3370  2.3365
16074TIP3   OH269636   4.615   2.668  13.897 -0.5702 -0.1925 -0.4230
16074TIP3    H169637   4.711   2.667  13.893 -0.5153 -0.4552  0.6642
16074TIP3    H269638   4.587   2.673  13.806  0.4764 -0.3254 -0.7626
16075TIP3   OH269639   6.503   4.944   3.250  0.4407  0.2526  0.1832
16075TIP3    H169640   6.590   4.903   3.251 -0.1609 -1.0824 -0.4829
16075TIP3    H269641   6.521   5.038   3.254  1.9257  0.0072 -0.1735
16076TIP3   OH269642   0.143   6.393   2.326 -0.1270  0.1981  0.8055
16076TIP3    H169643   0.123   6.486   2.338  1.9099  0.5138  2.4245
16076TIP3    H269644   0.197   6.390   2.247  0.2713  0.4901  1.0629
16077TIP3   OH269645   0.359   5.114   6.792  0.0434 -1.1319 -0.3123
16077TIP3    H169646   0.291   5.149   6.735  0.1226 -1.1281 -0.4054
16077TIP3    H269647   0.387   5.190   6.844 -0.2941 -1.2198  0.0008
16078TIP3   OH269648   0.804   1.825   4.344  0.2674  0.6000  0.3102
16078TIP3    H169649   0.742   1.753   4.359  0.9084 -0.1944 -0.7003
16078TIP3    H269650   0.799   1.878   4.423 -2.6896  1.3433 -0.2432
16079TIP3   OH269651   0.047   1.790  15.535  0.4425  0.5543 -0.0532
16079TIP3    H169652  -0.013   1.770  15.463  1.3173 -0.0209 -0.6366
16079TIP3    H269653   0.076   1.880  15.518  0.0588  0.6891  0.0039
16080TIP3   OH269654   4.919   6.772   0.523  0.3227  0.2621  0.1049
16080TIP3    H169655   4.965   6.723   0.455  0.3582  0.8551 -0.3108
16080TIP3    H269656   4.989   6.815   0.573  0.4054 -1.5427  1.6235
16081TIP3   OH269657   2.525   5.723   0.365  0.6351 -1.0744 -0.7165
16081TIP3    H169658   2.518   5.631   0.392 -0.2476 -0.6492  0.6698
16081TIP3    H269659   2.435   5.747   0.343  1.0901 -0.9167 -2.4882
16082TIP3   OH269660   0.650   4.534  16.329  0.3226 -0.1750  0.4067
16082TIP3    H169661   0.587   4.594  16.368 -1.1923 -0.5410 -1.3027
16082TIP3    H269662   0.686   4.485  16.403  0.1546  1.4651  1.6264
16083TIP3   OH269663   0.826   4.199   4.174 -0.0677  0.0429 -0.1946
16083TIP3    H169664   0.756   4.259   4.200 -0.4174 -0.5519  0.2849
16083TIP3    H269665   0.793   4.155   4.096 -1.3572 -2.0739  1.4544
16084TIP3   OH269666   6.614   3.418   4.930  0.5361  0.0947 -0.4860
16084TIP3    H169667   6.706   3.433   4.909  0.3654  2.6684  0.2465
16084TIP3    H269668   6.593   3.486   4.994 -2.0593  0.0016 -1.1481
16085TIP3   OH269669   4.718   3.899   4.810  0.4652  0.2299  0.8090
16085TIP3    H169670   4.676   3.934   4.888  1.6721  1.4911  0.9294
16085TIP3    H269671   4.812   3.913   4.824  0.9609 -2.2708  0.4497
16086TIP3   OH269672   6.014   3.767   3.618  0.1256 -0.7374 -0.0775
16086TIP3    H169673   6.006   3.678   3.650 -0.1433 -0.5783  0.2971
16086TIP3    H269674   5.935   3.811   3.648  0.4675 -0.2534  0.1181
16087TIP3   OH269675   4.721   0.343   2.802  0.1617  0.5055 -0.1669
16087TIP3    H169676   4.805   0.329   2.757  0.3976 -1.2152  0.7352
16087TIP3    H269677   4.693   0.256   2.828  0.5798  1.4020  4.0078
16088TIP3   OH269678   5.865   0.078  13.586  0.4684  0.1341 -0.3254
16088TIP3    H169679   5.831   0.168  13.584 -1.4764 -0.5463 -0.2762
16088TIP3    H269680   5.922   0.076  13.662  0.5538  1.3374 -0.3329
16089TIP3   OH269681   1.871   3.120  11.669  0.5705  0.4439  0.1304
16089TIP3    H169682   1.818   3.195  11.643  0.4659  0.2033 -0.3653
16089TIP3    H269683   1.894   3.137  11.760 -1.9115 -0.3000  1.0059
16090TIP3   OH269684   3.801   0.278   3.680 -0.2908 -0.1335  0.0988
16090TIP3    H169685   3.733   0.249   3.740 -1.1782  0.3305 -0.6584
16090TIP3    H269686   3.841   0.198   3.647 -1.4592 -0.4660 -0.5556
16091TIP3   OH269687   3.873   5.594   0.744 -0.0783 -0.1914  0.1652
16091TIP3    H169688   3.874   5.679   0.701 -2.1786  0.2579  0.8912
16091TIP3    H269689   3.873   5.531   0.671 -1.0580  0.4920 -0.4508
16092TIP3   OH269690   3.705   4.492  11.868  0.5608  0.0030 -0.3400
16092TIP3    H169691   3.671   4.535  11.947 -0.1026 -0.1636 -0.5295
16092TIP3    H269692   3.735   4.407  11.899  0.5210  0.0289 -0.2270
16093TIP3   OH269693   3.725   4.315  14.791 -0.3656 -0.4162  0.3577
16093TIP3    H169694   3.744   4.381  14.858 -0.0423 -1.3252  1.1711
16093TIP3    H269695   3.666   4.253  14.833 -0.5102 -0.7635 -0.3412
16094TIP3   OH269696   0.085   6.734  16.237  0.0818  0.2575  0.4669
16094TIP3    H169697   0.162   6.754  16.184 -0.2008 -0.5556 -0.2894
16094TIP3    H269698   0.013   6.730  16.173 -0.0053 -2.3349  0.6290
16095TIP3   OH269699   0.724   5.375   4.145  0.1450 -0.1722  0.6871
16095TIP3    H169700   0.732   5.284   4.174  0.7710 -0.3949 -0.1391
16095TIP3    H269701   0.733   5.370   4.049  0.6719  0.8015  0.6783
16096TIP3   OH269702   4.616   4.250   4.856  0.4305 -0.3686  0.2589
16096TIP3    H169703   4.681   4.234   4.788 -0.2098 -2.3138  0.0178
16096TIP3    H269704   4.538   4.205   4.825 -1.1384  2.0499  0.4510
16097TIP3   OH269705   1.875   2.847  14.731 -0.1603  0.3213  0.4143
16097TIP3    H169706   1.894   2.801  14.813  0.7546 -0.2350 -0.1003
16097TIP3    H269707   1.781   2.863  14.734 -0.3686 -0.9300  0.9388
16098TIP3   OH269708   4.658   1.225   0.648  0.1349  0.5754 -0.2188
16098TIP3    H169709   4.714   1.182   0.582  0.7372  1.6237 -0.4222
16098TIP3    H269710   4.699   1.203   0.732 -1.0303 -1.3456 -0.0944
16099TIP3   OH269711   2.166   5.440  15.652  0.0529  0.1027 -0.1129
16099TIP3    H169712   2.166   5.352  15.688  2.1712  0.9173  2.2054
16099TIP3    H269713   2.164   5.428  15.557 -2.1864 -2.2910  0.1396
16100TIP3   OH269714   2.251   5.788  14.450  0.4270 -0.0662 -0.0520
16100TIP3    H169715   2.345   5.777  14.433  0.2946  0.4905 -1.1765
16100TIP3    H269716   2.231   5.720  14.514  1.8044  0.4403  0.9830
16101TIP3   OH269717   4.380   5.530  15.612 -0.6008 -0.0394  0.1175
16101TIP3    H169718   4.367   5.446  15.567  0.0111 -0.2608  0.3463
16101TIP3    H269719   4.434   5.581  15.552 -0.2622 -0.1245  0.3484
16102TIP3   OH269720   1.790   3.352   5.354 -0.1202  0.0994  0.0832
16102TIP3    H169721   1.843   3.420   5.395  0.8868 -1.0772  0.8069
16102TIP3    H269722   1.721   3.400   5.308 -1.5025  1.5197  3.3330
16103TIP3   OH269723   0.357   1.095   4.233 -0.6869 -0.3461  0.7542
16103TIP3    H169724   0.359   1.073   4.140  1.4374 -0.1017  0.6953
16103TIP3    H269725   0.301   1.172   4.238 -2.3617 -1.4615 -0.0276
16104TIP3   OH269726   0.967   3.871   3.464  0.7010  0.2481  0.6168
16104TIP3    H169727   0.896   3.810   3.481  0.7366 -0.2410 -0.8733
16104TIP3    H269728   1.038   3.817   3.429  0.9660  1.0433 -0.1253
16105TIP3   OH269729   4.587   3.572   4.539 -0.5002  0.5735  0.0896
16105TIP3    H169730   4.612   3.545   4.628 -1.3419 -1.5455 -0.2624
16105TIP3    H269731   4.566   3.491   4.494 -0.1766  1.6173 -2.0661
16106TIP3   OH269732   2.689   2.315  16.189  0.0497  0.2287 -0.7200
16106TIP3    H169733   2.594   2.308  16.196 -0.0325  0.6421 -1.3427
16106TIP3    H269734   2.708   2.295  16.097  0.4487  1.1707 -0.8583
16107TIP3   OH269735   1.122   4.780   1.213 -0.0954 -0.1579  0.0093
16107TIP3    H169736   1.140   4.874   1.203 -0.7068  0.1849  1.8333
16107TIP3    H269737   1.170   4.739   1.141  0.0203  1.5644 -0.9475
16108TIP3   OH269738   0.455   5.549  13.818 -0.1437 -0.7196 -0.1345
16108TIP3    H169739   0.468   5.582  13.907 -0.7046  0.1984 -0.3817
16108TIP3    H269740   0.462   5.454  13.827 -1.4122 -0.7343  1.1122
16109TIP3   OH269741   1.289   0.393  12.579 -0.5169  0.3715 -0.2799
16109TIP3    H169742   1.333   0.419  12.660 -1.0658 -3.0907  1.3141
16109TIP3    H269743   1.196   0.392  12.602 -1.0022  2.0034 -1.8892
16110TIP3   OH269744   2.227   6.484  16.991  0.6958  0.4567  0.4012
16110TIP3    H169745   2.256   6.559  16.939 -0.0088  0.9892  0.7563
16110TIP3    H269746   2.134   6.500  17.007 -0.1875 -1.8219 -1.7571
16111TIP3   OH269747   0.460   6.681   5.099 -0.3065 -0.0963  0.1348
16111TIP3    H169748   0.449   6.760   5.047  0.8072  0.9427  1.4068
16111TIP3    H269749   0.534   6.635   5.058  0.2147  0.4411  0.4641
16112TIP3   OH269750   5.593   0.919   1.959 -0.0216 -0.3628 -0.0006
16112TIP3    H169751   5.659   0.957   2.017  1.6108 -0.6341 -1.5828
16112TIP3    H269752   5.583   0.983   1.889  0.0868 -1.2192 -0.8251
16113TIP3   OH269753   2.579   4.875  11.389  0.4043 -1.1359  0.2323
16113TIP3    H169754   2.573   4.967  11.415  0.1865 -0.6462 -1.4588
16113TIP3    H269755   2.665   4.867  11.349 -0.1448 -1.2711 -0.9742
16114TIP3   OH269756   4.122   3.329  17.180  0.3989  0.0131  0.7307
16114TIP3    H169757   4.188   3.278  17.134  1.1209  0.7986  0.8595
16114TIP3    H269758   4.142   3.317  17.272 -0.3730 -0.6842  0.8156
16115TIP3   OH269759   1.595   1.071   3.604  0.1625  0.1990  0.2187
16115TIP3    H169760   1.518   1.052   3.658  1.0410 -0.1443  1.3779
16115TIP3    H269761   1.594   1.166   3.594  0.4577  0.3597  1.5712
16116TIP3   OH269762   0.361   0.501  16.047  0.1997 -0.1172  0.1655
16116TIP3    H169763   0.325   0.415  16.025  0.2437 -0.1236  0.1167
16116TIP3    H269764   0.409   0.486  16.128 -2.3545  0.5152  1.9008
16117TIP3   OH269765   5.306   1.038  12.390 -0.0609  0.7546 -0.3566
16117TIP3    H169766   5.398   1.030  12.418  0.5884  2.6963 -1.6870
16117TIP3    H269767   5.293   0.965  12.330  0.7949  0.7166 -0.5136
16118TIP3   OH269768   0.631   2.143   1.269 -0.2607 -0.7198  0.8779
16118TIP3    H169769   0.643   2.105   1.182 -0.7339 -0.7607  0.8282
16118TIP3    H269770   0.583   2.077   1.318  0.2155 -0.7975  1.2504
16119TIP3   OH269771   1.251   3.556  13.828 -0.9638 -0.0743  0.5332
16119TIP3    H169772   1.268   3.500  13.752 -0.7086  0.2469  0.3507
16119TIP3    H269773   1.173   3.518  13.869 -0.7051 -0.6517  0.4972
16120TIP3   OH269774   4.689   5.412  15.628 -0.5117  0.3415 -0.1174
16120TIP3    H169775   4.769   5.447  15.668  0.1868 -0.8156 -0.4795
16120TIP3    H269776   4.648   5.362  15.699 -1.0558  1.1345  0.1397
16121TIP3   OH269777   5.469   6.757  15.328 -0.0341  0.6070 -0.2338
16121TIP3    H169778   5.434   6.815  15.396  0.4267  2.1119 -1.2246
16121TIP3    H269779   5.563   6.755  15.344 -0.2044 -1.3917  0.8838
16122TIP3   OH269780   2.238   0.147  11.251  0.4723 -0.4320  0.0430
16122TIP3    H169781   2.224   0.152  11.346 -1.2193  1.2412 -0.2393
16122TIP3    H269782   2.235   0.238  11.221  0.1503 -0.9899 -1.7361
16123TIP3   OH269783   3.667   2.252  14.192 -0.0612 -0.0203 -0.6675
16123TIP3    H169784   3.732   2.264  14.260 -1.0155  0.0325  0.2602
16123TIP3    H269785   3.691   2.316  14.125  0.1036  0.8985  0.2425
16124TIP3   OH269786   1.295   4.276   5.347  0.2811  0.8026 -0.3372
16124TIP3    H169787   1.342   4.317   5.275 -1.6141  1.1182 -1.4852
16124TIP3    H269788   1.277   4.187   5.316  1.7229  0.0488  0.8793
16125TIP3   OH269789   2.449   3.529  16.401  0.2861 -0.2623 -0.2488
16125TIP3    H169790   2.503   3.553  16.477  0.2564  1.4726 -0.7289
16125TIP3    H269791   2.507   3.540  16.326  0.2905 -1.8915 -0.5103
16126TIP3   OH269792   1.912   6.094   1.668  1.1376 -0.1216 -0.2518
16126TIP3    H169793   2.000   6.059   1.684  0.9708 -0.0279  1.0110
16126TIP3    H269794   1.861   6.019   1.638  1.1320 -0.6636  1.0669
16127TIP3   OH269795   2.163   1.052   1.370 -0.9197  0.1169  0.9071
16127TIP3    H169796   2.086   1.108   1.377 -1.7947 -1.0335  0.6290
16127TIP3    H269797   2.211   1.087   1.295 -0.0017  2.1868  2.3416
16128TIP3   OH269798   2.264   5.839   4.333  0.5055  0.2486  0.1964
16128TIP3    H169799   2.254   5.778   4.407 -2.1644 -0.8145 -0.8788
16128TIP3    H269800   2.310   5.788   4.267 -0.8075 -0.3189 -0.3235
16129TIP3   OH269801   3.899   3.550   2.128  0.2154 -0.5855  0.1352
16129TIP3    H169802   3.896   3.463   2.087 -1.3437  0.1764 -1.4764
16129TIP3    H269803   3.814   3.559   2.172 -0.7112  1.0362 -1.8222
16130TIP3   OH269804   3.960   6.663  15.791  0.2527 -0.2237 -0.2835
16130TIP3    H169805   3.977   6.750  15.755 -1.8415  0.8703  1.1482
16130TIP3    H269806   3.966   6.604  15.716  3.8465  0.7580 -0.9545
16131TIP3   OH269807   2.279   2.613  11.639 -0.7200  0.6262 -0.1331
16131TIP3    H169808   2.229   2.664  11.576 -1.4701 -0.5404 -0.5001
16131TIP3    H269809   2.370   2.639  11.625 -0.8546  0.2508 -1.8246
16132TIP3   OH269810   5.804   4.970  16.082 -0.1819  0.0332 -0.4632
16132TIP3    H169811   5.741   5.041  16.080 -0.9946 -0.6251  0.6743
16132TIP3    H269812   5.887   5.012  16.106 -0.8779  0.4873  1.3051
16133TIP3   OH269813   5.666   2.555   4.628 -0.4799  0.5117  0.3899
16133TIP3    H169814   5.692   2.646   4.620  0.6297  0.1133 -0.9531
16133TIP3    H269815   5.586   2.548   4.575  0.9450  0.1845 -1.8868
16134TIP3   OH269816   5.472   1.300   4.354 -0.3196 -0.2224 -0.0034
16134TIP3    H169817   5.443   1.343   4.274 -0.1421 -0.1203 -0.0147
16134TIP3    H269818   5.568   1.303   4.350 -0.2818  1.4297  1.0717
16135TIP3   OH269819   2.489   2.155  14.864  0.3270 -0.7255  0.2803
16135TIP3    H169820   2.519   2.161  14.955  1.5765 -3.0769  0.0856
16135TIP3    H269821   2.406   2.107  14.869  0.8054 -1.5885  0.1429
16136TIP3   OH269822   5.188   0.628  15.689  0.3583  0.2261  0.2476
16136TIP3    H169823   5.104   0.595  15.721  0.3923  0.9090  1.0676
16136TIP3    H269824   5.253   0.573  15.734  0.4013  1.0833  1.2774
16137TIP3   OH269825   2.702   1.193  16.823 -0.2042  0.0994 -0.4425
16137TIP3    H169826   2.672   1.145  16.900  0.6920 -2.3228 -1.4987
16137TIP3    H269827   2.756   1.263  16.858  1.1543 -1.6462  1.1923
16138TIP3   OH269828   2.793   5.615   2.943  0.2022 -0.5925  0.1855
16138TIP3    H169829   2.713   5.566   2.922 -0.3148  0.0056  0.7130
16138TIP3    H269830   2.786   5.632   3.037  0.6581 -0.0125  0.1139
16139TIP3   OH269831   1.697   3.084   5.501 -0.8025  0.6413  0.4800
16139TIP3    H169832   1.711   3.099   5.594 -3.1113  1.8267  0.6910
16139TIP3    H269833   1.747   3.153   5.458  0.7884 -0.2887  0.7661
16140TIP3   OH269834   4.350   6.771   5.709 -0.0001  0.0569 -0.2305
16140TIP3    H169835   4.381   6.861   5.710 -0.9860  0.4066 -0.0258
16140TIP3    H269836   4.294   6.765   5.632 -0.7435 -0.0926  0.3152
16141TIP3   OH269837   6.201   1.249   5.984 -0.5428 -0.4816  1.0099
16141TIP3    H169838   6.116   1.229   5.945 -0.3969  1.7223 -0.6196
16141TIP3    H269839   6.265   1.209   5.925 -0.3999 -0.6268  1.2599
16142TIP3   OH269840   4.358   0.157   5.361 -0.0425  0.5201 -0.0906
16142TIP3    H169841   4.275   0.175   5.404  0.5157  2.5640  0.2522
16142TIP3    H269842   4.336   0.147   5.268 -0.7378  0.4003  0.0849
16143TIP3   OH269843   2.733   3.752   6.018 -0.0928  0.2334 -0.0893
16143TIP3    H169844   2.807   3.792   6.063  0.3175 -0.1767 -0.3917
16143TIP3    H269845   2.744   3.777   5.926 -0.7662  0.8290 -0.0081
16144TIP3   OH269846   3.125   2.779  17.084 -0.4567  0.2039 -0.0531
16144TIP3    H169847   3.156   2.756  17.171  0.8869 -0.9559 -0.7975
16144TIP3    H269848   3.086   2.699  17.050  0.8465  0.0393 -1.2540
16145TIP3   OH269849   2.214   1.093  17.237  0.0073  0.5155  0.6814
16145TIP3    H169850   2.217   1.070  17.330 -0.2036 -0.5508  0.4381
16145TIP3    H269851   2.240   1.013  17.192 -0.4803  0.8460 -0.2015
16146TIP3   OH269852   5.497   5.336   2.977  0.3507 -0.7204 -0.0894
16146TIP3    H169853   5.529   5.401   2.914  0.8506 -1.2041 -0.3423
16146TIP3    H269854   5.571   5.321   3.036 -0.2650  0.0844  0.9202
16147TIP3   OH269855   5.128   1.069  14.164  0.0928  0.3713  0.3556
16147TIP3    H169856   5.040   1.086  14.198  0.7735 -0.0827  2.4406
16147TIP3    H269857   5.137   1.130  14.091 -2.2182 -0.0978 -0.4277
16148TIP3   OH269858   3.298   5.455  11.634  0.4529 -0.4455  0.3898
16148TIP3    H169859   3.319   5.484  11.722 -2.0320  2.9808  0.0316
16148TIP3    H269860   3.382   5.456  11.588  1.2179  1.7493  1.7056
16149TIP3   OH269861   0.156   2.937  13.521  0.3971 -0.6289  0.0581
16149TIP3    H169862   0.118   3.002  13.463 -1.6210 -0.6681  1.2475
16149TIP3    H269863   0.086   2.874  13.536  0.4070 -0.0225  3.3781
16150TIP3   OH269864   1.164   1.202   4.120 -0.7633  0.5053  0.4623
16150TIP3    H169865   1.249   1.217   4.162 -0.4093  0.7081 -0.3115
16150TIP3    H269866   1.158   1.107   4.109  0.4519  0.6228 -1.6541
16151TIP3   OH269867   0.431   0.647  15.389  0.1576  0.3269 -0.0546
16151TIP3    H169868   0.435   0.706  15.314  0.1311  0.8064  0.3213
16151TIP3    H269869   0.365   0.582  15.364  0.0112  0.5903 -0.3646
16152TIP3   OH269870   3.771   2.394   5.928  0.5352 -0.6393 -0.1159
16152TIP3    H169871   3.761   2.384   5.833 -0.0746 -2.7527  0.1263
16152TIP3    H269872   3.851   2.347   5.950  0.4774 -0.4790  0.4683
16153TIP3   OH269873   3.633   0.326   5.262 -0.5240  0.9175  0.2649
16153TIP3    H169874   3.701   0.356   5.202  0.6465 -2.4151 -0.3283
16153TIP3    H269875   3.681   0.289   5.337 -1.8057  1.1691  1.2565
16154TIP3   OH269876   4.537   0.032   4.917  0.0330 -0.1091  0.3386
16154TIP3    H169877   4.628   0.030   4.946 -0.4039 -1.9089  1.8014
16154TIP3    H269878   4.527  -0.048   4.865  0.0077  1.5703 -2.4180
16155TIP3   OH269879   0.987   5.033  11.540  0.2075 -0.4849  0.2669
16155TIP3    H169880   1.006   4.952  11.587 -1.2543 -0.3122  1.2322
16155TIP3    H269881   0.918   5.075  11.592 -2.1731 -0.7183 -2.4311
16156TIP3   OH269882   3.394   4.531   1.305 -0.5207  0.6105  0.0495
16156TIP3    H169883   3.477   4.537   1.258 -1.4279  1.5673 -1.5256
16156TIP3    H269884   3.419   4.528   1.397  1.2635  0.6903 -0.3950
16157TIP3   OH269885   3.130   4.856  15.599 -0.0503 -0.7755  0.0086
16157TIP3    H169886   3.064   4.909  15.554  1.9080  0.6638 -1.3269
16157TIP3    H269887   3.153   4.907  15.677 -0.5039 -1.2966  0.4970
16158TIP3   OH269888   5.649   1.505   0.047  0.1405 -0.2296  0.4608
16158TIP3    H169889   5.598   1.581   0.075  2.5641  1.0664  1.7084
16158TIP3    H269890   5.697   1.535  -0.030  1.4623 -0.2866  1.2285
16159TIP3   OH269891   4.972   1.686   1.993  0.0128  0.2589 -0.8466
16159TIP3    H169892   4.969   1.716   1.902  1.2541  1.0703 -0.6424
16159TIP3    H269893   5.057   1.641   2.000 -0.8585 -1.4272 -0.5560
16160TIP3   OH269894   4.345   2.467  16.335 -0.0484 -0.4074 -0.1011
16160TIP3    H169895   4.356   2.532  16.265 -2.0894 -1.6965 -1.7612
16160TIP3    H269896   4.331   2.520  16.414 -0.4489  1.1840 -1.1687
16161TIP3   OH269897   6.145   6.097   2.801 -0.5859 -0.0672 -0.3586
16161TIP3    H169898   6.165   6.116   2.710 -0.9968  0.9012 -0.2577
16161TIP3    H269899   6.228   6.068   2.838 -0.2024  0.4228 -0.8196
16162TIP3   OH269900   4.849   4.363   5.746  0.4642 -0.3863  0.0392
16162TIP3    H169901   4.943   4.376   5.755  0.5475 -0.7865 -0.2014
16162TIP3    H269902   4.812   4.396   5.827  0.6412  1.3905 -0.5564
16163TIP3   OH269903   6.385   2.270  13.047  0.3916  0.3841  0.0376
16163TIP3    H169904   6.469   2.281  13.092 -0.7313  0.4350  2.2649
16163TIP3    H269905   6.321   2.305  13.108 -1.3034 -0.0119 -1.4475
16164TIP3   OH269906   4.911   4.519  15.706  0.0750 -0.4042  0.1084
16164TIP3    H169907   4.836   4.463  15.726  0.8553 -1.3063  0.6339
16164TIP3    H269908   4.880   4.578  15.637 -0.8954 -1.2412 -0.1950
16165TIP3   OH269909   5.425   5.717   4.756 -0.3821 -0.0681 -0.2428
16165TIP3    H169910   5.451   5.726   4.664 -1.8834  1.2876 -0.5790
16165TIP3    H269911   5.403   5.806   4.783 -2.0665 -0.7563  0.7714
16166TIP3   OH269912   4.719   1.342  15.136 -0.4132 -0.2796  0.0549
16166TIP3    H169913   4.660   1.417  15.127 -0.7022 -0.5620 -0.5022
16166TIP3    H269914   4.695   1.303  15.220 -0.1452  0.3434  0.4292
16167TIP3   OH269915   3.443   0.156  17.284 -0.0410  0.3103  0.7080
16167TIP3    H169916   3.490   0.237  17.303  0.7722 -0.1401  0.6692
16167TIP3    H269917   3.508   0.087  17.297  0.1196 -0.1613 -1.9980
16168TIP3   OH269918   2.701   1.588   3.326  0.2360 -0.1606 -0.2250
16168TIP3    H169919   2.709   1.517   3.263 -2.3706  0.0243 -0.9041
16168TIP3    H269920   2.709   1.668   3.274 -2.6668  0.0005 -0.5797
16169TIP3   OH269921   2.843   6.243   5.735 -0.5437 -0.0459  0.2742
16169TIP3    H169922   2.876   6.164   5.692  1.1821 -0.7005  2.5454
16169TIP3    H269923   2.756   6.218   5.766 -0.9288 -0.2713 -0.9424
16170TIP3   OH269924   2.535   6.210  11.930 -0.1799  0.5048  0.0064
16170TIP3    H169925   2.440   6.201  11.922 -0.1315 -0.3240  0.2683
16170TIP3    H269926   2.570   6.169  11.851 -0.0030 -0.3111  0.4961
16171TIP3   OH269927   5.592   6.258   4.854  0.5744  0.6983 -0.2756
16171TIP3    H169928   5.564   6.256   4.762 -0.4494  0.5366  0.0278
16171TIP3    H269929   5.662   6.323   4.857  1.4281 -0.1370 -1.3945
16172TIP3   OH269930   0.962   4.451   1.646 -0.1599  0.5426  0.2654
16172TIP3    H169931   0.886   4.422   1.696 -1.8049 -0.2259 -2.4190
16172TIP3    H269932   0.973   4.543   1.669 -0.3831  0.0773  2.4390
16173TIP3   OH269933   3.887   0.511  13.182  0.0213  0.3720 -0.0798
16173TIP3    H169934   3.979   0.538  13.178  0.4729 -0.9563  0.7659
16173TIP3    H269935   3.838   0.594  13.181  1.1739  1.0800 -1.3274
16174TIP3   OH269936   1.745   0.408   1.128  0.5600 -0.1650  0.1817
16174TIP3    H169937   1.743   0.329   1.183 -0.9387 -0.2745  0.0096
16174TIP3    H269938   1.741   0.374   1.038  1.8524  0.0573  0.0238
16175TIP3   OH269939   5.737   0.398   2.893 -0.0720  0.1358 -0.1071
16175TIP3    H169940   5.650   0.370   2.865 -0.4016  0.2949  0.7140
16175TIP3    H269941   5.740   0.492   2.874 -0.4435  0.3260  0.7106
16176TIP3   OH269942   5.648   5.606   3.398 -0.4678 -0.4784 -0.1922
16176TIP3    H169943   5.642   5.701   3.382  0.2393 -0.3677  0.1841
16176TIP3    H269944   5.566   5.571   3.362 -1.3136  0.4305  0.7789
16177TIP3   OH269945   1.472   2.819  14.470 -0.2886  0.8637  0.0821
16177TIP3    H169946   1.399   2.873  14.439 -0.2017  2.1769  1.9989
16177TIP3    H269947   1.551   2.864  14.440 -0.2354  0.6987 -0.0302
16178TIP3   OH269948   0.317   0.637   0.228  0.3323 -0.4482  0.0681
16178TIP3    H169949   0.240   0.607   0.180 -0.1494 -0.2386  0.6960
16178TIP3    H269950   0.282   0.693   0.297  0.9882 -0.9324  0.8107
16179TIP3   OH269951   4.492   5.850  13.325 -0.4750  0.4020 -0.4732
16179TIP3    H169952   4.585   5.829  13.311 -0.7583 -0.5982 -1.0225
16179TIP3    H269953   4.447   5.768  13.305 -1.6378  1.4131 -2.2543
16180TIP3   OH269954   6.446   0.237   4.104  0.2468  0.6141  0.2194
16180TIP3    H169955   6.423   0.297   4.034 -2.0829 -1.5617 -1.0779
16180TIP3    H269956   6.409   0.276   4.183 -2.5844  0.2991 -0.8388
16181TIP3   OH269957   0.795   5.013   3.623  0.7190 -0.1898  0.1803
16181TIP3    H169958   0.821   5.095   3.581 -1.0122 -0.1996 -1.0078
16181TIP3    H269959   0.802   4.947   3.554 -0.8502 -0.4661  0.2505
16182TIP3   OH269960   6.604   3.231   3.647  0.7731 -0.7273  0.1798
16182TIP3    H169961   6.521   3.230   3.600  0.5153  1.6893  0.4474
16182TIP3    H269962   6.587   3.183   3.728 -0.8638  0.9808  0.9182
16183TIP3   OH269963   1.994   3.057   1.005 -0.1150  0.0825  0.1442
16183TIP3    H169964   1.957   3.084   1.089  1.8345  1.4274  0.6535
16183TIP3    H269965   2.015   3.139   0.960 -0.6023 -0.6146 -1.4490
16184TIP3   OH269966   1.846   4.841  12.429 -0.0776 -0.1146 -0.0749
16184TIP3    H169967   1.865   4.756  12.389  3.5071  0.8118 -0.7496
16184TIP3    H269968   1.833   4.822  12.522  0.2733 -1.4590 -0.2818
16185TIP3   OH269969   4.023   2.132   4.473  0.0287 -0.1692  0.2659
16185TIP3    H169970   4.099   2.083   4.442  0.1737 -0.8290  1.6200
16185TIP3    H269971   4.002   2.192   4.401  2.4899  0.7991  0.2663
16186TIP3   OH269972   1.457   2.602  14.958  0.6784 -0.4369 -0.3914
16186TIP3    H169973   1.549   2.610  14.936  0.6839  1.6540  0.2090
16186TIP3    H269974   1.413   2.584  14.875  1.5768 -1.3403 -0.6928
16187TIP3   OH269975   0.887   5.474   6.103 -0.5743 -0.0645  0.4170
16187TIP3    H169976   0.978   5.486   6.075 -0.5159  0.0046  0.6344
16187TIP3    H269977   0.892   5.464   6.198 -0.3754 -4.0575  0.1439
16188TIP3   OH269978   1.115   5.376   2.391  0.2533  0.6109 -0.1599
16188TIP3    H169979   1.204   5.402   2.416  0.3498  0.4176 -0.2960
16188TIP3    H269980   1.100   5.419   2.307  0.6228 -0.2103 -0.6539
16189TIP3   OH269981   2.560   5.821  14.127 -0.0924 -0.2306 -0.7533
16189TIP3    H169982   2.543   5.741  14.177  1.0488  1.4985  2.7567
16189TIP3    H269983   2.478   5.871  14.134  0.1277  0.0888 -0.4169
16190TIP3   OH269984   5.277   1.090  10.740  0.0395 -0.3933 -0.0727
16190TIP3    H169985   5.281   1.113  10.833 -3.0281 -0.3481  0.1427
16190TIP3    H269986   5.313   1.167  10.695  1.1797 -0.2442  1.0279
16191TIP3   OH269987   0.492   1.528   3.754  0.2193  0.3853  0.5072
16191TIP3    H169988   0.464   1.442   3.783 -0.5466  0.1892 -0.7494
16191TIP3    H269989   0.456   1.589   3.819 -1.2702 -0.0537  0.1192
16192TIP3   OH269990   0.652   3.995  14.895  0.0099  0.3313 -1.0125
16192TIP3    H169991   0.694   3.930  14.951 -1.6729  0.8635  0.9353
16192TIP3    H269992   0.664   3.961  14.806  3.3284 -0.2046 -0.4952
16193TIP3   OH269993   0.475   0.965   0.367 -0.0862 -0.5705 -0.0134
16193TIP3    H169994   0.436   1.006   0.290  1.0411 -2.5351 -1.7459
16193TIP3    H269995   0.409   0.902   0.396  0.1503 -1.0283 -0.4481
16194TIP3   OH269996   1.408   4.622   5.055 -0.7776  0.1978  0.2033
16194TIP3    H169997   1.461   4.608   4.977 -0.0897 -2.5570  1.0548
16194TIP3    H269998   1.363   4.539   5.068 -2.4494  1.2728  1.6143
16195TIP3   OH269999   2.635   5.911  16.951  0.3239 -0.0613  0.0208
16195TIP3    H170000   2.571   5.841  16.946  0.4530 -0.2438  0.7903
16195TIP3    H270001   2.712   5.870  16.991  0.3336  0.5567  0.6615
16196TIP3   OH270002   4.922   6.727  16.784 -0.6116 -0.0160 -0.1388
16196TIP3    H170003   4.941   6.794  16.849 -0.7804  0.4111 -0.5240
16196TIP3    H270004   4.939   6.644  16.829 -0.0547  0.2923  0.2288
16197TIP3   OH270005   1.375   1.664  14.356 -0.1530 -0.2541 -0.8446
16197TIP3    H170006   1.365   1.726  14.283  0.4874  1.5636  0.5286
16197TIP3    H270007   1.289   1.664  14.398 -0.6590 -1.6462 -1.7848
16198TIP3   OH270008   6.312   6.475  12.267 -0.1974  0.6101  0.4757
16198TIP3    H170009   6.371   6.545  12.240 -0.1082  1.1470  1.9509
16198TIP3    H270010   6.242   6.519  12.315 -0.9861 -0.1653  0.0684
16199TIP3   OH270011   6.519   5.768   1.002  0.5188 -0.5771  0.1896
16199TIP3    H170012   6.449   5.724   1.050  1.1002 -2.9313 -0.9500
16199TIP3    H270013   6.525   5.719   0.919  3.2277 -0.2071  0.0909
16200TIP3   OH270014   5.574   0.944   5.199 -0.3595 -0.4142  0.2143
16200TIP3    H170015   5.636   0.876   5.224 -1.8270 -1.5409  0.9464
16200TIP3    H270016   5.489   0.911   5.228 -1.0098  2.2799  1.8118
16201TIP3   OH270017   2.407   0.968   2.838  0.1027  0.4247 -0.3650
16201TIP3    H170018   2.501   0.949   2.833  0.3322  1.4447 -0.1117
16201TIP3    H270019   2.382   0.988   2.747  0.5581  2.0271 -0.1667
16202TIP3   OH270020   6.365   4.744   3.857  0.1418  0.2004 -0.0498
16202TIP3    H170021   6.442   4.770   3.907 -0.5517  0.9248  0.6813
16202TIP3    H270022   6.330   4.668   3.905  0.6431 -0.4194 -0.6432
16203TIP3   OH270023   4.144   3.192  13.089  0.3382 -0.0675 -0.2173
16203TIP3    H170024   4.238   3.179  13.075  0.8424  0.3373  2.2878
16203TIP3    H270025   4.103   3.156  13.010  2.5715 -0.2280 -1.3945
16204TIP3   OH270026   3.794   0.952   4.674  0.2380  0.5784  0.0589
16204TIP3    H170027   3.888   0.950   4.692 -0.2149 -0.6429  2.6908
16204TIP3    H270028   3.785   0.912   4.588  2.0442 -0.4532  0.2971
16205TIP3   OH270029   3.221   4.477  12.651 -0.7226  0.0109 -0.0403
16205TIP3    H170030   3.154   4.409  12.660 -0.4933 -0.0181  1.9221
16205TIP3    H270031   3.303   4.432  12.671 -0.0924  0.1289 -2.0691
16206TIP3   OH270032   2.702   1.062   0.714  0.9574 -0.0417  0.1888
16206TIP3    H170033   2.706   0.992   0.780 -1.2967 -2.1076 -1.7061
16206TIP3    H270034   2.648   1.130   0.755  1.3159 -0.3537  1.2296
16207TIP3   OH270035   4.636   2.524   6.722  0.3423 -0.2800  0.3062
16207TIP3    H170036   4.631   2.597   6.783 -0.6813  0.4675 -0.6478
16207TIP3    H270037   4.729   2.501   6.720  0.5164  0.2501  1.4534
16208TIP3   OH270038   6.685   2.940   5.249 -0.5598 -0.5683  0.5527
16208TIP3    H170039   6.667   3.023   5.206  1.5915  0.6817  1.8426
16208TIP3    H270040   6.718   2.965   5.336  0.9241 -2.7007  0.6835
16209TIP3   OH270041   2.385   1.315  17.176  0.6728 -0.1127 -0.4292
16209TIP3    H170042   2.335   1.233  17.173  0.1851  0.2003 -1.4188
16209TIP3    H270043   2.460   1.299  17.118 -0.3139  0.6696 -2.0036
16210TIP3   OH270044   2.593   2.575   6.240  0.1760  1.0119 -0.7010
16210TIP3    H170045   2.604   2.501   6.301  1.8313  2.9093  1.5107
16210TIP3    H270046   2.501   2.599   6.248  0.1895  0.7370  0.5124
16211TIP3   OH270047   5.131   6.526  14.946  0.4570  0.1910  0.4454
16211TIP3    H170048   5.109   6.602  14.893 -0.6673 -1.0461 -0.9651
16211TIP3    H270049   5.194   6.478  14.892 -1.7205 -1.7888 -0.5186
16212TIP3   OH270050   4.398   0.255  14.698  0.0847 -0.3574 -0.0061
16212TIP3    H170051   4.419   0.348  14.703  0.9467 -0.5308 -0.1714
16212TIP3    H270052   4.354   0.244  14.614  0.6582 -0.2181 -0.3297
16213TIP3   OH270053   0.314   2.848  15.888  0.5971 -0.0440  0.2155
16213TIP3    H170054   0.401   2.864  15.851  0.6249 -0.9598 -0.1535
16213TIP3    H270055   0.263   2.817  15.814 -0.0496  0.4818  0.4345
16214TIP3   OH270056   0.589   1.814   3.380 -1.0195  0.0157  0.0948
16214TIP3    H170057   0.596   1.755   3.305 -1.6148  0.0558  0.0033
16214TIP3    H270058   0.519   1.777   3.433  0.9040 -1.3315  1.8422
16215TIP3   OH270059   2.531   1.285   2.814 -0.0841  0.2751  0.4586
16215TIP3    H170060   2.583   1.255   2.739  1.3711  1.6243  0.8827
16215TIP3    H270061   2.440   1.279   2.783  0.4711  0.9032 -1.4720
16216TIP3   OH270062   4.089   1.084   2.315  0.7438  0.1355 -0.4450
16216TIP3    H170063   4.036   1.060   2.238  0.7151 -0.4823 -0.2413
16216TIP3    H270064   4.097   1.002   2.364  1.5512  0.3118 -0.2689
16217TIP3   OH270065   5.641   4.528  15.899 -0.1659  0.9724 -0.4141
16217TIP3    H170066   5.716   4.527  15.840 -0.9350 -1.3368 -1.4661
16217TIP3    H270067   5.564   4.534  15.842 -0.8684  0.8511  0.4817
16218TIP3   OH270068   1.992   6.289  17.295  0.3211 -0.5788 -0.3068
16218TIP3    H170069   1.928   6.291  17.366  0.4090 -1.8246 -0.1638
16218TIP3    H270070   2.071   6.328  17.333  0.2289 -0.8152  0.1346
16219TIP3   OH270071   1.023   4.588  16.399 -0.7295 -0.5461 -0.5336
16219TIP3    H170072   0.944   4.534  16.406 -1.4114  0.4664 -0.0463
16219TIP3    H270073   1.066   4.579  16.484  0.7818 -2.6554 -1.4384
16220TIP3   OH270074   1.964   2.854   0.813 -0.9021 -0.6283 -0.4583
16220TIP3    H170075   1.990   2.939   0.849 -1.6386 -0.4358 -0.3651
16220TIP3    H270076   1.896   2.823   0.873 -1.3413 -0.8257 -1.0560
16221TIP3   OH270077   0.520   1.912   4.306 -0.4438 -0.3488  0.0220
16221TIP3    H170078   0.578   1.910   4.382  0.7573  1.0091 -0.8089
16221TIP3    H270079   0.511   2.005   4.286 -2.8192 -0.5168  0.0146
16222TIP3   OH270080   0.296   5.560  14.519 -0.3246 -0.1642  0.1133
16222TIP3    H170081   0.265   5.609  14.595  0.6446  0.7293 -0.0536
16222TIP3    H270082   0.333   5.479  14.556  0.2081  0.2954  0.6090
16223TIP3   OH270083   1.420   2.997   1.928  1.0041  0.5556 -0.1223
16223TIP3    H170084   1.413   3.015   2.022 -1.6558 -0.5487 -0.0061
16223TIP3    H270085   1.512   3.010   1.908  1.3654  2.4775  2.2765
16224TIP3   OH270086   2.356   1.244   2.379 -0.7217 -0.1591  0.2892
16224TIP3    H170087   2.398   1.175   2.327 -0.7568  1.3011 -1.7922
16224TIP3    H270088   2.284   1.274   2.324  0.9264  3.3882 -0.1993
16225TIP3   OH270089   0.961   0.246   4.334 -0.3764 -0.9348 -0.0307
16225TIP3    H170090   0.959   0.232   4.239  5.3444 -0.4194 -0.5542
16225TIP3    H270091   1.015   0.324   4.346 -2.3141  0.0874  3.7339
16226TIP3   OH270092   4.687   1.584  14.424 -0.6273  0.3065  0.1014
16226TIP3    H170093   4.666   1.666  14.377  1.4971  1.6143  1.2774
16226TIP3    H270094   4.745   1.537  14.364 -0.5314  0.4375  0.0895
16227TIP3   OH270095   5.313   6.059   1.786 -0.2602 -0.6793  0.1422
16227TIP3    H170096   5.263   6.140   1.781 -0.2407 -0.6416  0.5319
16227TIP3    H270097   5.359   6.054   1.702  0.3722  0.1209  0.4307
16228TIP3   OH270098   2.652   2.576   1.689 -0.7364 -0.3845  0.0362
16228TIP3    H170099   2.680   2.664   1.660 -1.1543 -0.3338 -0.2146
16228TIP3    H270100   2.589   2.593   1.759 -2.7521 -0.4101 -1.6898
16229TIP3   OH270101   6.669   4.065   0.967  0.7977  0.0474  0.5111
16229TIP3    H170102   6.694   4.126   1.037  0.4794  1.9457 -0.9503
16229TIP3    H270103   6.578   4.042   0.986  0.7724  0.3933  0.8159
16230TIP3   OH270104   6.359   2.782   5.835  0.1703  0.2307  0.2195
16230TIP3    H170105   6.308   2.839   5.777  1.4127 -0.3881 -1.6079
16230TIP3    H270106   6.434   2.836   5.861 -0.8272  0.8041  2.0644
16231TIP3   OH270107   6.247   2.481   3.373  0.1400  0.2933 -0.4007
16231TIP3    H170108   6.235   2.407   3.313  0.2439  1.1468 -1.5149
16231TIP3    H270109   6.191   2.460   3.448  0.2381 -0.9489 -0.6480
16232TIP3   OH270110   3.222   5.266   3.210 -0.4510 -0.3335 -0.2933
16232TIP3    H170111   3.298   5.210   3.226  0.7739  0.8983 -1.4338
16232TIP3    H270112   3.195   5.296   3.296 -0.4628 -1.8180  0.2339
16233TIP3   OH270113   1.549   5.204  15.661 -0.1726 -0.1445  0.0600
16233TIP3    H170114   1.521   5.250  15.740 -0.6472  0.9870 -0.7392
16233TIP3    H270115   1.610   5.264  15.618  2.0225 -1.7275  0.7396
16234TIP3   OH270116   3.964   5.230  11.890 -0.4368 -0.2223 -0.1014
16234TIP3    H170117   4.014   5.232  11.972  0.4383  0.6284 -0.6372
16234TIP3    H270118   3.893   5.167  11.907  0.8697 -1.5706  0.6440
16235TIP3   OH270119   4.241   5.014   5.737 -0.3676  0.3195 -0.2903
16235TIP3    H170120   4.234   4.931   5.689  1.3253  1.0827 -1.9793
16235TIP3    H270121   4.330   5.044   5.720 -1.3653  3.2376 -1.0177
16236TIP3   OH270122   3.679   2.873  15.383  0.4362  0.2625 -0.3686
16236TIP3    H170123   3.676   2.788  15.427  2.1837  0.1616 -0.3688
16236TIP3    H270124   3.764   2.873  15.338  0.2144  1.7934 -0.8282
16237TIP3   OH270125   5.377   4.256   3.085 -0.5137 -0.1057 -0.3576
16237TIP3    H170126   5.290   4.220   3.066 -0.3961 -0.6486  0.1128
16237TIP3    H270127   5.430   4.180   3.109  0.1218  0.2114 -0.7455
16238TIP3   OH270128   0.388   1.267   2.193  0.6694 -0.0946 -0.3901
16238TIP3    H170129   0.332   1.342   2.216  0.2241 -0.1804 -1.1442
16238TIP3    H270130   0.455   1.265   2.261  0.2561  0.5451  0.0475
16239TIP3   OH270131   2.194   0.033  17.132 -0.4364 -0.4417 -0.7130
16239TIP3    H170132   2.158  -0.050  17.163 -0.9539  0.4514  1.1886
16239TIP3    H270133   2.176   0.095  17.202  0.6416  1.1199 -1.7540
16240TIP3   OH270134   6.290   1.380   4.392  0.1812  0.1358 -0.1270
16240TIP3    H170135   6.285   1.302   4.446 -1.4847 -0.1490 -0.6477
16240TIP3    H270136   6.279   1.453   4.453 -0.1975 -0.1195  0.1083
16241TIP3   OH270137   3.495   0.837  17.248 -0.1421 -0.1150 -0.0334
16241TIP3    H170138   3.525   0.880  17.167  0.2589  1.9863  1.1668
16241TIP3    H270139   3.479   0.746  17.222 -1.5517  0.8225 -2.8454
16242TIP3   OH270140   0.271   4.032  15.737  0.5845  0.1711  0.0606
16242TIP3    H170141   0.295   4.124  15.724 -2.3744  0.7470 -2.9435
16242TIP3    H270142   0.209   4.033  15.810 -1.8247  1.2328 -1.8506
16243TIP3   OH270143   0.092   5.836  11.848  0.0816  0.0460 -0.0481
16243TIP3    H170144   0.110   5.881  11.765 -0.8375 -0.6251 -0.6362
16243TIP3    H270145   0.172   5.786  11.866 -0.2481 -1.0224 -1.3621
16244TIP3   OH270146   6.420   1.476   4.981  0.2228 -0.4500 -0.3149
16244TIP3    H170147   6.447   1.531   4.907 -0.5538  0.1538 -0.1713
16244TIP3    H270148   6.459   1.518   5.058  0.7027 -0.8511 -0.3355
16245TIP3   OH270149   5.948   6.387   3.103 -0.5927 -0.2315 -0.0155
16245TIP3    H170150   5.900   6.323   3.051 -0.7694  0.6893 -1.0103
16245TIP3    H270151   6.027   6.406   3.052 -0.4125  0.1671  0.3989
16246TIP3   OH270152   2.265   0.479  12.032  0.1975 -0.2352  0.0302
16246TIP3    H170153   2.209   0.544  12.075 -0.4541 -1.4813  1.1568
16246TIP3    H270154   2.243   0.487  11.939 -2.8223 -1.4568  0.5086
16247TIP3   OH270155   5.351   2.537  15.546 -0.1408 -0.1069 -0.6396
16247TIP3    H170156   5.343   2.601  15.475  0.7056 -1.1408 -1.7247
16247TIP3    H270157   5.262   2.522  15.575 -0.6754 -0.6306 -2.4164
16248TIP3   OH270158   6.462   2.761   1.667 -0.6539  0.5987  0.1705
16248TIP3    H170159   6.368   2.758   1.683 -0.5357  1.9604  1.2631
16248TIP3    H270160   6.484   2.671   1.641 -2.2304  0.2470 -0.0774
16249TIP3   OH270161   6.105   4.541   5.999 -0.5192  0.0665 -0.0679
16249TIP3    H170162   6.024   4.564   6.045  0.0305  1.4052  0.2928
16249TIP3    H270163   6.173   4.590   6.045  0.2395  0.4552 -1.5388
16250TIP3   OH270164   4.213   5.507   4.279 -0.1349  0.7210 -0.0590
16250TIP3    H170165   4.239   5.550   4.361  0.2275  0.2524  0.0724
16250TIP3    H270166   4.118   5.508   4.281 -0.1718 -1.0756  1.3332
16251TIP3   OH270167   5.485   1.311   1.426  0.0326 -0.5198 -0.4142
16251TIP3    H170168   5.428   1.329   1.351 -1.9711  1.0476  1.3843
16251TIP3    H270169   5.426   1.299   1.500  1.9831  0.8708  1.5022
16252TIP3   OH270170   4.654   1.885   2.764  0.2521 -0.3836  0.2679
16252TIP3    H170171   4.602   1.845   2.833  0.5340 -1.5256 -0.1490
16252TIP3    H270172   4.629   1.837   2.685  0.4102  0.4606 -0.3086
16253TIP3   OH270173   6.119   1.137  12.542 -0.3334 -0.1714 -0.1338
16253TIP3    H170174   6.181   1.087  12.490 -1.8948 -2.1313 -0.2282
16253TIP3    H270175   6.058   1.174  12.478 -1.5822 -1.6278  0.1610
16254TIP3   OH270176   0.213   2.501   6.368  0.7853  0.4290  0.2633
16254TIP3    H170177   0.152   2.575   6.362  0.7599  0.4798  1.0547
16254TIP3    H270178   0.165   2.434   6.416  0.0102 -0.9578 -2.2734
16255TIP3   OH270179   3.653   2.484  13.324 -0.1644 -0.1506  0.2262
16255TIP3    H170180   3.562   2.484  13.294  0.2999  0.7582 -1.2900
16255TIP3    H270181   3.677   2.391  13.327 -0.7234 -0.3436 -0.7216
16256TIP3   OH270182   3.419   6.090   2.761  0.1416 -0.8039 -0.1272
16256TIP3    H170183   3.449   6.004   2.787  1.0398 -0.7338 -0.8872
16256TIP3    H270184   3.498   6.137   2.735 -0.3767  0.1193 -0.1148
16257TIP3   OH270185   1.736   5.086   1.309  1.0749 -0.6393  0.3812
16257TIP3    H170186   1.770   5.006   1.348  0.0156 -0.2779  2.1222
16257TIP3    H270187   1.651   5.100   1.350  0.3032  0.2913 -1.4008
16258TIP3   OH270188   0.262   1.350   5.271 -0.7094  0.1338 -0.3403
16258TIP3    H170189   0.226   1.429   5.230  1.6030  1.2516 -0.3696
16258TIP3    H270190   0.300   1.300   5.198 -0.3530  0.0002 -0.0631
16259TIP3   OH270191   2.218   2.922   0.357 -0.0431  0.0098 -0.6918
16259TIP3    H170192   2.267   2.999   0.328 -0.7985  1.0408  0.6700
16259TIP3    H270193   2.239   2.855   0.291  0.2089  1.5070 -2.2270
16260TIP3   OH270194   6.118   2.360  14.695 -0.1620 -0.6150 -0.3482
16260TIP3    H170195   6.160   2.396  14.773  2.0009 -1.0131 -1.2818
16260TIP3    H270196   6.030   2.400  14.695  0.2971  0.4959  1.4866
16261TIP3   OH270197   5.332   4.891  13.054  0.7932  0.4713 -0.1880
16261TIP3    H170198   5.284   4.917  13.133  1.3101  2.4202 -0.4493
16261TIP3    H270199   5.424   4.910  13.076  0.9548  0.8913 -1.1833
16262TIP3   OH270200   1.005   6.197   2.074  0.3770 -0.3470 -0.4483
16262TIP3    H170201   0.951   6.196   2.152  0.1888 -2.6792 -0.5326
16262TIP3    H270202   0.953   6.152   2.008  1.7344 -1.1980 -1.0004
16263TIP3   OH270203   2.595   3.569  14.920 -0.2874  0.0885  0.5148
16263TIP3    H170204   2.604   3.517  15.000 -0.3697 -0.5917  0.0922
16263TIP3    H270205   2.514   3.619  14.933 -0.6082 -0.4467  0.6248
16264TIP3   OH270206   6.080   4.871  14.250 -0.1295  0.9033  0.5522
16264TIP3    H170207   5.997   4.829  14.231  0.9147 -1.9847  1.7557
16264TIP3    H270208   6.062   4.965  14.246 -2.5806  0.4511 -2.6277
16265TIP3   OH270209   1.049   2.905  14.232 -0.0559  0.0197  0.3011
16265TIP3    H170210   1.109   2.837  14.199 -1.2634 -0.8801 -0.1064
16265TIP3    H270211   0.994   2.860  14.296 -0.3155  0.8295  0.6633
16266TIP3   OH270212   5.824   4.508   6.728  0.2002 -0.4423 -0.1079
16266TIP3    H170213   5.828   4.457   6.647 -1.2369  1.9005 -1.8177
16266TIP3    H270214   5.777   4.453   6.790 -0.1764 -1.6595 -1.4365
16267TIP3   OH270215   4.450   4.594  15.133 -0.0092 -0.1434  0.2199
16267TIP3    H170216   4.360   4.625  15.121  0.2435  0.5172 -0.0284
16267TIP3    H270217   4.500   4.640  15.066  0.7328  0.4861  1.1886
16268TIP3   OH270218   4.243   5.639   0.622 -0.0305 -0.5592  0.3253
16268TIP3    H170219   4.275   5.589   0.697 -0.8960  0.4119  1.3732
16268TIP3    H270220   4.157   5.672   0.650 -0.6386 -0.6869 -1.3237
16269TIP3   OH270221   2.552   5.814   3.963  0.4900 -0.9478 -0.1588
16269TIP3    H170222   2.579   5.873   4.033 -0.3170  0.5303 -1.0265
16269TIP3    H270223   2.623   5.750   3.957  0.8536 -0.7633  1.5847
16270TIP3   OH270224   4.864   3.732   2.093  0.3756  0.2166  0.1260
16270TIP3    H170225   4.857   3.745   1.998  1.5804  1.1860  0.1480
16270TIP3    H270226   4.955   3.704   2.107  0.6816  1.6252  1.1408
16271TIP3   OH270227   3.728   1.062  16.681  0.7705  0.5528 -0.5653
16271TIP3    H170228   3.760   1.048  16.592  2.5718 -1.1011  0.2790
16271TIP3    H270229   3.649   1.008  16.686  0.8493  0.3857 -1.0319
16272TIP3   OH270230   4.047   2.985   5.238 -0.7174  0.4411  0.0184
16272TIP3    H170231   4.038   2.893   5.265  0.7403  0.7406  1.6504
16272TIP3    H270232   4.141   3.001   5.239 -0.9994  2.2501  0.8064
16273TIP3   OH270233   5.497   1.890   3.651 -0.8515 -0.5363  0.4644
16273TIP3    H170234   5.518   1.939   3.572 -0.7208 -0.5593  0.4843
16273TIP3    H270235   5.560   1.921   3.716 -1.1195 -0.3340  0.6296
16274TIP3   OH270236   5.868   1.229  12.399  0.3348 -0.2101  0.2485
16274TIP3    H170237   5.912   1.310  12.373 -0.8294  0.5063  0.4433
16274TIP3    H270238   5.775   1.248  12.391  0.0299 -1.5796  0.1774
16275TIP3   OH270239   6.416   4.201  13.788  0.2711  0.3558  0.0814
16275TIP3    H170240   6.336   4.221  13.837 -0.3923 -1.1954 -0.2995
16275TIP3    H270241   6.463   4.284  13.784 -1.2215  1.2584  0.4942
16276TIP3   OH270242   4.864   1.263   3.144 -0.7463  0.4469 -0.0437
16276TIP3    H170243   4.849   1.203   3.070 -0.5509  1.0923 -0.6157
16276TIP3    H270244   4.911   1.210   3.208 -0.3862  0.0418 -0.6277
16277TIP3   OH270245   2.390   4.411   4.596  0.0260 -0.1406 -0.1514
16277TIP3    H170246   2.416   4.489   4.547 -0.2386  1.6507  2.3785
16277TIP3    H270247   2.447   4.411   4.673  0.5580 -2.9579 -0.4283
16278TIP3   OH270248   5.232   3.075  15.581  0.4042  0.0319 -0.9322
16278TIP3    H170249   5.276   3.060  15.497  0.0835 -1.4158 -0.8677
16278TIP3    H270250   5.198   2.989  15.605  0.2783  0.4845  0.5700
16279TIP3   OH270251   2.432   2.817   3.395  0.9087 -0.3757 -0.1527
16279TIP3    H170252   2.468   2.737   3.435  0.6911 -0.3723  0.0515
16279TIP3    H270253   2.340   2.796   3.380  0.8002 -0.0807  0.1093
16280TIP3   OH270254   1.482   2.827   3.205 -0.0318  0.3107  0.0401
16280TIP3    H170255   1.445   2.828   3.117 -1.1317  0.3602  0.4898
16280TIP3    H270256   1.491   2.920   3.228  0.7035  0.3032 -0.1944
16281TIP3   OH270257   2.674   1.126  15.557  0.1496  0.0308  0.1791
16281TIP3    H170258   2.651   1.196  15.495  0.9659  0.9359  0.8797
16281TIP3    H270259   2.607   1.059  15.542  0.0803  0.3971 -1.3922
16282TIP3   OH270260   6.431   0.347  11.353 -0.2810 -0.1306 -0.3371
16282TIP3    H170261   6.477   0.385  11.278 -0.3167  1.3896  0.3785
16282TIP3    H270262   6.365   0.412  11.376 -0.2385 -0.5520  1.0449
16283TIP3   OH270263   1.574   4.876  13.851  0.2031  0.0235 -0.3322
16283TIP3    H170264   1.653   4.924  13.824 -1.0884  1.7837 -1.1581
16283TIP3    H270265   1.586   4.862  13.945  0.9223  1.4689 -0.1777
16284TIP3   OH270266   3.905   0.705   3.419  0.4849  0.0200  0.5476
16284TIP3    H170267   3.965   0.674   3.351  0.4499  0.9684  0.0628
16284TIP3    H270268   3.844   0.632   3.433  1.3703 -0.7267  0.6137
16285TIP3   OH270269   3.959   0.244  14.947  0.4742  0.0915  0.5095
16285TIP3    H170270   3.896   0.315  14.959 -0.6492 -0.6893 -0.4715
16285TIP3    H270271   3.928   0.175  15.006 -0.3474 -0.7423 -0.8300
16286TIP3   OH270272   5.806   4.052  11.060  0.2893  0.3131 -0.1611
16286TIP3    H170273   5.811   4.097  11.144  1.0692 -0.5570  0.2789
16286TIP3    H270274   5.788   4.121  10.997  3.1314  1.5607  0.2489
16287TIP3   OH270275   2.938   4.217  12.136 -0.1405 -0.2196 -0.2049
16287TIP3    H170276   2.909   4.288  12.079  0.0573  0.5280  0.6063
16287TIP3    H270277   2.858   4.167  12.155 -0.1184 -0.8443 -1.5904
16288TIP3   OH270278   5.763   2.417  12.739  0.0872 -0.5932  0.1923
16288TIP3    H170279   5.756   2.330  12.779 -0.7289 -0.0913  1.2063
16288TIP3    H270280   5.775   2.400  12.646 -0.4635 -1.7958  0.3189
16289TIP3   OH270281   1.064   1.801   4.547  0.4767  0.0509 -0.5539
16289TIP3    H170282   1.087   1.710   4.533  1.8567  0.3287 -0.3405
16289TIP3    H270283   1.084   1.816   4.640  0.6682  0.6655 -0.6883
16290TIP3   OH270284   0.310   5.293   0.836  0.4739  0.5664  0.2028
16290TIP3    H170285   0.256   5.364   0.801 -1.1433 -0.1743  1.0966
16290TIP3    H270286   0.400   5.324   0.827  0.0183  1.3087 -2.5421
16291TIP3   OH270287   2.077   4.011  14.882 -0.0568  0.6605 -0.0240
16291TIP3    H170288   2.024   4.075  14.930 -0.0613  0.7770 -0.1828
16291TIP3    H270289   2.026   3.992  14.803 -1.0957 -1.1475  1.0078
16292TIP3   OH270290   2.789   0.614  14.420 -0.5692 -0.1846  0.0622
16292TIP3    H170291   2.787   0.620  14.324  1.4482 -0.5304 -0.0540
16292TIP3    H270292   2.728   0.543  14.440  2.4652 -3.5538 -1.4473
16293TIP3   OH270293   2.592   2.677  12.371  0.8559 -0.4051  0.8152
16293TIP3    H170294   2.502   2.699  12.347  1.4325  0.6182 -0.5065
16293TIP3    H270295   2.588   2.662  12.466 -0.4514  0.9723  1.0187
16294TIP3   OH270296   4.040   4.923  10.914  0.0576  0.2885 -0.1094
16294TIP3    H170297   4.016   4.833  10.934 -1.8093  0.6273 -0.6700
16294TIP3    H270298   4.114   4.915  10.853  2.4368 -0.7667  2.6892
16295TIP3   OH270299   2.379   1.285  12.430  0.3482  0.6271 -0.1091
16295TIP3    H170300   2.403   1.376  12.413  1.4195 -0.1564 -3.4503
16295TIP3    H270301   2.311   1.265  12.366  0.2730 -0.9941  0.4181
16296TIP3   OH270302   4.239   6.433   1.952 -0.5066  0.3016  0.2525
16296TIP3    H170303   4.306   6.499   1.931 -1.0109  1.0274  0.8619
16296TIP3    H270304   4.216   6.394   1.868 -0.6550  1.3530 -0.2112
16297TIP3   OH270305   5.944   1.578   2.161  0.5874  0.0454 -0.4075
16297TIP3    H170306   5.962   1.499   2.109 -0.2956 -2.1747  2.4095
16297TIP3    H270307   5.878   1.625   2.110  0.5817 -1.3983 -1.8526
16298TIP3   OH270308   3.256   6.234   0.861  0.5539 -0.0092 -0.1932
16298TIP3    H170309   3.251   6.329   0.858 -0.5151 -0.0130  0.9658
16298TIP3    H270310   3.350   6.215   0.855  0.7291  1.0640 -1.1445
16299TIP3   OH270311   5.799   5.187   0.472 -0.3651 -0.0181 -0.8539
16299TIP3    H170312   5.840   5.228   0.395 -1.4194  0.5503 -1.1268
16299TIP3    H270313   5.735   5.251   0.501  0.1321 -0.1640  0.6127
16300TIP3   OH270314   3.312   5.890   5.207  0.1947 -0.0670 -0.1705
16300TIP3    H170315   3.269   5.832   5.143  0.7026 -1.2395  0.5235
16300TIP3    H270316   3.254   5.888   5.283  1.4099 -1.6637  0.7775
16301TIP3   OH270317   6.741   1.066  11.008  0.7824 -0.2308  0.4338
16301TIP3    H170318   6.728   0.995  10.946  1.4319 -0.3290  0.4045
16301TIP3    H270319   6.802   1.126  10.965  0.0437  0.4868  0.3482
16302TIP3   OH270320   4.385   0.639   1.820 -0.5602  0.8373  0.4802
16302TIP3    H170321   4.438   0.683   1.753  0.5863  0.4465  1.1122
16302TIP3    H270322   4.303   0.619   1.775  0.3395  0.1905 -0.9595
16303TIP3   OH270323   6.137   0.956   1.968  0.5901  0.3038  0.1482
16303TIP3    H170324   6.109   1.000   2.049  0.3386  0.7590 -0.1803
16303TIP3    H270325   6.222   0.995   1.948  1.1954 -0.6323  0.8055
16304TIP3   OH270326   0.356   0.750   3.624 -0.1070 -0.1830 -0.2915
16304TIP3    H170327   0.319   0.715   3.705  0.3936 -0.5623 -0.2170
16304TIP3    H270328   0.281   0.784   3.575 -0.2918  1.0825  0.8185
16305TIP3   OH270329   3.105   4.714  11.356  0.2338  0.1197  0.1284
16305TIP3    H170330   3.056   4.796  11.345  0.2375  0.1061  0.0043
16305TIP3    H270331   3.128   4.688  11.267  0.2429 -0.0108  0.1684
16306TIP3   OH270332   5.513   3.710  11.852 -0.4133 -0.2147  0.1579
16306TIP3    H170333   5.518   3.767  11.775 -1.1807  0.4009  0.5563
16306TIP3    H270334   5.445   3.749  11.907  0.7791 -0.0882  1.6004
16307TIP3   OH270335   5.821   4.664  17.099  0.3366  0.3423  0.6863
16307TIP3    H170336   5.794   4.609  17.026 -1.5471  0.1118  1.4926
16307TIP3    H270337   5.865   4.605  17.160 -1.8284 -0.3776  1.6279
16308TIP3   OH270338   6.594   3.367  14.544 -0.6375 -0.4338 -0.4866
16308TIP3    H170339   6.615   3.450  14.501 -1.4367  0.4759  0.8000
16308TIP3    H270340   6.656   3.361  14.617 -1.0619 -0.6001 -0.1333
16309TIP3   OH270341   6.669   0.616   4.958  0.3093 -0.1804  0.2594
16309TIP3    H170342   6.687   0.693   5.011  0.3183 -0.1812  0.2576
16309TIP3    H270343   6.655   0.649   4.870 -1.5300  0.0086  0.5988
16310TIP3   OH270344   0.180   0.686  12.088  0.1122  0.0990  0.2304
16310TIP3    H170345   0.256   0.627  12.092 -0.4690 -0.6804 -0.0613
16310TIP3    H270346   0.186   0.727  12.002  3.0740  3.9988  1.9938
16311TIP3   OH270347   2.172   4.352   3.976  0.2084  0.1292 -0.6140
16311TIP3    H170348   2.119   4.294   4.031  0.3005  0.3006 -0.3396
16311TIP3    H270349   2.111   4.421   3.949  0.5421  0.9616  0.6426
16312TIP3   OH270350   0.650   4.357   0.932 -0.1628  0.1923  0.4081
16312TIP3    H170351   0.665   4.273   0.888  1.3846  0.1789  0.8739
16312TIP3    H270352   0.562   4.384   0.905  0.8004  0.3749 -3.0378
16313TIP3   OH270353   1.612   3.231  12.890 -0.1733  0.5310 -1.0172
16313TIP3    H170354   1.641   3.144  12.860 -1.3760 -0.0821 -0.4706
16313TIP3    H270355   1.538   3.213  12.948  0.0995  1.8837 -0.2069
16314TIP3   OH270356   5.479   4.588  15.317  0.4669 -0.1633  0.1620
16314TIP3    H170357   5.487   4.598  15.222 -1.3221  0.8645  0.0704
16314TIP3    H270358   5.522   4.505  15.337 -1.0283 -1.4776 -1.8504
16315TIP3   OH270359   5.850   2.391  11.484 -0.1635  0.2023  0.5789
16315TIP3    H170360   5.834   2.407  11.577 -0.1310  1.3434  0.4055
16315TIP3    H270361   5.922   2.328  11.482 -0.6204 -0.3634  1.3199
16316TIP3   OH270362   0.584   1.973  13.926  0.3553 -0.4234 -0.2217
16316TIP3    H170363   0.518   1.910  13.899  0.3133 -0.0478 -1.0218
16316TIP3    H270364   0.537   2.056  13.932  0.3482 -0.4938  1.0956
16317TIP3   OH270365   1.746   2.842   5.233  0.6895  0.1553 -0.3903
16317TIP3    H170366   1.770   2.896   5.158  1.1736 -0.4849 -0.7000
16317TIP3    H270367   1.725   2.756   5.196 -0.2306  0.1641  0.0826
16318TIP3   OH270368   5.801   2.635   4.130 -0.2455 -0.1309 -0.1657
16318TIP3    H170369   5.859   2.620   4.205  0.1664 -0.7470 -0.6005
16318TIP3    H270370   5.768   2.724   4.143  0.0118 -0.1427  0.6185
16319TIP3   OH270371   5.252   4.520   3.080 -0.1405  0.3539  0.6725
16319TIP3    H170372   5.323   4.578   3.110  0.1358  0.2459  0.2282
16319TIP3    H270373   5.293   4.434   3.073 -0.4067  0.2190  0.7541
16320TIP3   OH270374   2.648   3.340   3.985 -0.0275 -0.0258  0.3268
16320TIP3    H170375   2.663   3.398   4.060 -1.2379 -1.1964  1.5162
16320TIP3    H270376   2.736   3.315   3.957  0.4631  0.8755  0.9814
16321TIP3   OH270377   2.130   0.783  13.349 -0.2065  0.0917  0.6433
16321TIP3    H170378   2.145   0.748  13.261 -0.5799  0.7894  0.2882
16321TIP3    H270379   2.171   0.720  13.408 -0.5810 -0.7536  0.0083
16322TIP3   OH270380   6.166   6.339  12.994  0.1796  0.3695 -0.8000
16322TIP3    H170381   6.237   6.342  12.931  0.7232 -0.9008 -0.2860
16322TIP3    H270382   6.099   6.284  12.952 -0.2071  0.9675 -0.9825
16323TIP3   OH270383   2.918   4.246   2.264 -0.1945  0.5626 -0.1874
16323TIP3    H170384   2.945   4.337   2.281  0.3530  0.4235 -0.2886
16323TIP3    H270385   2.940   4.199   2.345 -1.4536  0.7179  0.2672
16324TIP3   OH270386   0.178   6.129  14.880 -0.4246  0.4803  0.3288
16324TIP3    H170387   0.204   6.104  14.969  0.8484  0.0346 -0.1462
16324TIP3    H270388   0.159   6.223  14.886  0.1104  0.5522  0.9774
16325TIP3   OH270389   5.569   0.943   5.658  0.1131  0.4401 -0.1457
16325TIP3    H170390   5.506   0.872   5.644  1.0664 -1.3232  3.1860
16325TIP3    H270391   5.526   1.000   5.722  0.2714  1.6820 -1.1071
16326TIP3   OH270392   5.523   5.688  15.941 -0.0447  0.4856  0.7545
16326TIP3    H170393   5.465   5.659  16.011  0.5882 -1.5894  0.4706
16326TIP3    H270394   5.466   5.732  15.878 -0.8615  0.9146  1.7812
16327TIP3   OH270395   3.093   1.662  11.436 -0.1759  0.1377  0.2587
16327TIP3    H170396   3.188   1.662  11.420 -0.0434 -1.3678  0.8846
16327TIP3    H270397   3.081   1.726  11.507  0.1898  1.2460 -0.6457
16328TIP3   OH270398   0.647   3.364  15.467 -0.0402  0.1229  0.0671
16328TIP3    H170399   0.696   3.311  15.403 -1.4459  0.9577 -1.8178
16328TIP3    H270400   0.585   3.302  15.506  1.1043 -0.4893  0.9694
16329TIP3   OH270401   2.725   0.156  14.000  0.1938 -0.6014 -0.1577
16329TIP3    H170402   2.643   0.132  13.956 -0.3554 -1.0075  1.0462
16329TIP3    H270403   2.717   0.249  14.017  0.0746 -0.5990 -0.2240
16330TIP3   OH270404   0.359   0.446   4.038 -0.1288  0.2235  0.6148
16330TIP3    H170405   0.399   0.453   4.125  0.1830  1.8806  0.3782
16330TIP3    H270406   0.285   0.507   4.041 -0.7773 -0.5049  0.0415
16331TIP3   OH270407   6.512   6.675  16.810  0.3905 -0.1956 -0.2774
16331TIP3    H170408   6.501   6.630  16.894  1.5930  1.2993  0.7238
16331TIP3    H270409   6.481   6.764  16.826  1.4309  0.3444 -1.1577
16332TIP3   OH270410   0.340   4.165   0.037 -0.4407 -0.1314  0.0162
16332TIP3    H170411   0.283   4.196   0.107  0.3820  2.2477 -0.2712
16332TIP3    H270412   0.426   4.154   0.078 -0.0563  0.8565 -0.4815
16333TIP3   OH270413   0.202   2.687  16.283 -0.2194 -0.1661  0.2179
16333TIP3    H170414   0.240   2.774  16.272  0.6647 -0.7981 -2.0900
16333TIP3    H270415   0.107   2.703  16.284 -0.0978  0.7712 -0.9752
16334TIP3   OH270416   2.225   2.235  14.493 -0.3171  0.4782 -0.1095
16334TIP3    H170417   2.278   2.248  14.414  1.2743 -0.5096  0.7317
16334TIP3    H270418   2.234   2.317  14.541  1.1594  0.0521  0.3930
16335TIP3   OH270419   5.801   5.342   6.160  0.0970  0.0466 -0.1715
16335TIP3    H170420   5.871   5.403   6.183 -0.1217  0.2858 -0.1220
16335TIP3    H270421   5.736   5.354   6.230  0.8996 -1.6441  0.9028
16336TIP3   OH270422   5.203   6.252  16.112  0.3847  0.5217  0.4824
16336TIP3    H170423   5.150   6.275  16.188  0.4314 -1.3647  1.1422
16336TIP3    H270424   5.141   6.214  16.050  0.7474 -0.4893  0.7254
16337TIP3   OH270425   3.649   4.958   4.599 -0.3309 -0.0737 -0.2554
16337TIP3    H170426   3.616   5.040   4.635  1.2854  0.8847 -0.8806
16337TIP3    H270427   3.582   4.931   4.536 -0.6914  0.9712 -0.3383
16338TIP3   OH270428   5.715   6.004   3.126 -0.1227 -0.0303  0.0303
16338TIP3    H170429   5.646   5.947   3.161 -1.5077  1.5878  0.0350
16338TIP3    H270430   5.740   5.961   3.044 -0.9880 -0.7659  0.1213
16339TIP3   OH270431   1.972   6.212  11.467  0.1843  0.2716  0.6821
16339TIP3    H170432   1.907   6.170  11.522 -0.1608 -1.3607 -0.8780
16339TIP3    H270433   1.922   6.251  11.395  0.8975 -2.4691 -1.4739
16340TIP3   OH270434   6.341   3.570  14.620  0.2575  0.4791  0.1942
16340TIP3    H170435   6.336   3.550  14.526  0.3039  1.2341  0.0310
16340TIP3    H270436   6.265   3.524  14.658  0.3520  0.0051 -0.1788
16341TIP3   OH270437   3.314   6.526   0.890  0.1854  0.6192 -0.1645
16341TIP3    H170438   3.399   6.487   0.868  1.0074  2.2027  0.0883
16341TIP3    H270439   3.326   6.620   0.876 -1.7497  0.8213 -0.8237
16342TIP3   OH270440   1.299   6.465   4.006 -0.3403 -0.2816 -0.1821
16342TIP3    H170441   1.348   6.529   3.954 -1.4564 -0.7874 -1.9102
16342TIP3    H270442   1.316   6.381   3.965  2.2581 -1.4834  2.8903
16343TIP3   OH270443   1.412   2.074  15.375 -0.1793 -0.1713 -0.0224
16343TIP3    H170444   1.481   2.066  15.441 -0.5136 -0.1159  0.3386
16343TIP3    H270445   1.392   2.167  15.372 -2.2054 -0.4426  1.9572
16344TIP3   OH270446   0.151   2.121   3.848  0.1470 -0.1672  0.1337
16344TIP3    H170447   0.204   2.120   3.927  0.5592  0.4645 -0.1286
16344TIP3    H270448   0.107   2.206   3.849 -1.3324 -0.8995  0.6419
16345TIP3   OH270449   2.933   3.879  12.031  0.2395  0.1762  0.2976
16345TIP3    H170450   3.027   3.862  12.037  0.0367 -0.3861  2.3039
16345TIP3    H270451   2.910   3.854  11.941  1.9700  0.2255 -0.1921
16346TIP3   OH270452   4.792   2.027  13.645 -0.1686  0.1345 -0.6916
16346TIP3    H170453   4.702   2.056  13.631 -0.7323 -0.7640  0.8254
16346TIP3    H270454   4.784   1.942  13.688  1.2917  1.4596  2.5831
16347TIP3   OH270455   6.280   4.155   3.950  0.4034  0.3355 -0.2374
16347TIP3    H170456   6.335   4.165   4.027 -1.1052 -0.0072  0.9286
16347TIP3    H270457   6.342   4.145   3.878  1.8567  0.1994  0.9773
16348TIP3   OH270458   6.609   2.841  13.469 -0.1976 -0.1192 -0.2879
16348TIP3    H170459   6.572   2.809  13.387  1.3579  0.2709 -1.1828
16348TIP3    H270460   6.542   2.900  13.505 -0.3719  0.7402 -1.9545
16349TIP3   OH270461   2.443   3.228  11.472 -0.1891 -0.0382 -0.0533
16349TIP3    H170462   2.443   3.157  11.536  0.0239  0.0682  0.0659
16349TIP3    H270463   2.501   3.294  11.509 -0.0354  0.0098 -0.3747
16350TIP3   OH270464   0.838   6.319   4.466  0.3802  0.2360 -0.3408
16350TIP3    H170465   0.753   6.279   4.482  0.8613 -0.2523  1.2068
16350TIP3    H270466   0.822   6.413   4.472 -0.0571  0.1431 -0.0298
16351TIP3   OH270467   2.375   1.671  17.211 -0.4994  0.3844 -0.4567
16351TIP3    H170468   2.398   1.732  17.140  0.9532  0.2146 -0.1752
16351TIP3    H270469   2.420   1.590  17.187 -0.3741  0.1914  0.4241
16352TIP3   OH270470   0.233   4.091   4.274  0.0144 -0.3367 -0.1074
16352TIP3    H170471   0.255   4.004   4.307  0.4106 -0.6576 -1.1848
16352TIP3    H270472   0.227   4.081   4.179  1.2223  1.0315 -0.3745
16353TIP3   OH270473   5.809   0.882   3.117 -0.1827  0.3076  0.3834
16353TIP3    H170474   5.820   0.787   3.120  0.2375  0.3730  1.4399
16353TIP3    H270475   5.859   0.910   3.041  0.2208 -0.2486  0.4399
16354TIP3   OH270476   2.024   4.927  11.102  0.8702  0.8182  0.3380
16354TIP3    H170477   1.934   4.905  11.080  0.1907  3.8663 -0.3425
16354TIP3    H270478   2.071   4.922  11.019  0.2566  3.5975 -0.2701
16355TIP3   OH270479   2.400   5.769   0.842  0.1214  0.6477  0.1682
16355TIP3    H170480   2.396   5.846   0.786  1.0338 -0.6865 -1.8299
16355TIP3    H270481   2.309   5.744   0.855 -0.1907  1.9926  0.8122
16356TIP3   OH270482   0.641   2.580   2.473 -0.6656  0.4150 -0.3154
16356TIP3    H170483   0.613   2.632   2.549 -0.3352 -0.0750  0.1520
16356TIP3    H270484   0.608   2.492   2.492 -1.4849  0.5060 -1.2414
16357TIP3   OH270485   3.626   3.600   0.776  0.1370  0.7096  0.1984
16357TIP3    H170486   3.683   3.541   0.726 -0.8251  0.9932 -1.2763
16357TIP3    H270487   3.619   3.558   0.862  0.7961 -0.4784 -0.2998
16358TIP3   OH270488   4.607   6.121   1.700  0.3575 -0.0233 -0.4526
16358TIP3    H170489   4.610   6.027   1.683  0.1343 -0.8252  3.1707
16358TIP3    H270490   4.519   6.136   1.736  1.3216  0.9144  1.7293
16359TIP3   OH270491   0.498   0.075   0.174 -0.1091  0.1195 -0.4101
16359TIP3    H170492   0.496  -0.020   0.188 -0.9338 -0.0657 -1.6665
16359TIP3    H270493   0.428   0.108   0.230 -0.2145 -0.0780 -0.4231
16360TIP3   OH270494   0.626   1.146  12.185  0.1279 -0.5089 -0.5947
16360TIP3    H170495   0.658   1.098  12.262  0.2254 -0.6803 -0.7408
16360TIP3    H270496   0.530   1.142  12.193  0.1357 -0.6596 -0.5624
16361TIP3   OH270497   3.981   4.397   4.346  0.4472 -0.2388 -0.2783
16361TIP3    H170498   4.032   4.477   4.347  0.0278  0.0391 -0.6750
16361TIP3    H270499   4.035   4.333   4.391  1.1411  0.0527 -0.6881
16362TIP3   OH270500   4.929   6.591  12.931 -0.0736  0.5250 -0.4016
16362TIP3    H170501   4.955   6.631  12.849  0.4307  2.2125  0.5242
16362TIP3    H270502   4.950   6.656  12.998 -1.4952 -0.3271  0.9713
16363TIP3   OH270503   3.495   4.954  17.234  0.2625  0.0670  0.6012
16363TIP3    H170504   3.446   5.016  17.289 -1.4755 -0.1270 -0.6254
16363TIP3    H270505   3.510   4.878  17.291 -0.5474  0.3010  1.1430
16364TIP3   OH270506   1.874   6.255  15.394  0.0737  0.2062  0.0175
16364TIP3    H170507   1.841   6.286  15.310  0.7494  0.0390 -0.3164
16364TIP3    H270508   1.903   6.335  15.439  1.9573  0.0833 -0.9043
16365TIP3   OH270509   0.276   1.095  11.588  0.0395  0.0236 -0.5683
16365TIP3    H170510   0.279   1.123  11.680  0.5783  0.1689 -0.6239
16365TIP3    H270511   0.353   1.038  11.578  0.8777  1.2187 -1.3016
16366TIP3   OH270512   2.467   2.006   1.128  0.8630  0.2575 -0.8022
16366TIP3    H170513   2.533   1.964   1.183 -0.7573 -0.6467  0.5540
16366TIP3    H270514   2.389   2.012   1.184 -0.4715  0.4920 -2.5836
16367TIP3   OH270515   4.944   0.204   1.026  0.7464 -0.0380  0.3557
16367TIP3    H170516   4.849   0.202   1.015  0.8620 -0.4563 -0.5836
16367TIP3    H270517   4.963   0.128   1.082  0.6618 -0.7698 -0.5857
16368TIP3   OH270518   4.113   2.789   0.430  0.1083  0.0936  0.6530
16368TIP3    H170519   4.191   2.768   0.380  0.0859 -0.3571  0.8010
16368TIP3    H270520   4.041   2.782   0.367  0.0657 -0.5975  0.7687
16369TIP3   OH270521   2.947   3.455   5.472 -0.7087 -0.4864  0.6718
16369TIP3    H170522   2.894   3.493   5.542  0.5261  0.2509  1.2459
16369TIP3    H270523   2.908   3.368   5.457 -1.7773 -0.1528  1.3764
16370TIP3   OH270524   0.611   1.326  13.843  0.6055  0.6655 -0.3701
16370TIP3    H170525   0.664   1.294  13.916  2.8706  1.9697 -1.3101
16370TIP3    H270526   0.654   1.289  13.765 -0.1507  1.3950 -1.1523
16371TIP3   OH270527   2.292   3.570   5.625 -0.5935  0.1360 -0.6162
16371TIP3    H170528   2.342   3.597   5.549 -0.8696  0.0465 -0.8322
16371TIP3    H270529   2.265   3.480   5.606  2.5279 -1.3471  1.2059
16372TIP3   OH270530   6.767   4.675  11.560  0.1973  0.2866 -0.4626
16372TIP3    H170531   6.702   4.637  11.619  1.7870  1.8255  2.4894
16372TIP3    H270532   6.719   4.741  11.510 -0.6268  1.2343  1.4874
16373TIP3   OH270533   5.478   1.950  12.739  0.4889  0.4193 -0.0594
16373TIP3    H170534   5.413   1.894  12.780 -0.1583  0.9981 -0.2673
16373TIP3    H270535   5.445   2.039  12.753  1.8109  0.8039  0.8330
16374TIP3   OH270536   3.005   3.127  11.067 -0.4656 -0.5784 -0.3534
16374TIP3    H170537   2.920   3.090  11.044  0.3013 -1.4541 -1.9639
16374TIP3    H270538   3.032   3.177  10.990 -0.0010  0.6579  0.5599
16375TIP3   OH270539   5.802   1.205  16.054 -0.8876 -0.0946  0.8956
16375TIP3    H170540   5.794   1.110  16.042 -0.2213  0.0918 -1.6356
16375TIP3    H270541   5.895   1.220  16.069 -0.7954  0.2169  0.1049
16376TIP3   OH270542   6.489   6.189  14.081  0.1257  0.4185  0.1065
16376TIP3    H170543   6.566   6.217  14.131  1.1243 -0.1291 -1.0788
16376TIP3    H270544   6.477   6.097  14.105 -0.9639  0.8380  1.2604
16377TIP3   OH270545   2.058   3.925   5.806 -0.2906 -0.3808 -0.4270
16377TIP3    H170546   2.016   4.010   5.795 -1.4028 -0.8290  0.1797
16377TIP3    H270547   2.051   3.907   5.900 -0.2388 -1.2135 -0.5737
16378TIP3   OH270548   1.121   5.333  16.498  0.2579  0.1623 -0.6217
16378TIP3    H170549   1.148   5.287  16.578  0.3407  0.9369 -0.1969
16378TIP3    H270550   1.072   5.268  16.448  1.5679 -0.8082 -0.6829
16379TIP3   OH270551   3.552   4.704   2.672  0.3025  0.0634  0.0124
16379TIP3    H170552   3.627   4.732   2.725  0.2370  1.2084 -0.4551
16379TIP3    H270553   3.533   4.615   2.701  2.8147 -0.8674 -0.9155
16380TIP3   OH270554   3.101   2.057   5.332  0.2661  0.7239  0.0450
16380TIP3    H170555   3.106   2.147   5.301 -0.7667  0.2132 -1.7561
16380TIP3    H270556   3.008   2.034   5.327  0.6695 -0.8733 -0.9039
16381TIP3   OH270557   2.948   3.564   0.244 -0.0328  0.0239 -0.5298
16381TIP3    H170558   2.890   3.626   0.199  0.6857 -0.1983 -1.8361
16381TIP3    H270559   3.029   3.613   0.258 -0.2601  0.0924  0.5709
16382TIP3   OH270560   1.404   2.426   5.198  0.7149 -0.3818  0.3500
16382TIP3    H170561   1.405   2.351   5.139  0.0528  0.3064 -0.5717
16382TIP3    H270562   1.477   2.411   5.259  0.1604 -2.0948  0.6252
16383TIP3   OH270563   3.666   1.779   2.860  0.3501  0.1763 -0.4772
16383TIP3    H170564   3.618   1.704   2.894  0.6094  0.6145  0.9153
16383TIP3    H270565   3.598   1.841   2.832  0.1222  0.1551  0.0290
16384TIP3   OH270566   1.068   3.908  14.380 -0.2683  0.3238 -0.0295
16384TIP3    H170567   1.007   3.939  14.447  3.0517 -0.5792  3.8281
16384TIP3    H270568   1.064   3.813  14.386  1.0109  0.2500 -0.1313
16385TIP3   OH270569   3.257   6.315  13.932 -0.6556 -0.0485  0.4549
16385TIP3    H170570   3.287   6.388  13.878  0.9427 -0.1001  1.2302
16385TIP3    H270571   3.161   6.323  13.931 -0.6162  0.7627 -1.2280
16386TIP3   OH270572   6.231   4.513  14.788 -0.0989  0.2644  0.5828
16386TIP3    H170573   6.144   4.473  14.793 -0.2780  0.6443  0.5305
16386TIP3    H270574   6.287   4.455  14.840 -0.2929 -0.2146  0.2648
16387TIP3   OH270575   6.577   4.901  15.027  0.0624  0.0500 -0.3730
16387TIP3    H170576   6.513   4.923  15.095  0.1200  0.5928 -0.4862
16387TIP3    H270577   6.528   4.848  14.964 -0.8219  2.0030 -1.4271
16388TIP3   OH270578   1.558   0.413   2.727 -0.0367 -0.6766 -0.4084
16388TIP3    H170579   1.605   0.418   2.810  0.5024 -0.1445 -0.7342
16388TIP3    H270580   1.624   0.434   2.661 -0.2839 -1.8112 -1.0394
16389TIP3   OH270581   5.349   3.077  12.912 -0.4105 -0.3824 -0.0440
16389TIP3    H170582   5.369   3.042  12.826 -0.3852  0.0138 -0.1993
16389TIP3    H270583   5.423   3.049  12.967 -1.0427 -1.7185  0.1564
16390TIP3   OH270584   0.460   3.722  12.174  0.3629  0.2145  0.1159
16390TIP3    H170585   0.394   3.654  12.187 -0.2324  0.1381 -2.7057
16390TIP3    H270586   0.543   3.675  12.179  0.1267 -0.1101  1.3542
16391TIP3   OH270587   3.684   1.242   4.113 -0.1473 -0.0296  0.3270
16391TIP3    H170588   3.637   1.163   4.088 -1.1910  0.5589  0.3796
16391TIP3    H270589   3.669   1.303   4.041  0.3262  0.2570  0.4656
16392TIP3   OH270590   1.421   2.935   5.587  0.2434  0.3561 -0.0537
16392TIP3    H170591   1.334   2.900   5.608  1.2240 -0.2727  3.4851
16392TIP3    H270592   1.438   2.999   5.656  2.5122  0.6568 -0.8349
16393TIP3   OH270593   3.833   4.090   0.885 -0.2977 -0.1361 -0.2409
16393TIP3    H170594   3.836   4.181   0.913 -0.7666  0.1030 -0.9422
16393TIP3    H270595   3.751   4.083   0.836 -0.5261 -1.0671  0.2507
16394TIP3   OH270596   5.146   1.727  11.286  0.0435 -0.3616 -0.1000
16394TIP3    H170597   5.229   1.722  11.240  1.5624  2.5227  2.0056
16394TIP3    H270598   5.097   1.796  11.241 -0.4877 -0.8624 -0.2976
16395TIP3   OH270599   5.331   5.166   1.863 -0.1303 -0.2598  0.2520
16395TIP3    H170600   5.307   5.145   1.953  1.0316  0.0054  0.6523
16395TIP3    H270601   5.408   5.112   1.846 -0.5570 -0.5766 -0.7210
16396TIP3   OH270602   2.391   3.773  15.471  0.1449  0.2079  0.3978
16396TIP3    H170603   2.316   3.715  15.486 -0.2459  0.7911  0.7694
16396TIP3    H270604   2.380   3.843  15.535  1.0834  0.2380  0.5329
16397TIP3   OH270605   4.138   2.106   6.197  0.6807  0.0865 -0.0021
16397TIP3    H170606   4.170   2.060   6.275 -1.2827 -0.6787  0.3980
16397TIP3    H270607   4.212   2.161   6.170  1.4102  0.4212  2.4164
16398TIP3   OH270608   3.319   2.707  15.596  0.0109  0.5507  0.1756
16398TIP3    H170609   3.341   2.800  15.606 -0.9383  0.7131  0.8871
16398TIP3    H270610   3.266   2.687  15.673  0.1011 -0.5545 -0.0439
16399TIP3   OH270611   0.128   3.037   1.824  0.2042 -0.0406  0.6118
16399TIP3    H170612   0.074   2.970   1.782 -0.1086 -0.4311  1.6253
16399TIP3    H270613   0.066   3.091   1.873  0.2758  1.8046 -1.1980
16400TIP3   OH270614   5.661   6.616   3.682  0.3034 -0.1506  0.2010
16400TIP3    H170615   5.740   6.632   3.630 -0.0157 -0.9507 -0.5343
16400TIP3    H270616   5.605   6.692   3.664 -1.1936 -1.8592 -3.2725
16401TIP3   OH270617   1.196   2.209  12.866 -0.6790 -0.5405  0.1091
16401TIP3    H170618   1.287   2.227  12.842 -0.8532 -0.6474 -0.6601
16401TIP3    H270619   1.153   2.189  12.783 -1.4480 -0.3172  0.4468
16402TIP3   OH270620   3.803   5.014  15.706 -0.1117 -0.5977 -0.0720
16402TIP3    H170621   3.771   5.010  15.796 -0.0989 -0.5114 -0.0637
16402TIP3    H270622   3.724   5.028  15.653 -0.1672 -1.0534 -0.1106
16403TIP3   OH270623   5.944   4.784  15.911  0.0513 -0.2143 -0.7712
16403TIP3    H170624   6.034   4.814  15.921  0.7660 -2.6664  1.1775
16403TIP3    H270625   5.891   4.857  15.942  1.5046  0.3738  0.4278
16404TIP3   OH270626   3.492   1.215   4.905 -0.2665  0.0485 -0.4912
16404TIP3    H170627   3.414   1.235   4.853 -0.6721  1.5787  0.6324
16404TIP3    H270628   3.468   1.239   4.994  1.6436  1.0155 -0.1827
16405TIP3   OH270629   3.936   2.388  16.970  0.1250 -0.7698 -0.4822
16405TIP3    H170630   3.975   2.322  17.026 -0.7682 -1.8729 -1.1149
16405TIP3    H270631   3.842   2.370  16.974 -0.1613  0.5871 -0.5202
16406TIP3   OH270632   1.341   2.252  14.055 -0.0595  0.0161 -0.6667
16406TIP3    H170633   1.390   2.288  13.981  0.7955 -1.5714 -0.9104
16406TIP3    H270634   1.408   2.226  14.118 -0.7401  0.3990  0.2414
16407TIP3   OH270635   0.222   3.904  15.500 -0.1524 -0.1953 -0.3096
16407TIP3    H170636   0.312   3.920  15.472  0.9160 -1.6846  1.9985
16407TIP3    H270637   0.212   3.953  15.581 -1.2502 -0.5209 -0.2274
16408TIP3   OH270638   4.358   5.303  14.869  0.1987  0.0086 -0.1338
16408TIP3    H170639   4.451   5.325  14.859 -0.4510  2.5921 -1.2706
16408TIP3    H270640   4.348   5.221  14.820  1.6551  0.3646 -1.1122
16409TIP3   OH270641   0.744   0.115   1.274  0.3889  0.3002 -0.5362
16409TIP3    H170642   0.688   0.146   1.345  0.1124 -1.1478 -0.1063
16409TIP3    H270643   0.687   0.116   1.197  0.0364 -0.2812 -0.2853
16410TIP3   OH270644   2.236   4.974  17.185  0.0962  0.2600 -0.2222
16410TIP3    H170645   2.271   4.885  17.178 -1.5846 -0.6013  1.3408
16410TIP3    H270646   2.249   4.998  17.277  1.3043  2.0275 -0.7941
16411TIP3   OH270647   6.733   6.176  12.533  0.2719 -0.3890 -0.3852
16411TIP3    H170648   6.800   6.107  12.534  0.0999 -0.5524  0.1067
16411TIP3    H270649   6.650   6.130  12.544  0.1468 -0.1146 -0.1575
16412TIP3   OH270650   3.509   0.976  13.366 -0.4117 -0.6904  0.2703
16412TIP3    H170651   3.488   0.884  13.384  1.1440 -1.5144 -1.7953
16412TIP3    H270652   3.447   1.001  13.297 -0.2620 -0.4507  0.2252
16413TIP3   OH270653   4.993   5.060  15.948 -0.0906  0.1515  0.2626
16413TIP3    H170654   5.003   4.968  15.975  1.9375 -0.3432 -1.8234
16413TIP3    H270655   4.940   5.056  15.869  0.7325  0.6376 -0.3334
16414TIP3   OH270656   5.041   3.064  10.412  0.2703  0.0197  0.7447
16414TIP3    H170657   4.967   3.031  10.462  0.4919 -2.3876 -0.3607
16414TIP3    H270658   5.005   3.135  10.358 -1.0974 -0.7026  0.6706
16415TIP3   OH270659   4.560   6.720   4.000  0.2232 -0.0793 -0.2040
16415TIP3    H170660   4.584   6.640   4.046 -0.6510 -0.1378  0.1694
16415TIP3    H270661   4.528   6.690   3.915  0.2879 -0.0953 -0.2227
16416TIP3   OH270662   2.689   1.264  16.444 -0.2994 -0.3692 -0.5542
16416TIP3    H170663   2.615   1.256  16.504  0.0011  2.5095  0.4115
16416TIP3    H270664   2.758   1.211  16.484 -1.5434 -2.4297 -1.0409
16417TIP3   OH270665   3.338   2.191   6.075  0.3122 -0.5091  0.5229
16417TIP3    H170666   3.362   2.258   6.140  0.6223  0.2342 -0.3368
16417TIP3    H270667   3.242   2.192   6.075  0.2260  1.8092 -1.2721
16418TIP3   OH270668   5.907   3.432   0.474 -0.1854  0.0972  0.4961
16418TIP3    H170669   5.887   3.447   0.382 -3.2075 -0.0387  1.0259
16418TIP3    H270670   5.871   3.346   0.493  0.7148 -0.0287  1.7462
16419TIP3   OH270671   1.965   0.264   5.326  0.0767  0.1654  0.1388
16419TIP3    H170672   2.020   0.291   5.253 -2.4932  0.7263 -1.7223
16419TIP3    H270673   2.027   0.241   5.395  2.5922  1.9594 -1.3426
16420TIP3   OH270674   0.250   6.133   2.512  0.1530  0.2422  0.0003
16420TIP3    H170675   0.273   6.222   2.538 -1.7864  1.4009 -1.8781
16420TIP3    H270676   0.318   6.108   2.450  0.5079  0.5598  0.2575
16421TIP3   OH270677   2.855   3.734   1.836 -0.5988 -0.3342 -0.3918
16421TIP3    H170678   2.834   3.699   1.749  0.5981 -1.0231 -0.4256
16421TIP3    H270679   2.946   3.708   1.851 -0.0921  1.5860  0.1791
16422TIP3   OH270680   0.506   2.448   4.095  0.6622  0.3094 -0.5297
16422TIP3    H170681   0.411   2.440   4.105  0.7393 -3.5422 -1.3345
16422TIP3    H270682   0.525   2.539   4.117 -3.1438  1.1341  0.0111
16423TIP3   OH270683   3.123   0.243   2.694 -0.0768 -0.6732 -0.0202
16423TIP3    H170684   3.126   0.328   2.650 -2.5567 -0.0662  0.8036
16423TIP3    H270685   3.055   0.195   2.647 -1.3348 -0.7630  1.7841
16424TIP3   OH270686   5.335   0.867  16.845  0.1688 -0.0755  0.5135
16424TIP3    H170687   5.382   0.867  16.928  1.8331  2.1300 -0.3236
16424TIP3    H270688   5.252   0.911  16.865  0.6991  0.7503  0.9841
16425TIP3   OH270689   2.700   4.470   3.916  0.9094  0.4151  0.4692
16425TIP3    H170690   2.795   4.482   3.923  1.0611  0.4335 -1.2224
16425TIP3    H270691   2.676   4.425   3.996  2.1883  1.3129  1.4004
16426TIP3   OH270692   2.160   0.461  10.553 -0.1278  0.4506 -0.0570
16426TIP3    H170693   2.121   0.469  10.640 -1.4967 -0.8936 -0.5026
16426TIP3    H270694   2.087   0.476  10.493  0.0454 -1.7989 -0.9314
16427TIP3   OH270695   1.342   6.177  17.083 -0.0268  0.4938  0.3380
16427TIP3    H170696   1.256   6.193  17.045  0.1949  0.3750 -0.2264
16427TIP3    H270697   1.380   6.108  17.028  0.0736 -0.0927  1.1322
16428TIP3   OH270698   6.201   2.648  15.098  1.0418 -0.5749  0.2636
16428TIP3    H170699   6.132   2.678  15.157  0.0790 -2.0336 -0.0466
16428TIP3    H270700   6.155   2.631  15.015  1.8622 -1.1092 -0.0941
16429TIP3   OH270701   0.388   1.129   6.269  0.5475 -0.0128  0.6441
16429TIP3    H170702   0.376   1.183   6.347 -0.0679 -1.0555  1.2982
16429TIP3    H270703   0.301   1.091   6.252  0.6648  0.2086 -0.5654
16430TIP3   OH270704   4.896   4.705  16.836 -0.1227  0.1638 -0.7694
16430TIP3    H170705   4.813   4.743  16.808 -0.7310 -1.2169 -0.9236
16430TIP3    H270706   4.949   4.701  16.756 -0.8052 -1.1479 -1.1791
16431TIP3   OH270707   6.333   3.527  11.750  0.1010 -0.2386 -0.1328
16431TIP3    H170708   6.314   3.476  11.828  0.5947  0.4107  0.4237
16431TIP3    H270709   6.393   3.473  11.699 -0.2908 -0.6987 -0.1171
16432TIP3   OH270710   0.004   3.086   0.893  0.0913 -0.2344  0.2693
16432TIP3    H170711   0.052   3.008   0.921  0.9004 -0.2280 -1.0275
16432TIP3    H270712  -0.087   3.057   0.885  0.3147 -0.9311  0.2041
16433TIP3   OH270713   1.539   5.928  11.256 -0.3330  0.7441 -0.7182
16433TIP3    H170714   1.537   5.891  11.344  1.5684 -0.7042 -1.2027
16433TIP3    H270715   1.464   5.887  11.212 -0.7101  0.7097 -0.0583
16434TIP3   OH270716   2.872   5.058  13.281 -0.6224  0.4859 -0.1202
16434TIP3    H170717   2.821   5.059  13.200 -1.1241  1.6950  0.1825
16434TIP3    H270718   2.815   5.016  13.345 -0.6560  0.4974 -0.1422
16435TIP3   OH270719   3.599   0.752  16.354 -0.0676  0.6014  0.1318
16435TIP3    H170720   3.553   0.834  16.374 -1.6451  0.5729 -2.8308
16435TIP3    H270721   3.672   0.779  16.299  0.0258  0.1158  0.0203
16436TIP3   OH270722   5.507   1.712  17.117  0.4350  0.1601 -0.8091
16436TIP3    H170723   5.508   1.691  17.210 -0.8741 -1.0545 -1.0427
16436TIP3    H270724   5.587   1.763  17.104  0.1184  1.2826  1.1725
16437TIP3   OH270725   0.556   6.546   3.288  0.2124  0.2189 -0.2271
16437TIP3    H170726   0.604   6.514   3.364 -0.0915  0.5881  0.1279
16437TIP3    H270727   0.537   6.468   3.236 -0.2551 -0.1469  0.4726
16438TIP3   OH270728   0.556   2.336  15.379  0.3625 -0.0883  0.8925
16438TIP3    H170729   0.601   2.316  15.460 -0.6596 -2.4871  0.9390
16438TIP3    H270730   0.558   2.255  15.329 -1.3833  0.5477 -0.3161
16439TIP3   OH270731   2.569   4.810   1.380  0.0267 -0.5374 -0.5064
16439TIP3    H170732   2.558   4.789   1.472  0.8616  0.8281 -0.0686
16439TIP3    H270733   2.488   4.856   1.356  0.1486 -0.1657 -0.2220
16440TIP3   OH270734   5.854   4.426   2.796  0.5505  0.1169  0.9441
16440TIP3    H170735   5.862   4.379   2.879 -0.4308 -0.4369  0.7388
16440TIP3    H270736   5.849   4.518   2.822 -1.7483 -0.1463  1.6891
16441TIP3   OH270737   2.829   6.270  11.298  0.2228 -0.2678 -0.0157
16441TIP3    H170738   2.856   6.344  11.352  1.5986 -1.1205  0.4954
16441TIP3    H270739   2.736   6.286  11.282  0.3641  1.3022  0.4953
16442TIP3   OH270740   5.610   1.632  16.522  0.7747 -0.9548  0.0669
16442TIP3    H170741   5.704   1.626  16.539  0.9333 -0.0290 -0.4201
16442TIP3    H270742   5.601   1.711  16.469 -0.3550 -0.6869  0.6511
16443TIP3   OH270743   6.462   1.530   1.251  0.1324 -0.1739  0.4682
16443TIP3    H170744   6.552   1.561   1.259  0.0567  1.0677 -2.3364
16443TIP3    H270745   6.466   1.437   1.275  1.7988  0.2424  1.9942
16444TIP3   OH270746   0.757   5.301  14.855 -0.0563  0.3610  0.0194
16444TIP3    H170747   0.770   5.368  14.787  0.1663  0.6988  0.3880
16444TIP3    H270748   0.813   5.228  14.828  2.0193  1.4412  1.1089
16445TIP3   OH270749   3.346   3.159   4.924  0.4820  0.3671 -0.8067
16445TIP3    H170750   3.327   3.237   4.872  0.4308  0.4742 -0.6270
16445TIP3    H270751   3.275   3.154   4.988  0.3921  0.0787 -0.9249
16446TIP3   OH270752   5.194   4.296   5.130 -0.8200  1.1163 -0.0741
16446TIP3    H170753   5.117   4.353   5.139 -1.5001  0.1696  0.2837
16446TIP3    H270754   5.263   4.343   5.176 -1.0209  2.2544 -0.8980
16447TIP3   OH270755   2.801   0.708   5.102  0.3867 -0.0791  0.0827
16447TIP3    H170756   2.733   0.775   5.109 -0.5804 -1.1403  1.4852
16447TIP3    H270757   2.805   0.687   5.009 -1.0487  0.1789 -0.0554
16448TIP3   OH270758   4.402   5.798  17.142  0.8680 -0.6849 -0.3148
16448TIP3    H170759   4.380   5.796  17.235  0.0885 -2.7247 -0.5056
16448TIP3    H270760   4.494   5.771  17.139  1.1962  0.3450 -0.0970
16449TIP3   OH270761   3.609   3.666   3.826 -0.0270  0.4764  0.0417
16449TIP3    H170762   3.566   3.626   3.902 -1.0524  0.9056 -0.2909
16449TIP3    H270763   3.634   3.592   3.770  1.8641  0.0690  1.3385
16450TIP3   OH270764   3.008   3.888  13.814 -0.3134 -0.6277 -0.1498
16450TIP3    H170765   3.068   3.880  13.740 -0.1416  0.9360 -0.2081
16450TIP3    H270766   2.927   3.921  13.776 -0.1245  0.4882  0.3850
16451TIP3   OH270767   2.571   2.478  11.804 -0.3629  0.1350 -0.3310
16451TIP3    H170768   2.666   2.463  11.808 -0.3901  0.0613  0.0834
16451TIP3    H270769   2.557   2.557  11.856 -0.6086 -0.2402  0.1847
16452TIP3   OH270770   2.893   5.762  11.172  0.2745 -0.0467 -1.1660
16452TIP3    H170771   2.926   5.852  11.174  1.8020 -0.5974 -0.0410
16452TIP3    H270772   2.811   5.768  11.124  0.8659  1.7785 -2.0298
16453TIP3   OH270773   4.664   0.086   1.029 -0.5278 -0.1457 -0.5090
16453TIP3    H170774   4.658   0.084   1.124  1.0004  3.0095 -0.2247
16453TIP3    H270775   4.586   0.135   1.001 -0.7169 -0.6352 -0.8600
16454TIP3   OH270776   0.386   6.036   4.716 -0.3844 -0.0450  0.1048
16454TIP3    H170777   0.348   5.957   4.754 -2.7319 -2.2638 -5.6322
16454TIP3    H270778   0.456   6.004   4.659  0.0643  2.2893 -0.7816
16455TIP3   OH270779   5.911   1.939   2.636 -0.7077  0.1169 -0.3903
16455TIP3    H170780   5.994   1.907   2.600 -0.2864  0.7127  0.0141
16455TIP3    H270781   5.846   1.873   2.611  0.1437 -1.1168  0.5481
16456TIP3   OH270782   5.836   2.904  15.396 -0.0853 -0.3282  0.4818
16456TIP3    H170783   5.841   2.855  15.314  1.2426 -0.4006  0.5941
16456TIP3    H270784   5.742   2.919  15.409 -0.5131 -2.3724  0.1567
16457TIP3   OH270785   3.556   0.929  16.052  0.6346 -0.2358 -0.1225
16457TIP3    H170786   3.493   0.920  16.123  0.6849  2.1746  0.3127
16457TIP3    H270787   3.641   0.912  16.093  0.5319 -0.4900 -0.0120
16458TIP3   OH270788   0.095   4.144  11.644  0.3904  0.4512 -0.3372
16458TIP3    H170789   0.095   4.053  11.672  1.5772  0.1309 -1.2746
16458TIP3    H270790   0.010   4.179  11.672 -0.4216 -1.1603 -0.7165
16459TIP3   OH270791   5.960   4.812  12.727  0.5127 -0.3227  0.3007
16459TIP3    H170792   6.049   4.817  12.693  0.6709 -0.6444  0.6600
16459TIP3    H270793   5.913   4.757  12.664  1.0935 -1.8872  1.1747
16460TIP3   OH270794   2.879   3.780   3.724  0.2938  0.1035 -0.4744
16460TIP3    H170795   2.913   3.715   3.663  1.3325 -0.2212  0.4018
16460TIP3    H270796   2.954   3.836   3.743  0.5945 -0.9717  1.9511
16461TIP3   OH270797   1.684   2.342   5.701  0.7646 -0.0443 -0.2004
16461TIP3    H170798   1.651   2.252   5.704  0.6076  0.0450  1.0498
16461TIP3    H270799   1.657   2.380   5.784 -1.6241  2.0637 -1.7916
16462TIP3   OH270800   6.245   2.025   2.227 -0.3502  0.2352  0.8306
16462TIP3    H170801   6.330   2.070   2.223 -0.9710  1.7093  2.7024
16462TIP3    H270802   6.197   2.058   2.150  1.1202 -1.5437 -0.9537
16463TIP3   OH270803   4.743   6.457   3.427  0.7586  0.0889  0.4303
16463TIP3    H170804   4.792   6.511   3.365 -2.5362  0.5410 -2.0665
16463TIP3    H270805   4.710   6.519   3.491  0.0657  0.4768 -0.2839
16464TIP3   OH270806   0.827   0.814  16.900 -0.3393 -0.0862 -0.6355
16464TIP3    H170807   0.922   0.817  16.887 -0.3464 -1.1142 -1.0514
16464TIP3    H270808   0.808   0.889  16.956  0.7419  0.0506 -0.4245
16465TIP3   OH270809   5.857   4.100  13.791 -0.9540 -0.4621  0.6394
16465TIP3    H170810   5.797   4.145  13.850 -0.0642  0.6607  0.7255
16465TIP3    H270811   5.937   4.153  13.793  0.0733 -1.9336  0.5730
16466TIP3   OH270812   3.149   3.441   0.845  0.2244 -0.5394 -0.0341
16466TIP3    H170813   3.200   3.481   0.915 -1.9576  0.8805  0.8321
16466TIP3    H270814   3.111   3.515   0.797  1.0175 -1.4851 -2.2809
16467TIP3   OH270815   5.646   3.503  10.827  0.3371 -0.4014  0.3939
16467TIP3    H170816   5.714   3.437  10.813  1.8530  0.8670  1.4208
16467TIP3    H270817   5.629   3.539  10.739  0.9859 -0.7460  0.1182
16468TIP3   OH270818   6.324   1.376  17.067  0.0959  0.8405  0.5201
16468TIP3    H170819   6.271   1.303  17.035 -0.1397  1.9788 -1.8727
16468TIP3    H270820   6.337   1.356  17.160 -2.0369 -0.9664  0.5375
16469TIP3   OH270821   6.647   0.516  13.536 -0.1275 -0.0824  0.2949
16469TIP3    H170822   6.709   0.500  13.464 -0.0302 -0.2221  0.4105
16469TIP3    H270823   6.615   0.605  13.520  1.2822  0.5984  1.1245
16470TIP3   OH270824   1.376   3.788   0.961  0.2489  1.1083 -0.1830
16470TIP3    H170825   1.353   3.746   0.878  0.5806  2.1898 -0.8427
16470TIP3    H270826   1.309   3.854   0.975 -1.1120 -0.5280  1.6005
16471TIP3   OH270827   1.348   6.440  12.070 -0.2423  0.3318  0.3302
16471TIP3    H170828   1.357   6.353  12.109 -2.1877  0.3853  0.9908
16471TIP3    H270829   1.310   6.494  12.139 -1.0428  1.1602 -0.7241
16472TIP3   OH270830   6.060   3.985   2.396 -0.1017  0.6691 -0.4558
16472TIP3    H170831   6.142   4.035   2.386  0.2349  0.1340 -0.4282
16472TIP3    H270832   6.047   3.945   2.310 -0.1987  0.5485 -0.3841
16473TIP3   OH270833   1.222   6.237   0.016 -0.3323 -0.3892  0.1287
16473TIP3    H170834   1.280   6.205  -0.054 -2.0774 -0.2891 -1.4422
16473TIP3    H270835   1.262   6.320   0.044  1.1229 -1.0837  0.2439
16474TIP3   OH270836   0.143   3.431   5.509 -0.0637  0.1923  0.4395
16474TIP3    H170837   0.232   3.464   5.510  0.5327 -1.2810 -0.1181
16474TIP3    H270838   0.109   3.447   5.597  0.8027  0.6478  0.6915
16475TIP3   OH270839   4.203   0.291  12.870 -0.0839 -0.4470  0.5080
16475TIP3    H170840   4.133   0.259  12.812  0.5355 -0.9374  0.0128
16475TIP3    H270841   4.207   0.385  12.853 -0.8150 -0.3616  0.7600
16476TIP3   OH270842   5.467   4.298   3.394 -0.8477 -0.2366  0.4019
16476TIP3    H170843   5.475   4.255   3.308 -0.5097 -0.2265  0.4264
16476TIP3    H270844   5.528   4.372   3.389 -2.2457  0.9373 -0.0620
16477TIP3   OH270845   6.605   0.147  17.198 -0.1694 -0.1688 -0.1855
16477TIP3    H170846   6.577   0.223  17.249 -1.6047 -0.9073  0.1607
16477TIP3    H270847   6.531   0.087  17.201 -0.3104 -0.2784 -3.0976
16478TIP3   OH270848   2.344   0.826   4.434  0.0395 -0.1490 -0.7736
16478TIP3    H170849   2.326   0.794   4.522  0.4311 -0.8113 -0.9290
16478TIP3    H270850   2.437   0.849   4.436 -0.3993  1.7185 -0.4437
16479TIP3   OH270851   6.406   1.582   2.710  0.4812 -0.1452  0.0913
16479TIP3    H170852   6.360   1.624   2.782  1.7032  1.0751  0.2177
16479TIP3    H270853   6.495   1.567   2.744  0.8513 -0.2662 -0.8899
16480TIP3   OH270854   2.250   4.524   0.690  0.2654  0.2518 -0.0786
16480TIP3    H170855   2.246   4.506   0.784  2.3975  2.4349  0.5319
16480TIP3    H270856   2.180   4.588   0.675 -0.7985 -0.9047 -0.2656
16481TIP3   OH270857   5.168   0.640  11.823  0.0409  0.3084  1.0387
16481TIP3    H170858   5.217   0.707  11.870 -0.8026  1.6693  0.0700
16481TIP3    H270859   5.196   0.651  11.732 -0.1019 -0.6770  0.8737
16482TIP3   OH270860   6.567   2.054   0.811 -0.2395  0.4790 -0.1753
16482TIP3    H170861   6.552   1.990   0.741 -2.5877  0.0188  0.6526
16482TIP3    H270862   6.659   2.078   0.802 -0.3990  0.3174 -3.2828
16483TIP3   OH270863   3.419   4.796  15.781 -0.3798  0.0476 -0.1939
16483TIP3    H170864   3.333   4.752  15.776 -0.2576 -1.0841  4.0086
16483TIP3    H270865   3.482   4.724  15.778  0.1770  0.4872  0.7491
16484TIP3   OH270866   1.678   0.101   5.544 -0.0355  0.3529 -0.2100
16484TIP3    H170867   1.716   0.096   5.457  1.7890 -0.3853  0.5754
16484TIP3    H270868   1.715   0.026   5.591 -0.4252  1.1280  1.4034
16485TIP3   OH270869   1.166   4.245   0.456 -0.2591  0.4924 -0.0459
16485TIP3    H170870   1.163   4.187   0.532 -0.3239  0.7027  0.1142
16485TIP3    H270871   1.199   4.328   0.491 -0.2475  0.5757 -0.2560
16486TIP3   OH270872   2.438   6.371  16.722  0.0651 -0.4867 -0.3836
16486TIP3    H170873   2.508   6.325  16.676  0.1579 -0.5374 -0.1953
16486TIP3    H270874   2.421   6.316  16.799 -0.0106 -0.3451 -0.3004
16487TIP3   OH270875   6.548   4.120  16.425  0.5693 -0.0286  0.3847
16487TIP3    H170876   6.628   4.170  16.441 -0.6901  1.2155  3.9541
16487TIP3    H270877   6.515   4.153  16.342  1.3574  3.0074  1.1598
16488TIP3   OH270878   4.833   3.308   6.782 -0.3151  0.0491 -0.3296
16488TIP3    H170879   4.872   3.370   6.721  0.1702 -1.0178 -1.1249
16488TIP3    H270880   4.753   3.352   6.812  0.5955  1.5397  0.0239
16489TIP3   OH270881   4.356   6.237   0.597  0.3116  0.2010  0.5673
16489TIP3    H170882   4.421   6.184   0.550 -1.0214  0.4917 -1.7535
16489TIP3    H270883   4.272   6.203   0.567 -0.5781  1.8870  1.0756
16490TIP3   OH270884   6.078   5.134   2.671 -0.5800 -1.3327  0.1674
16490TIP3    H170885   6.084   5.095   2.583  0.7963  0.3629 -0.5623
16490TIP3    H270886   6.131   5.075   2.726 -0.2614 -1.6452 -0.4513
16491TIP3   OH270887   4.269   0.386   1.405  0.4382  0.2707 -0.0301
16491TIP3    H170888   4.356   0.361   1.436 -0.5433 -2.2162  1.0082
16491TIP3    H270889   4.229   0.433   1.478  0.2125 -0.4351  0.3177
16492TIP3   OH270890   6.454   0.335  11.838  0.0651  0.2928 -0.2000
16492TIP3    H170891   6.367   0.358  11.803 -0.8023 -1.5487  0.6207
16492TIP3    H270892   6.492   0.277  11.772 -0.1819 -0.4948  0.3330
16493TIP3   OH270893   6.737   1.728  14.747  0.1429  0.0710 -0.0368
16493TIP3    H170894   6.743   1.821  14.770  2.4095 -0.1978  0.6870
16493TIP3    H270895   6.827   1.702  14.726 -0.4754 -1.9084 -0.4975
16494TIP3   OH270896   2.177   0.391   1.710 -0.5505  0.2645 -0.1938
16494TIP3    H170897   2.166   0.386   1.805  0.4298 -0.7087 -0.1057
16494TIP3    H270898   2.137   0.310   1.677 -1.1765  0.7547 -0.6436
16495TIP3   OH270899   2.404   1.360  13.026  0.3056 -0.1998  0.2350
16495TIP3    H170900   2.389   1.342  13.119  0.9989 -0.3220  0.3306
16495TIP3    H270901   2.470   1.295  13.000 -1.3576 -1.5344 -0.8650
16496TIP3   OH270902   1.333   1.488  12.735  0.3296 -0.3712  0.3223
16496TIP3    H170903   1.377   1.482  12.820 -1.2973  0.0827  1.2442
16496TIP3    H270904   1.270   1.560  12.746  1.1961  0.8104 -1.8071
16497TIP3   OH270905   3.009   2.241   1.160 -0.6857  0.1113  0.0257
16497TIP3    H170906   2.982   2.201   1.077 -1.5060 -0.5860  0.6096
16497TIP3    H270907   3.052   2.322   1.134 -3.0763  1.1494 -1.0314
16498TIP3   OH270908   0.708   0.988   2.433  0.4286  0.1190  0.1134
16498TIP3    H170909   0.759   0.988   2.352 -1.0659 -3.2613 -1.0074
16498TIP3    H270910   0.689   1.080   2.450  1.7483  1.0079 -2.7393
16499TIP3   OH270911   2.901   4.053   0.123 -0.3035 -0.2842 -0.2844
16499TIP3    H170912   2.943   4.135   0.150 -1.5187  0.0989  0.5533
16499TIP3    H270913   2.973   3.993   0.105  0.5939  0.5865  0.3262
16500TIP3   OH270914   2.153   5.812   2.563  0.7787 -0.4461  0.3470
16500TIP3    H170915   2.187   5.885   2.510  0.2830 -0.6024 -0.1902
16500TIP3    H270916   2.059   5.827   2.566  0.7209 -0.8550  0.5625
16501TIP3   OH270917   2.742   1.056  15.830 -0.0234  0.1992  0.1390
16501TIP3    H170918   2.708   1.073  15.742  1.6093 -0.9441 -0.7522
16501TIP3    H270919   2.827   1.098  15.832  0.3190 -0.4979  0.8820
16502TIP3   OH270920   1.482   3.411   1.872  0.5696 -0.0095 -0.2057
16502TIP3    H170921   1.416   3.373   1.930  0.4021 -0.1452 -0.4837
16502TIP3    H270922   1.455   3.384   1.784 -1.3239  3.2203 -0.7865
16503TIP3   OH270923   5.018   2.460   3.504 -0.8255  0.2671  0.0121
16503TIP3    H170924   5.088   2.415   3.457 -1.5030 -0.4447 -0.3463
16503TIP3    H270925   4.959   2.390   3.532 -1.8075  0.9066 -0.3873
16504TIP3   OH270926   1.288   5.298   1.291  0.4317 -0.1955 -0.5895
16504TIP3    H170927   1.350   5.353   1.244 -0.4533  1.4565  0.0872
16504TIP3    H270928   1.338   5.262   1.364  0.5820  1.2691  0.0585
16505TIP3   OH270929   5.811   5.870   2.890  0.8030  0.1932  0.6317
16505TIP3    H170930   5.774   5.786   2.860 -2.2292  1.2927  0.9615
16505TIP3    H270931   5.852   5.906   2.812 -0.2942 -0.3940 -0.2535
16506TIP3   OH270932   1.769   0.573  12.402  0.2503  0.2493  0.2251
16506TIP3    H170933   1.863   0.567  12.383  0.1573  0.0346 -0.1749
16506TIP3    H270934   1.741   0.655  12.360 -0.1327 -0.6611 -1.3428
16507TIP3   OH270935   3.791   0.366  16.217  0.2685  0.1885 -0.1849
16507TIP3    H170936   3.701   0.344  16.243 -0.0803  0.9087 -0.7510
16507TIP3    H270937   3.823   0.422  16.288  0.9013 -1.4517  0.8914
16508TIP3   OH270938   4.890   4.804   2.740 -0.3073 -0.3584  0.0900
16508TIP3    H170939   4.958   4.804   2.673 -0.5093 -1.6584 -0.1328
16508TIP3    H270940   4.870   4.897   2.753  0.8832  0.0058 -0.4597
16509TIP3   OH270941   1.797   0.678   5.156  0.4700 -0.1580 -0.1915
16509TIP3    H170942   1.780   0.598   5.106 -0.3329 -0.1471  0.0624
16509TIP3    H270943   1.831   0.647   5.240 -0.4641 -0.2600  0.1543
16510TIP3   OH270944   3.844   5.880   5.990 -0.7416 -0.0743  0.0870
16510TIP3    H170945   3.819   5.918   5.906 -1.1253 -0.6862 -0.0857
16510TIP3    H270946   3.777   5.911   6.051 -1.2489 -0.7244 -0.1234
16511TIP3   OH270947   4.353   6.195  13.375 -0.1397 -0.0636  0.1390
16511TIP3    H170948   4.324   6.282  13.349  2.9952  0.6184 -1.6227
16511TIP3    H270949   4.394   6.208  13.461  1.0552  0.4153 -0.4841
16512TIP3   OH270950   3.971   5.651  17.143  0.0612  0.4780 -0.1245
16512TIP3    H170951   3.907   5.586  17.170  0.2166  0.4430  0.1617
16512TIP3    H270952   3.949   5.730  17.193  0.3737  0.4007  0.1375
16513TIP3   OH270953   1.803   4.886   3.062 -0.5362 -0.1128 -0.0207
16513TIP3    H170954   1.853   4.888   3.143 -1.1581  3.3870  0.4384
16513TIP3    H270955   1.731   4.948   3.076 -1.7818 -0.8147 -2.5886
16514TIP3   OH270956   5.263   6.285   5.801 -0.3969  0.1832 -1.0142
16514TIP3    H170957   5.340   6.324   5.842 -1.1096 -0.3260  0.9321
16514TIP3    H270958   5.298   6.227   5.734  1.0883 -1.5935  1.1569
16515TIP3   OH270959   3.570   1.107  14.588 -0.2321  0.5044 -0.8121
16515TIP3    H170960   3.657   1.074  14.566  0.6431  1.8944  0.4202
16515TIP3    H270961   3.510   1.040  14.553  1.4084 -2.1045  0.9845
16516TIP3   OH270962   4.567   1.286   5.874  0.0208 -0.1099 -0.0104
16516TIP3    H170963   4.605   1.369   5.848  1.9823 -2.0335 -4.2222
16516TIP3    H270964   4.483   1.283   5.828 -0.1092 -0.4178  0.2418
16517TIP3   OH270965   0.194   3.071   5.853 -1.1493  0.1498  0.0123
16517TIP3    H170966   0.273   3.051   5.905 -1.1331  0.1115 -0.0276
16517TIP3    H270967   0.177   2.992   5.803 -2.1513 -0.4291  1.2181
16518TIP3   OH270968   1.003   4.581  13.399  0.2343  0.3454  0.9036
16518TIP3    H170969   1.012   4.542  13.312 -1.0626 -0.2595  1.0166
16518TIP3    H270970   1.046   4.519  13.457  0.4710  0.3928  0.7815
16519TIP3   OH270971   0.857   6.048  12.527 -0.1473 -0.5222 -0.0546
16519TIP3    H170972   0.895   6.135  12.542  1.0221 -0.8823 -0.8575
16519TIP3    H270973   0.823   6.052  12.438  0.2107 -1.0101 -0.2085
16520TIP3   OH270974   4.145   2.183   5.333 -0.5939 -0.0055 -0.2856
16520TIP3    H170975   4.129   2.270   5.370 -1.9984 -0.2625 -0.2046
16520TIP3    H270976   4.197   2.200   5.254  0.2472  0.7790  0.4152
16521TIP3   OH270977   2.465   1.221  14.200  0.4337 -0.2416  0.2126
16521TIP3    H170978   2.382   1.189  14.234 -0.2105 -2.0454 -2.7041
16521TIP3    H270979   2.441   1.289  14.137  1.0998 -0.9531 -0.8430
16522TIP3   OH270980   0.484   5.342  12.123  0.3361 -0.5477 -0.2485
16522TIP3    H170981   0.556   5.302  12.172  1.8377  0.5495 -1.4376
16522TIP3    H270982   0.502   5.436  12.128 -0.6059 -0.2967 -1.1985
16523TIP3   OH270983   2.816   1.501  11.997 -0.6623 -0.4705  0.0240
16523TIP3    H170984   2.775   1.484  11.912 -0.6901 -0.2883  0.0014
16523TIP3    H270985   2.798   1.593  12.015 -0.7167 -0.5268  0.2623
16524TIP3   OH270986   6.595   1.830   3.751  0.0057 -0.2984 -0.0332
16524TIP3    H170987   6.520   1.796   3.703  0.0443 -1.6472  0.8445
16524TIP3    H270988   6.644   1.879   3.685 -2.0652  1.3986 -0.4303
16525TIP3   OH270989   3.893   4.810  15.387  0.4010 -0.5511  0.0262
16525TIP3    H170990   3.953   4.849  15.324 -0.2737 -1.6825 -1.3754
16525TIP3    H270991   3.950   4.772  15.454  1.1379  0.4867  0.0072
16526TIP3   OH270992   2.691   4.373  11.990  0.2455 -0.0974  0.2908
16526TIP3    H170993   2.743   4.452  11.973 -1.6783  1.1670 -0.0744
16526TIP3    H270994   2.640   4.361  11.910 -0.8541 -0.6145  1.0503
16527TIP3   OH270995   5.650   2.076  11.802  0.0014  1.0824  0.0713
16527TIP3    H170996   5.613   1.988  11.803 -1.3419  1.6008 -0.7399
16527TIP3    H270997   5.598   2.124  11.866  2.0544  0.8455  2.0603
16528TIP3   OH270998   1.165   4.523   0.312  0.5398 -0.0864  0.7636
16528TIP3    H170999   1.147   4.614   0.336  2.7857  0.5682  0.1832
16528TIP3    H271000   1.089   4.475   0.345 -1.5133  2.1564 -0.3118
16529TIP3   OH271001   5.392   2.905   4.489  0.2556 -0.1286  0.3951
16529TIP3    H171002   5.415   2.993   4.460  1.1858 -0.5117 -0.0748
16529TIP3    H271003   5.326   2.918   4.557  0.5009  0.9329  0.4411
16530TIP3   OH271004   5.023   6.046  15.705  0.5228 -0.0472 -0.1044
16530TIP3    H171005   5.030   6.122  15.648  0.6607  0.3456  0.4283
16530TIP3    H271006   5.105   6.045  15.755 -0.1807  0.4490  1.1024
16531TIP3   OH271007   2.457   2.621  16.950 -0.4238  0.2134  0.2190
16531TIP3    H171008   2.469   2.598  16.858  2.8756  0.6216  0.4545
16531TIP3    H271009   2.446   2.537  16.995  0.3958 -0.1608 -0.2721
16532TIP3   OH271010   5.751   2.861   2.390 -0.1217  0.0724  0.4739
16532TIP3    H171011   5.657   2.870   2.379 -0.1095  0.6042  0.7244
16532TIP3    H271012   5.775   2.936   2.445  0.1729 -1.0528  1.9379
16533TIP3   OH271013   2.044   0.387   1.039  0.3615 -0.8144  0.2786
16533TIP3    H171014   2.101   0.454   1.076  0.3703  0.1585 -1.3989
16533TIP3    H271015   1.990   0.433   0.975  0.0795 -2.3259 -0.6418
16534TIP3   OH271016   5.036   1.427  16.900  0.3542 -0.6288  0.1252
16534TIP3    H171017   5.100   1.478  16.852 -0.0814 -1.0884 -0.9768
16534TIP3    H271018   4.977   1.392  16.833 -1.3778  0.2140  1.1244
16535TIP3   OH271019   6.401   4.876  14.418  0.0988 -0.4716 -0.5105
16535TIP3    H171020   6.334   4.944  14.423  0.1055 -0.5541  1.4817
16535TIP3    H271021   6.377   4.813  14.486  1.6084 -1.0381 -0.4454
16536TIP3   OH271022   2.218   6.360   3.938  0.6645 -0.1182  0.1461
16536TIP3    H171023   2.125   6.348   3.961  0.5536 -0.3402 -0.4189
16536TIP3    H271024   2.242   6.280   3.892  0.4251  0.9778 -2.0010
16537TIP3   OH271025   1.469   6.081  11.538  0.3109  0.3702  0.6197
16537TIP3    H171026   1.420   6.122  11.610 -1.3929  0.4275 -0.5180
16537TIP3    H271027   1.464   5.987  11.557  0.2105  0.4102  0.7937
16538TIP3   OH271028   1.340   0.108   1.575 -0.2952  0.6274  0.5276
16538TIP3    H171029   1.301   0.025   1.600  0.7425  0.2985  1.0895
16538TIP3    H271030   1.320   0.168   1.647  0.8868  0.2421  1.2063
16539TIP3   OH271031   6.374   6.717   3.501  0.4811 -0.0644  0.7927
16539TIP3    H171032   6.462   6.683   3.521  0.6341  0.1545  0.5105
16539TIP3    H271033   6.322   6.695   3.578  0.5117 -1.1631  0.5134
16540TIP3   OH271034   5.535   0.808   4.294  0.4200 -0.3882  0.3243
16540TIP3    H171035   5.577   0.734   4.338  0.1684  0.2691  1.7408
16540TIP3    H271036   5.552   0.794   4.201 -0.5814 -2.8439  0.4194
16541TIP3   OH271037   3.865   5.780  11.658 -1.0054  0.1707 -0.5141
16541TIP3    H171038   3.833   5.866  11.629 -2.0251 -0.1393 -0.3433
16541TIP3    H271039   3.850   5.779  11.752 -2.0596 -0.6249 -0.6746
16542TIP3   OH271040   2.088   0.605   3.890 -0.4438  0.3803  0.3252
16542TIP3    H171041   2.001   0.613   3.930  0.0879 -0.6898  1.7928
16542TIP3    H271042   2.100   0.511   3.878  0.0644  0.5937 -0.9480
16543TIP3   OH271043   5.706   3.017   3.395 -0.1275 -0.2390  0.0785
16543TIP3    H171044   5.735   2.998   3.484 -0.2055 -0.1876  0.1154
16543TIP3    H271045   5.655   3.098   3.404 -0.3251 -0.3563  0.0235
16544TIP3   OH271046   6.020   6.511  12.093  0.6082 -0.2055 -0.0942
16544TIP3    H171047   6.105   6.523  12.135  1.8586 -0.7538 -2.2845
16544TIP3    H271048   6.029   6.429  12.045 -1.2581 -0.3894 -0.1800
16545TIP3   OH271049   2.262   1.083   4.069 -0.5899 -0.4331 -0.1685
16545TIP3    H171050   2.345   1.116   4.104 -0.8286  0.8466 -0.7388
16545TIP3    H271051   2.226   1.029   4.139 -0.0584  0.3532  0.7362
16546TIP3   OH271052   4.556   4.140  14.364 -0.7820  0.0558  0.4823
16546TIP3    H171053   4.571   4.095  14.447 -1.4810  2.1640  1.8426
16546TIP3    H271054   4.642   4.140  14.321 -0.3251 -0.7725  1.3625
16547TIP3   OH271055   0.791   6.375  15.086  0.3185 -0.6541 -0.0288
16547TIP3    H171056   0.852   6.332  15.027  1.2479 -0.3257  0.6702
16547TIP3    H271057   0.752   6.304  15.137 -0.7773 -0.9776 -1.2748
16548TIP3   OH271058   6.008   2.794  15.946 -0.0050 -0.1603  0.0406
16548TIP3    H171059   5.979   2.883  15.963  0.2316 -0.0046 -0.3703
16548TIP3    H271060   5.930   2.740  15.959  0.1541 -0.0596  1.6170
16549TIP3   OH271061   4.468   0.737   6.655 -0.0988 -0.1885 -0.4893
16549TIP3    H171062   4.552   0.734   6.610  0.6350 -1.5274  0.8836
16549TIP3    H271063   4.412   0.677   6.605 -0.2657  0.6938 -1.3966
16550TIP3   OH271064   5.485   3.860  10.663 -0.0652  0.0725 -0.3446
16550TIP3    H171065   5.422   3.886  10.595 -0.4560 -1.0896 -0.4429
16550TIP3    H271066   5.472   3.923  10.733 -0.8939  0.2297 -0.6297
16551TIP3   OH271067   0.015   0.158  13.601  0.3398 -0.3333 -0.5588
16551TIP3    H171068   0.007   0.172  13.507 -0.3259  3.2704 -0.0844
16551TIP3    H271069   0.065   0.232  13.633  0.8973 -1.6638  1.9379
16552TIP3   OH271070   2.286   3.298  10.730  0.0013  0.4092  0.1128
16552TIP3    H171071   2.300   3.218  10.679  0.5423  1.0493 -0.7916
16552TIP3    H271072   2.201   3.331  10.700  0.5234  1.0243 -0.7450
16553TIP3   OH271073   4.608   2.907   3.276 -0.3748  0.4985  0.5652
16553TIP3    H171074   4.676   2.910   3.209 -0.7169 -0.1144  0.1760
16553TIP3    H271075   4.621   2.823   3.320 -1.6442 -0.2243 -0.3633
16554TIP3   OH271076   3.943   1.640   5.533 -0.4187 -0.2801 -0.0632
16554TIP3    H171077   3.925   1.548   5.514  1.6132 -0.7148 -0.0843
16554TIP3    H271078   3.868   1.687   5.495 -1.5730 -1.9035  0.0891
16555TIP3   OH271079   1.294   6.068  15.418  0.2945  0.0568  0.3390
16555TIP3    H171080   1.356   6.105  15.481  0.4131 -1.2849  1.0467
16555TIP3    H271081   1.240   6.142  15.391  1.5656  1.0620  0.4494
16556TIP3   OH271082   2.563   6.425  10.503 -1.1951  0.0088 -0.0102
16556TIP3    H171083   2.526   6.512  10.488  2.7156  1.9682  0.3817
16556TIP3    H271084   2.584   6.423  10.596 -0.4397 -1.0007 -0.1814
16557TIP3   OH271085   1.078   5.403  11.532 -0.5223  0.3928 -0.1510
16557TIP3    H171086   1.003   5.404  11.591 -0.6353  1.3158 -0.2986
16557TIP3    H271087   1.108   5.493  11.529 -0.4809  0.3607 -1.4588
16558TIP3   OH271088   3.008   4.283   0.896  0.4169  0.3693 -0.9078
16558TIP3    H171089   2.980   4.293   0.805 -0.3469 -1.5567 -0.9389
16558TIP3    H271090   3.039   4.370   0.922 -1.8059  1.6119 -2.1708
16559TIP3   OH271091   6.571   5.457  16.236 -0.0957  1.0805 -0.8923
16559TIP3    H171092   6.490   5.498  16.206 -0.6386 -0.5329 -1.7957
16559TIP3    H271093   6.555   5.363  16.226  1.7862  0.7076 -0.8096
16560TIP3   OH271094   1.803   0.697  12.747  0.1249 -0.2530 -0.1591
16560TIP3    H171095   1.788   0.764  12.813  2.7746 -0.4814  0.8393
16560TIP3    H271096   1.831   0.620  12.798 -0.4236 -1.3250 -1.4136
16561TIP3   OH271097   2.190   4.423   5.551  0.2594  0.2017  0.1275
16561TIP3    H171098   2.145   4.373   5.483  0.3720 -0.4319  0.5140
16561TIP3    H271099   2.155   4.512   5.543  0.8496  0.3457 -1.2953
16562TIP3   OH271100   5.457   3.971  13.118 -0.9734  0.2706  0.6005
16562TIP3    H171101   5.378   4.021  13.139 -1.6810 -1.2103  1.6115
16562TIP3    H271102   5.500   3.958  13.202 -0.4254 -0.2146  0.2534
16563TIP3   OH271103   4.934   5.913   1.734 -0.2588 -0.5153 -0.0236
16563TIP3    H171104   4.847   5.875   1.746 -1.2146  0.4258 -3.1203
16563TIP3    H271105   4.984   5.844   1.691  0.1870 -0.6489  0.6963
16564TIP3   OH271106   4.278   6.092  10.580  0.0869  0.1130 -0.2553
16564TIP3    H171107   4.247   6.133  10.661 -1.1049 -0.4131 -0.4252
16564TIP3    H271108   4.278   5.998  10.599  1.5338  0.0765 -0.2988
16565TIP3   OH271109   4.870   5.081   2.723 -0.4634 -0.4158 -0.3520
16565TIP3    H171110   4.834   5.122   2.802 -1.6774 -0.2476 -0.9717
16565TIP3    H271111   4.871   5.151   2.658 -0.5486 -0.8481 -0.8226
16566TIP3   OH271112   5.049   5.478  12.411  0.3405 -0.2111 -0.2879
16566TIP3    H171113   5.091   5.540  12.471  0.6402  1.0142 -1.7030
16566TIP3    H271114   4.971   5.524  12.380 -0.5958 -1.3991  0.2358
16567TIP3   OH271115   5.623   4.105   5.918  0.0538 -0.4724 -0.6324
16567TIP3    H171116   5.715   4.116   5.940  0.3718  1.4004 -2.6301
16567TIP3    H271117   5.618   4.017   5.880  1.3899  0.0296 -2.0623
16568TIP3   OH271118   2.010   3.125  15.018  0.2128  0.1030 -0.0617
16568TIP3    H171119   2.087   3.078  15.050 -0.5999 -0.4978  1.1001
16568TIP3    H271120   2.002   3.201  15.077  0.2578  0.4941 -0.5534
16569TIP3   OH271121   4.035   1.735   2.585 -0.1741  0.0706  0.6250
16569TIP3    H171122   4.065   1.724   2.495 -0.6004 -0.3148  0.5281
16569TIP3    H271123   4.061   1.654   2.629 -1.2444 -0.3642  0.4873
16570TIP3   OH271124   2.212   2.557  13.823  0.1848  0.2171  0.3849
16570TIP3    H171125   2.171   2.612  13.890  1.5869  0.1150  1.3675
16570TIP3    H271126   2.300   2.593  13.813  0.4716 -0.6527 -0.3848
16571TIP3   OH271127   5.996   2.749   2.753  0.6833  0.1894 -0.6541
16571TIP3    H171128   6.002   2.839   2.722  3.3268 -0.0034 -1.0064
16571TIP3    H271129   6.085   2.729   2.784  0.1626 -2.2656 -0.5500
16572TIP3   OH271130   6.566   0.867   0.317 -0.1127  0.2633 -0.1377
16572TIP3    H171131   6.516   0.920   0.379 -2.0709 -1.5951 -0.0114
16572TIP3    H271132   6.510   0.861   0.240  0.0784 -1.4983 -0.1766
16573TIP3   OH271133   2.710   4.184  14.962 -0.2113 -0.0662  0.3957
16573TIP3    H171134   2.636   4.219  15.012  0.2332  0.7069  0.5368
16573TIP3    H271135   2.691   4.209  14.871 -1.6699 -2.5952 -0.0790
16574TIP3   OH271136   5.879   1.004   4.466 -0.5780 -0.5912  0.0894
16574TIP3    H171137   5.829   1.055   4.528 -1.0130  0.0565 -0.7802
16574TIP3    H271138   5.874   0.914   4.500 -0.5017 -0.2051  1.1688
16575TIP3   OH271139   1.954   6.656  15.467 -0.2280  0.3625 -0.2371
16575TIP3    H171140   1.870   6.622  15.496 -0.5804 -0.1140 -1.7276
16575TIP3    H271141   1.972   6.730  15.526 -0.7437 -0.6988  1.3192
16576TIP3   OH271142   2.014   5.366  14.751  0.6979 -0.1951 -0.4549
16576TIP3    H171143   1.942   5.427  14.765  1.1114  0.4196 -0.9708
16576TIP3    H271144   1.980   5.282  14.784 -0.0512  0.1937 -0.1962
16577TIP3   OH271145   4.837   0.843  13.991  0.5261  0.3259  0.4879
16577TIP3    H171146   4.845   0.882  13.904 -0.0851 -0.5440  0.0237
16577TIP3    H271147   4.925   0.812  14.012  0.2488 -1.5797 -0.8704
16578TIP3   OH271148   0.326   3.695  17.185 -0.2526 -0.0856  0.2062
16578TIP3    H171149   0.257   3.720  17.246  0.7280  0.7585  0.9964
16578TIP3    H271150   0.280   3.655  17.112 -1.4547 -1.3678  1.5932
16579TIP3   OH271151   5.029   1.484   3.102 -0.1424 -0.0336 -0.0463
16579TIP3    H171152   5.076   1.494   3.185  2.2719 -0.7734 -1.2278
16579TIP3    H271153   4.968   1.411   3.118  0.5331 -0.4042  0.9825
16580TIP3   OH271154   4.824   0.133   5.526  0.0080 -0.1458 -0.1656
16580TIP3    H171155   4.801   0.043   5.502  0.4691 -0.3448  0.1264
16580TIP3    H271156   4.752   0.186   5.491 -0.8538 -0.7363  0.6699
16581TIP3   OH271157   0.140   4.984  14.808 -0.0890 -0.0849 -0.1151
16581TIP3    H171158   0.124   5.055  14.870  0.3563 -1.1075  1.2135
16581TIP3    H271159   0.056   4.970  14.764  0.2033  2.3274 -1.6173
16582TIP3   OH271160   1.862   1.240  13.549 -0.5015  0.0467 -0.3718
16582TIP3    H171161   1.855   1.260  13.642 -1.4204 -0.6154 -0.2824
16582TIP3    H271162   1.944   1.281  13.522  0.9620 -1.6590  1.2165
16583TIP3   OH271163   6.310   2.864  11.973  0.1027 -0.4699  0.3051
16583TIP3    H171164   6.308   2.950  11.931  0.3743 -0.1274  0.9940
16583TIP3    H271165   6.401   2.852  12.000  0.2873 -1.3887 -0.6216
16584TIP3   OH271166   1.812   2.972  13.024 -0.3728 -0.5895  0.3541
16584TIP3    H171167   1.719   2.981  13.007 -0.0512  1.7788 -0.5593
16584TIP3    H271168   1.853   2.975  12.937  0.5923 -0.5288  0.7952
16585TIP3   OH271169   4.651   2.319  16.100 -0.3322 -0.4238 -0.6460
16585TIP3    H171170   4.641   2.411  16.126 -2.4997 -0.8819  0.4418
16585TIP3    H271171   4.627   2.270  16.179  2.8307 -2.0004 -0.5250
16586TIP3   OH271172   2.237   5.038   5.248 -0.6966  0.1101 -0.3118
16586TIP3    H171173   2.160   5.030   5.192 -0.4937 -0.7139 -0.4836
16586TIP3    H271174   2.306   5.071   5.190 -1.2195  2.0739  0.1207
16587TIP3   OH271175   4.596   5.175   3.207  0.5411 -0.0854 -0.2937
16587TIP3    H171176   4.515   5.127   3.223  0.9092 -0.6830 -0.1601
16587TIP3    H271177   4.656   5.109   3.170  1.0319  0.2891 -0.1796
16588TIP3   OH271178   2.962   6.514   6.298  0.1844 -0.2349  0.3397
16588TIP3    H171179   2.906   6.437   6.312  0.1847 -0.3372 -0.2166
16588TIP3    H271180   2.935   6.575   6.367  0.3226 -0.8073  0.9089
16589TIP3   OH271181   3.996   0.864   2.760 -0.2728 -0.0351  0.4023
16589TIP3    H171182   3.941   0.797   2.801  0.2135 -0.1785  0.8285
16589TIP3    H271183   3.947   0.945   2.769 -0.9024 -0.3364 -0.1779
16590TIP3   OH271184   3.711   3.459   4.893  0.8556  0.7558 -0.7439
16590TIP3    H171185   3.689   3.416   4.811  0.3632 -0.8919  0.2034
16590TIP3    H271186   3.805   3.476   4.887  0.7452  1.0900 -1.8046
16591TIP3   OH271187   3.655   2.382   4.099 -0.1800 -0.2420  0.2039
16591TIP3    H171188   3.656   2.287   4.098 -0.8492 -0.2538 -0.2254
16591TIP3    H271189   3.632   2.406   4.189  0.0051 -0.4800  0.3149
16592TIP3   OH271190   0.629   4.467  11.542  0.4024 -0.2105  0.3339
16592TIP3    H171191   0.568   4.393  11.545 -0.4697  0.4452 -0.5912
16592TIP3    H271192   0.601   4.518  11.466  1.5632  0.5864  0.4167
16593TIP3   OH271193   4.274   5.216   3.833  0.1954 -0.1152  0.0008
16593TIP3    H171194   4.190   5.241   3.872 -0.6166 -0.5019 -1.4347
16593TIP3    H271195   4.323   5.177   3.905 -1.1957 -0.6821  0.6813
16594TIP3   OH271196   1.032   6.060   3.913 -0.1305 -0.1482  0.1782
16594TIP3    H171197   1.113   6.052   3.862  1.7699  1.0693  2.7871
16594TIP3    H271198   1.023   6.154   3.928 -0.5772 -0.4694  2.0862
16595TIP3   OH271199   2.732   2.814  15.961  0.0011 -0.4851  0.4463
16595TIP3    H171200   2.692   2.732  15.991 -2.2490  0.0679 -0.8140
16595TIP3    H271201   2.809   2.786  15.911 -1.4326 -1.9869 -1.0713
16596TIP3   OH271202   1.323   1.442  13.394  0.6036  0.1505 -0.0675
16596TIP3    H171203   1.291   1.372  13.338 -0.5965  0.7640 -0.1794
16596TIP3    H271204   1.399   1.405  13.438  1.1903 -0.5544 -1.6004
16597TIP3   OH271205   4.550   2.282   6.912 -0.4810  0.0194  0.5539
16597TIP3    H171206   4.579   2.198   6.877 -0.0638 -0.8523  2.7976
16597TIP3    H271207   4.583   2.347   6.849 -0.0281 -1.4146 -0.7570
16598TIP3   OH271208   4.465   6.580  14.244 -0.0695 -0.7327 -0.3478
16598TIP3    H171209   4.454   6.637  14.320 -0.8620 -0.3804 -0.7168
16598TIP3    H271210   4.539   6.525  14.266  1.4339  1.1541 -0.4175
16599TIP3   OH271211   6.620   0.221  14.454  0.1775  0.5861  0.0331
16599TIP3    H171212   6.585   0.290  14.510 -0.3918  0.7521 -0.5129
16599TIP3    H271213   6.647   0.267  14.374 -1.0242  0.0701 -0.6910
16600TIP3   OH271214   5.002   3.271  14.058  0.2039 -0.2042  0.7509
16600TIP3    H171215   4.999   3.361  14.024 -1.1746  0.6011  2.7812
16600TIP3    H271216   4.910   3.244  14.061  0.6375 -1.9494 -0.3571
16601TIP3   OH271217   6.038   2.578  12.537 -0.2298  0.0545 -0.1712
16601TIP3    H171218   6.068   2.638  12.606  0.2650 -2.0859  1.5612
16601TIP3    H271219   6.118   2.536  12.505 -0.3378  1.5059 -2.6965
16602TIP3   OH271220   4.292   4.140  13.416  0.3166  0.4962  0.1507
16602TIP3    H171221   4.311   4.169  13.506 -0.2959 -0.6116  0.6608
16602TIP3    H271222   4.197   4.142  13.410  0.3924  2.4277 -1.1563
16603TIP3   OH271223   5.178   6.602   5.705 -0.6211 -0.2689  0.2885
16603TIP3    H171224   5.120   6.527   5.719 -0.8202 -0.5312 -1.6230
16603TIP3    H271225   5.264   6.563   5.690 -1.1751 -0.4739 -3.4520
16604TIP3   OH271226   0.670   3.210  15.765  0.0484  0.0244 -0.1043
16604TIP3    H171227   0.706   3.294  15.796  0.5695 -0.5989  1.0465
16604TIP3    H271228   0.738   3.174  15.709  0.7123 -0.5557  1.0401
16605TIP3   OH271229   5.522   6.628   0.961 -1.5402  0.1139  0.0196
16605TIP3    H171230   5.429   6.609   0.971 -1.5485 -0.0702 -0.3975
16605TIP3    H271231   5.567   6.552   1.000 -1.5410  0.7759  1.4007
16606TIP3   OH271232   4.942   4.016   2.284 -0.2039  0.4128  0.1037
16606TIP3    H171233   4.848   4.009   2.267 -0.2242 -1.5887  0.7898
16606TIP3    H271234   4.968   4.098   2.240 -1.4351 -1.0833 -3.8719
16607TIP3   OH271235   4.244   1.927   6.421 -0.4135  0.5221 -0.0650
16607TIP3    H171236   4.166   1.872   6.411 -1.9896  2.4827  0.8187
16607TIP3    H271237   4.309   1.869   6.460 -1.5610 -1.0494 -0.3724
16608TIP3   OH271238   1.981   6.189  16.097 -0.1972  0.8740  0.2632
16608TIP3    H171239   2.000   6.181  16.190 -0.6737 -1.1683  0.2400
16608TIP3    H271240   1.886   6.187  16.091 -0.2504  2.8847 -0.1738
16609TIP3   OH271241   5.147   4.989  13.298  0.4253  0.0913 -0.1238
16609TIP3    H171242   5.166   5.081  13.319  1.7615  0.1455 -1.3709
16609TIP3    H271243   5.090   4.993  13.222  1.2571 -0.0976 -0.7698
16610TIP3   OH271244   3.824   2.759  15.965 -0.2216 -0.1353  0.2941
16610TIP3    H171245   3.840   2.791  15.877  0.5415 -0.6417  0.2446
16610TIP3    H271246   3.735   2.722  15.961 -0.2092 -0.1144 -0.2460
16611TIP3   OH271247   2.248   4.432   5.851 -0.0913  0.1747 -0.1008
16611TIP3    H171248   2.235   4.527   5.852 -1.4336  0.0060 -0.0515
16611TIP3    H271249   2.259   4.411   5.758  1.4458  0.5129 -0.0182
16612TIP3   OH271250   3.673   0.996   4.942  0.0777  0.4379 -0.3345
16612TIP3    H171251   3.721   0.984   4.860 -0.5079  0.9765 -0.7589
16612TIP3    H271252   3.602   1.055   4.920 -1.0920 -0.7334  0.1758
16613TIP3   OH271253   6.002   3.723  11.787  0.2135 -0.5501  0.1197
16613TIP3    H171254   5.971   3.714  11.697  0.5835 -4.0557  0.2316
16613TIP3    H271255   5.931   3.770  11.831 -0.7348 -0.2851 -1.5882
16614TIP3   OH271256   1.568   6.653  15.671  0.3647  0.3156 -0.8327
16614TIP3    H171257   1.531   6.586  15.728  1.2094 -0.0014 -0.6352
16614TIP3    H271258   1.577   6.730  15.728  0.5545  0.2104 -0.7165
16615TIP3   OH271259   0.156   1.773   5.231 -0.3432  0.0883  0.2836
16615TIP3    H171260   0.084   1.822   5.269  0.2568  2.0134 -0.9171
16615TIP3    H271261   0.117   1.691   5.200 -1.8621  0.8076  0.2389
16616TIP3   OH271262   1.627   6.333  12.885  0.1071  0.2026 -0.6083
16616TIP3    H171263   1.611   6.254  12.834 -1.2246  0.8329 -1.2428
16616TIP3    H271264   1.607   6.405  12.824 -1.1786  0.9816  0.6525
16617TIP3   OH271265   1.261   1.873  15.599  0.0127  0.0129 -0.3251
16617TIP3    H171266   1.170   1.871  15.569 -0.1478 -0.0248  0.1515
16617TIP3    H271267   1.266   1.950  15.656  0.0481 -0.4779  0.3488
16618TIP3   OH271268   4.333   3.708  14.807 -0.8053 -0.0711 -0.6089
16618TIP3    H171269   4.421   3.690  14.840 -0.3857  1.2188 -0.9637
16618TIP3    H271270   4.312   3.796  14.840 -2.8034 -1.1448  1.1706
16619TIP3   OH271271   4.079   5.874  10.466 -0.3161 -1.0019  0.0626
16619TIP3    H171272   4.069   5.891  10.560  0.9427  0.0491  0.0361
16619TIP3    H271273   4.171   5.891  10.448 -0.8679  0.5457 -1.6903
16620TIP3   OH271274   2.754   4.459  14.807 -0.4027  0.6171 -0.3211
16620TIP3    H171275   2.761   4.554  14.797  0.3918  0.4680 -1.2611
16620TIP3    H271276   2.662   4.440  14.788 -0.5090  1.1659 -0.3777
16621TIP3   OH271277   6.291   4.113   3.509 -0.3082  0.5119  0.0554
16621TIP3    H171278   6.366   4.146   3.560 -0.3836  0.0553  0.4615
16621TIP3    H271279   6.217   4.119   3.569 -0.1231 -1.4854  0.5637
16622TIP3   OH271280   1.954   4.585  14.651 -0.3040  0.3925  0.1444
16622TIP3    H171281   2.007   4.520  14.697  2.3820  0.4718 -2.5321
16622TIP3    H271282   1.936   4.546  14.565  1.5559  3.1015 -1.6385
16623TIP3   OH271283   4.052   4.376  12.692 -0.0285  0.1179  0.2789
16623TIP3    H171284   4.075   4.285  12.715 -1.3927  0.0418  1.4558
16623TIP3    H271285   4.087   4.387  12.604  3.0084 -0.4992  1.2639
16624TIP3   OH271286   2.598   6.207  14.927  0.2264 -0.0652 -0.7309
16624TIP3    H171287   2.531   6.140  14.940  1.6760 -1.4234  0.1277
16624TIP3    H271288   2.557   6.288  14.955 -1.5690 -0.5654 -1.7556
16625TIP3   OH271289   6.325   4.747  16.176 -0.2151  0.3742  0.1484
16625TIP3    H171290   6.411   4.770  16.142  0.1042  1.4437  1.5512
16625TIP3    H271291   6.263   4.795  16.121  0.2388  1.3908  0.4920
16626TIP3   OH271292   0.576   3.094  12.394 -0.1246 -0.1871  0.5623
16626TIP3    H171293   0.508   3.147  12.435  0.4737  1.1423 -0.0961
16626TIP3    H271294   0.602   3.143  12.317  2.1849 -0.2017  1.2538
16627TIP3   OH271295   3.583   4.825   4.862 -0.3392  0.8499 -0.4474
16627TIP3    H171296   3.554   4.898   4.916 -0.5570  1.2196 -1.0589
16627TIP3    H271297   3.620   4.865   4.783 -3.2790  0.3304 -2.2620
16628TIP3   OH271298   5.812   6.064  17.137 -0.0059 -0.3494 -0.3601
16628TIP3    H171299   5.811   5.979  17.180 -0.8152 -0.9227 -1.4928
16628TIP3    H271300   5.721   6.092  17.136  0.3788  1.1549  1.1439
16629TIP3   OH271301   0.782   4.615  14.688  0.3713 -0.0791 -0.5802
16629TIP3    H171302   0.821   4.535  14.725  1.1917 -1.2582 -3.6869
16629TIP3    H271303   0.688   4.597  14.685  0.2793  0.0649  0.8724
16630TIP3   OH271304   5.357   4.400  11.361  0.0416  0.2958 -0.0904
16630TIP3    H171305   5.396   4.315  11.383  0.7284  0.4699 -0.5769
16630TIP3    H271306   5.430   4.462  11.371 -0.5460  0.8860  0.6239
16631TIP3   OH271307   3.401   0.281   0.963  0.5434  0.3344 -0.0696
16631TIP3    H171308   3.338   0.352   0.951  0.2927  0.0037 -0.7574
16631TIP3    H271309   3.487   0.324   0.961  0.3359  0.9342  1.9293
16632TIP3   OH271310   1.742   1.190   0.085 -0.5840  0.2129  0.1063
16632TIP3    H171311   1.804   1.117   0.097  0.3480  0.6974 -1.4219
16632TIP3    H271312   1.656   1.149   0.088 -0.1435 -0.7046  0.8284
16633TIP3   OH271313   1.139   6.154  16.347 -0.1321 -0.1362 -0.0318
16633TIP3    H171314   1.098   6.119  16.426 -1.5244 -0.7916 -1.0078
16633TIP3    H271315   1.067   6.194  16.298  0.6715  0.1162 -1.0444
16634TIP3   OH271316   0.031   6.056   3.392  0.2363  0.4234 -0.1930
16634TIP3    H171317  -0.055   6.095   3.375 -0.3609 -0.7695 -0.0199
16634TIP3    H271318   0.094   6.124   3.366 -0.7553  1.5116  0.1862
16635TIP3   OH271319   6.755   5.311   0.961 -0.2747  0.5222  0.0699
16635TIP3    H171320   6.721   5.342   0.877  1.2368  0.3540 -0.6191
16635TIP3    H271321   6.770   5.218   0.948  2.1264  0.8944 -0.2656
16636TIP3   OH271322   3.327   0.820   5.660 -0.2566  0.0161  0.4079
16636TIP3    H171323   3.403   0.867   5.692  0.1478 -0.4771  0.1902
16636TIP3    H271324   3.295   0.770   5.736 -2.3541  2.6734  1.4564
16637TIP3   OH271325   2.807   3.092   0.752 -0.1656  0.0922  0.9252
16637TIP3    H171326   2.856   3.171   0.729  0.5992 -0.2423  1.3574
16637TIP3    H271327   2.776   3.109   0.841 -0.5199  0.1525  0.7901
16638TIP3   OH271328   0.455   2.705   1.152 -0.1395  0.7134  0.2634
16638TIP3    H171329   0.411   2.628   1.188 -3.1669  2.1536 -0.0464
16638TIP3    H271330   0.464   2.764   1.226  0.2852  0.8807  0.0820
16639TIP3   OH271331   2.865   6.172   1.583  0.5571  0.3697  0.4271
16639TIP3    H171332   2.772   6.181   1.603  0.6481  0.7302  0.7057
16639TIP3    H271333   2.867   6.116   1.505  0.1000  0.4795  0.3286
16640TIP3   OH271334   4.635   4.159  14.994  0.0687  0.0413 -0.0223
16640TIP3    H171335   4.712   4.107  14.970  0.5576  1.3822 -1.5188
16640TIP3    H271336   4.652   4.245  14.957 -2.2819  0.3261 -0.6032
16641TIP3   OH271337   5.981   4.737   5.638 -0.4847  0.3709 -0.5029
16641TIP3    H171338   6.058   4.681   5.650 -0.9530  0.3537  4.2750
16641TIP3    H271339   6.016   4.818   5.601  1.9699  0.4607  1.7277
16642TIP3   OH271340   0.160   5.437   1.135 -0.6178 -0.4871 -0.3499
16642TIP3    H171341   0.195   5.354   1.166 -0.1958 -0.2463 -0.1747
16642TIP3    H271342   0.093   5.413   1.071 -0.4410 -0.9574 -0.3587
16643TIP3   OH271343   2.721   3.094  11.312  0.3514 -0.4342 -0.8507
16643TIP3    H171344   2.657   3.093  11.383  2.1758 -0.8558  0.8886
16643TIP3    H271345   2.680   3.043  11.242  0.5315 -5.0199  1.9367
16644TIP3   OH271346   6.282   6.674   1.932  0.3644 -0.6142 -0.3089
16644TIP3    H171347   6.190   6.653   1.949 -0.9339  0.7348 -4.4285
16644TIP3    H271348   6.309   6.610   1.866  1.1228  1.2574 -1.8942
16645TIP3   OH271349   5.719   6.059  15.302  0.2757 -0.4536  0.0848
16645TIP3    H171350   5.798   6.008  15.321  0.0123 -1.2551 -0.8718
16645TIP3    H271351   5.713   6.121  15.374 -0.2341 -2.7685  2.1733
16646TIP3   OH271352   4.386   2.578   6.212  0.0401  0.0558 -0.2934
16646TIP3    H171353   4.456   2.642   6.196 -1.0638  1.8240  1.3882
16646TIP3    H271354   4.416   2.528   6.288 -0.8806  1.5053  1.0803
16647TIP3   OH271355   2.965   0.766   3.756 -0.1264  0.0535  0.5634
16647TIP3    H171356   2.957   0.677   3.720  1.3394 -0.4656  1.4405
16647TIP3    H271357   2.876   0.791   3.780 -0.6740 -0.8452 -0.4532
16648TIP3   OH271358   5.962   5.030   3.279  0.1044 -0.4512 -0.1545
16648TIP3    H171359   6.041   5.000   3.323  0.4799 -0.6416 -0.9335
16648TIP3    H271360   5.951   4.969   3.205 -0.3202  0.0490 -0.5157
16649TIP3   OH271361   1.300   5.685   5.951 -0.5589 -0.6810  0.3531
16649TIP3    H171362   1.223   5.739   5.934 -0.6234 -0.6587  0.6966
16649TIP3    H271363   1.373   5.746   5.952 -0.7819 -0.3926  1.9854
16650TIP3   OH271364   4.820   2.406   0.262  0.5413 -0.9117 -0.3645
16650TIP3    H171365   4.792   2.457   0.186 -1.7661 -1.7621 -0.1612
16650TIP3    H271366   4.805   2.465   0.336  1.4110 -0.5995 -0.4272
16651TIP3   OH271367   0.859   2.391   2.750  0.1657 -0.5011  0.0599
16651TIP3    H171368   0.938   2.426   2.709 -0.0180 -0.6074 -0.3962
16651TIP3    H271369   0.829   2.324   2.688 -1.1681  0.6297 -0.5638
16652TIP3   OH271370   1.003   4.250   6.409 -0.3769 -0.4685  0.1487
16652TIP3    H171371   0.971   4.175   6.359  1.4010 -0.5878 -0.8886
16652TIP3    H271372   1.093   4.263   6.379  0.2803  0.3931  2.2776
16653TIP3   OH271373   6.681   5.041  15.505 -0.2583  0.2306  0.2461
16653TIP3    H171374   6.645   4.991  15.432  0.1705 -0.7351  0.6799
16653TIP3    H271375   6.676   5.132  15.477 -0.7671 -0.0754 -0.6877
16654TIP3   OH271376   6.515   2.560   3.457 -0.0308 -0.3377  0.0282
16654TIP3    H171377   6.432   2.516   3.441  0.4553 -0.3818 -2.9065
16654TIP3    H271378   6.504   2.648   3.419  0.5153  0.5348  1.7531
16655TIP3   OH271379   2.785   3.868  11.289  0.1320  0.6103 -0.3852
16655TIP3    H171380   2.867   3.830  11.322 -1.7429 -1.4692  2.3579
16655TIP3    H271381   2.769   3.822  11.207  0.6644 -0.6332  0.1707
16656TIP3   OH271382   2.285   0.398  11.096  0.1216 -0.2491 -0.3499
16656TIP3    H171383   2.339   0.442  11.162 -0.7603 -0.3425  0.4493
16656TIP3    H271384   2.244   0.469  11.047 -2.8498 -0.0138  2.1833
16657TIP3   OH271385   0.291   3.620  16.322  0.2240 -0.0399  0.3309
16657TIP3    H171386   0.316   3.694  16.266 -0.4791 -0.1196 -0.0993
16657TIP3    H271387   0.250   3.558  16.262 -0.4530 -0.1684  0.9181
16658TIP3   OH271388   4.814   2.546  14.619 -0.0422 -0.3793  0.3994
16658TIP3    H171389   4.838   2.456  14.641  1.2760 -0.0068  0.6138
16658TIP3    H271390   4.898   2.591  14.609 -0.6396  0.4638 -1.2850
16659TIP3   OH271391   3.870   3.813   2.390  0.0059  0.6122 -0.3672
16659TIP3    H171392   3.785   3.849   2.415 -0.4561  0.0098 -1.0158
16659TIP3    H271393   3.860   3.792   2.297  0.4929 -0.4677 -0.1906
16660TIP3   OH271394   2.640   5.461   5.307  0.0099  0.7434 -0.0293
16660TIP3    H171395   2.683   5.537   5.346  0.9927  0.1527  0.0858
16660TIP3    H271396   2.679   5.386   5.353 -0.7992  0.1649 -0.2722
16661TIP3   OH271397   6.385   3.980  16.058  0.3955  0.0027  0.0381
16661TIP3    H171398   6.450   4.021  16.116  0.9733 -1.5447  0.5336
16661TIP3    H271399   6.310   3.963  16.114  0.5649 -0.5784  0.0874
16662TIP3   OH271400   1.653   2.063  12.604 -0.6378 -0.0402  0.2590
16662TIP3    H171401   1.583   2.116  12.565 -1.2777 -0.3707  0.9191
16662TIP3    H271402   1.607   1.987  12.641 -0.3897  1.1608  3.3468
16663TIP3   OH271403   2.331   3.020   6.646 -0.0508 -0.2807  0.1877
16663TIP3    H171404   2.335   3.041   6.553  0.9821  0.5923  0.4089
16663TIP3    H271405   2.419   3.038   6.678  0.0822 -2.1890  1.0122
16664TIP3   OH271406   3.683   4.313   3.762  0.8746 -0.4113  0.6445
16664TIP3    H171407   3.661   4.268   3.844 -0.6064 -0.8139  0.0510
16664TIP3    H271408   3.775   4.290   3.746  0.7230 -1.5967  1.3811
16665TIP3   OH271409   3.345   6.467  15.080  0.5676 -0.5104  0.2659
16665TIP3    H171410   3.310   6.554  15.060 -0.9028 -1.0432  0.4394
16665TIP3    H271411   3.339   6.459  15.175 -1.8941 -1.7942  0.0886
16666TIP3   OH271412   6.260   5.391   0.079 -0.0081 -0.1075 -0.1138
16666TIP3    H171413   6.348   5.396   0.118  0.2231  2.2360 -0.8210
16666TIP3    H271414   6.242   5.297   0.075  1.7367 -0.5981  1.6459
16667TIP3   OH271415   1.162   6.405  15.090  0.1142  0.4371  1.1064
16667TIP3    H171416   1.210   6.411  15.007  1.0342 -0.1505  1.5754
16667TIP3    H271417   1.117   6.321  15.085  1.3054 -0.2683  1.7628
16668TIP3   OH271418   1.361   1.733  11.721  0.0179  0.3191 -0.3600
16668TIP3    H171419   1.373   1.779  11.805  1.3024 -0.3836 -0.1277
16668TIP3    H271420   1.428   1.664  11.722  0.4000  0.6177 -2.1850
16669TIP3   OH271421   3.456   3.925  12.459 -0.2556  0.0803 -0.2997
16669TIP3    H171422   3.435   4.018  12.456  0.4520  0.2675  0.3741
16669TIP3    H271423   3.550   3.921  12.440 -0.4169 -0.5526 -0.9946
16670TIP3   OH271424   2.849   1.865   2.634 -0.3287  0.1437  0.3337
16670TIP3    H171425   2.907   1.890   2.706 -1.1560  1.4788  0.5810
16670TIP3    H271426   2.763   1.897   2.661 -0.5161  1.4251 -1.5847
16671TIP3   OH271427   3.824   6.137   4.633 -0.0210 -0.3768 -0.3736
16671TIP3    H171428   3.752   6.194   4.659  0.7584  0.6204 -0.3394
16671TIP3    H271429   3.832   6.151   4.538 -0.5032 -1.2410 -0.5499
16672TIP3   OH271430   4.273   4.368   2.627 -0.1819 -0.2036  0.7072
16672TIP3    H171431   4.289   4.274   2.640 -0.6086 -0.3799 -0.0122
16672TIP3    H271432   4.318   4.389   2.546  0.3164  0.3300  1.1151
16673TIP3   OH271433   5.614   3.912   2.289 -0.3173 -0.2685 -0.5527
16673TIP3    H171434   5.553   3.855   2.337 -0.8133 -0.0351 -0.8963
16673TIP3    H271435   5.685   3.853   2.261  0.1178 -0.3521  0.6876
16674TIP3   OH271436   6.759   2.077   2.170 -0.0522 -0.0468 -0.0308
16674TIP3    H171437   6.814   2.081   2.248 -0.8564 -1.3115  0.6350
16674TIP3    H271438   6.819   2.053   2.100  0.5199  0.1736  0.3710
16675TIP3   OH271439   2.784   6.038  13.744 -0.0934  0.3224 -0.4702
16675TIP3    H171440   2.714   6.028  13.809 -0.4696 -0.7895 -1.0259
16675TIP3    H271441   2.780   5.958  13.692 -0.4925  1.6253 -2.5509
16676TIP3   OH271442   3.497   2.486   5.108 -0.5310  0.3654  0.0701
16676TIP3    H171443   3.546   2.432   5.170  2.1675  2.1006 -0.3639
16676TIP3    H271444   3.420   2.515   5.156 -0.4826 -1.3846  1.2763
16677TIP3   OH271445   0.216   0.880  13.727  0.0710 -0.0131 -0.0408
16677TIP3    H171446   0.266   0.950  13.684  2.1196 -1.9292 -0.9610
16677TIP3    H271447   0.145   0.861  13.667  0.4856  0.1570 -0.5988
16678TIP3   OH271448   2.526   0.041  12.703 -0.2811  0.1917  0.3157
16678TIP3    H171449   2.529   0.014  12.611  0.5863  1.1632  0.0503
16678TIP3    H271450   2.478  -0.030  12.747  1.0212 -1.2840 -0.5367
16679TIP3   OH271451   2.454   2.321  13.103 -0.1986  0.2341 -0.0080
16679TIP3    H171452   2.361   2.336  13.119 -0.4908  0.3482 -1.6003
16679TIP3    H271453   2.467   2.229  13.123 -0.7279  0.1352 -0.1011
16680TIP3   OH271454   2.743   1.881   4.597  0.6121  0.2367  0.3737
16680TIP3    H171455   2.783   1.810   4.647 -0.0850  1.1061  2.2638
16680TIP3    H271456   2.806   1.899   4.527  0.5789 -2.5374 -0.4919
16681TIP3   OH271457   2.580   3.693   5.736  0.4699 -0.3508  0.0927
16681TIP3    H171458   2.583   3.732   5.649  0.1908 -1.7299 -0.5628
16681TIP3    H271459   2.487   3.687   5.756  0.3874 -2.5756 -0.7392
16682TIP3   OH271460   0.142   6.182   4.601 -0.1322 -0.1630 -0.1334
16682TIP3    H171461   0.089   6.125   4.656 -0.1897 -0.5992 -0.6333
16682TIP3    H271462   0.231   6.173   4.635  0.1926 -1.9489 -1.2831
16683TIP3   OH271463   2.142   3.684  16.856  0.2966  0.0945 -0.0054
16683TIP3    H171464   2.168   3.763  16.903  2.6058 -0.9555  0.6595
16683TIP3    H271465   2.215   3.667  16.797 -0.7338 -0.8590 -1.0373
16684TIP3   OH271466   2.494   0.496   1.638  0.6824  0.6115  0.5771
16684TIP3    H171467   2.399   0.509   1.639  0.6963  1.1146 -1.1978
16684TIP3    H271468   2.512   0.448   1.718 -1.1517 -0.0032  0.6787
16685TIP3   OH271469   5.349   4.758   6.481 -0.0978 -0.0313  0.0391
16685TIP3    H171470   5.321   4.821   6.414  0.5537  0.1705 -0.0443
16685TIP3    H271471   5.303   4.678   6.457 -1.5304  0.5948  0.5847
16686TIP3   OH271472   3.704   3.892   3.049 -0.6007 -0.4148  0.1304
16686TIP3    H171473   3.740   3.818   3.098  2.4245  0.0700 -1.1005
16686TIP3    H271474   3.692   3.960   3.116  1.4527 -0.4493  0.6274
16687TIP3   OH271475   4.847   5.664  11.942  0.1642 -0.3083  0.4382
16687TIP3    H171476   4.847   5.648  11.848  1.3446 -0.9740  0.5366
16687TIP3    H271477   4.915   5.730  11.956 -0.8855  0.7650  0.6963
16688TIP3   OH271478   4.200   5.185   3.369  0.3784  0.1117 -0.1082
16688TIP3    H171479   4.209   5.113   3.432  1.6292  0.1652 -0.1949
16688TIP3    H271480   4.110   5.215   3.379 -1.1244 -3.2218 -1.9876
16689TIP3   OH271481   6.663   6.288   2.417  0.0356 -0.1388  0.3315
16689TIP3    H171482   6.723   6.363   2.422 -1.3655  1.1169 -0.9308
16689TIP3    H271483   6.685   6.246   2.334 -0.2625 -0.1504  0.2576
16690TIP3   OH271484   2.161   5.258  12.397 -0.2484  0.2113  0.0141
16690TIP3    H171485   2.178   5.334  12.453  1.5704 -1.3841  1.7664
16690TIP3    H271486   2.245   5.240  12.354  0.3500 -2.5676  2.0318
16691TIP3   OH271487   1.463   5.929  14.691  0.1829 -0.1072 -0.6579
16691TIP3    H171488   1.555   5.950  14.674  0.6391 -1.4589  0.0151
16691TIP3    H271489   1.424   5.919  14.604  0.9266 -0.5245 -0.9547
16692TIP3   OH271490   1.919   5.884  13.319  0.5101 -0.0113 -0.0971
16692TIP3    H171491   1.871   5.835  13.386  1.5274  1.0226  1.4568
16692TIP3    H271492   1.948   5.963  13.364  0.8939  0.9207 -1.9000
16693TIP3   OH271493   6.152   1.058   4.913  0.1644 -0.0944  0.0903
16693TIP3    H171494   6.224   1.116   4.889 -0.0348  0.9304  1.8010
16693TIP3    H271495   6.073   1.106   4.886  0.0481 -0.6055 -0.5253
16694TIP3   OH271496   1.289   1.582  16.471 -0.3484  0.0593  0.0161
16694TIP3    H171497   1.350   1.637  16.521  0.7098 -0.0735 -1.0861
16694TIP3    H271498   1.258   1.638  16.400  0.4301 -0.6241 -0.8848
16695TIP3   OH271499   5.108   4.282   4.089  0.1070  0.2844 -0.6909
16695TIP3    H171500   5.023   4.280   4.047 -0.4908  0.5507  0.4643
16695TIP3    H271501   5.096   4.234   4.171  0.5924  1.7723  0.2898
16696TIP3   OH271502   6.447   5.458   0.598 -0.2829  0.2354  0.3906
16696TIP3    H171503   6.533   5.443   0.558  1.3567 -0.9586  3.9041
16696TIP3    H271504   6.385   5.417   0.538  1.6443  0.4168 -1.8983
16697TIP3   OH271505   0.737   1.881  15.076 -0.2987  0.7629  0.3028
16697TIP3    H171506   0.809   1.906  15.017 -0.0696 -0.5194  0.0163
16697TIP3    H271507   0.684   1.821  15.024 -0.8413  0.6523  0.9768
16698TIP3   OH271508   2.595   2.001  13.442  0.5695 -0.1246  0.8417
16698TIP3    H171509   2.522   1.982  13.383 -0.8632  1.9863  1.7989
16698TIP3    H271510   2.674   1.980  13.392 -0.5879  1.2045 -1.6937
16699TIP3   OH271511   2.831   2.889  17.094 -0.1166 -0.2658 -0.4701
16699TIP3    H171512   2.809   2.880  17.187 -0.0892  0.4123 -0.3977
16699TIP3    H271513   2.925   2.874  17.090  0.3226  2.0497 -0.0387
16700TIP3   OH271514   0.550   0.353  12.955  0.2340 -0.2332  0.4062
16700TIP3    H171515   0.546   0.297  13.033  0.2777 -0.4000  0.2892
16700TIP3    H271516   0.617   0.418  12.976  0.4963 -0.4883  0.3722
16701TIP3   OH271517   1.839   1.189  14.942 -0.3131 -0.3039  0.0026
16701TIP3    H171518   1.923   1.173  14.898 -0.5902 -1.2735 -0.1969
16701TIP3    H271519   1.818   1.106  14.984 -1.0123  0.0406  0.3460
16702TIP3   OH271520   3.428   4.653   5.065  0.0502  0.1264 -0.4547
16702TIP3    H171521   3.440   4.626   4.974 -0.3512 -0.6240 -0.2985
16702TIP3    H271522   3.487   4.597   5.115 -0.9782 -0.6710 -0.0982
16703TIP3   OH271523   1.493   4.203  16.448 -0.4255  0.2525  0.4591
16703TIP3    H171524   1.468   4.178  16.359  1.4563  1.0119 -0.3387
16703TIP3    H271525   1.453   4.289  16.462 -1.0825 -0.0590  0.5359
16704TIP3   OH271526   0.155   3.859  14.480 -0.4157 -0.5882  0.3843
16704TIP3    H171527   0.192   3.940  14.515 -2.0592  0.9978 -1.2811
16704TIP3    H271528   0.101   3.825  14.551 -1.5431  1.0844  0.3823
16705TIP3   OH271529   6.620   2.556   2.624 -0.1424  0.5340 -0.0790
16705TIP3    H171530   6.618   2.486   2.560 -1.4853  0.6113 -0.1540
16705TIP3    H271531   6.682   2.526   2.691 -1.7045 -1.3673  0.5975
16706TIP3   OH271532   6.335   3.958  11.474 -0.1659 -0.2617  0.1714
16706TIP3    H171533   6.423   3.922  11.477 -0.2684 -0.5142  0.1888
16706TIP3    H271534   6.291   3.920  11.550 -0.2422 -0.0081  0.2579
16707TIP3   OH271535   6.038   3.803   0.794 -0.5871 -0.5120 -0.3221
16707TIP3    H171536   5.945   3.783   0.795 -1.1321  1.7144  0.1753
16707TIP3    H271537   6.076   3.750   0.864 -0.9801 -3.2848 -2.0938
16708TIP3   OH271538   4.230   4.378   4.898  0.2347  0.4977  0.0062
16708TIP3    H171539   4.310   4.426   4.919 -0.3135  1.1571  0.6069
16708TIP3    H271540   4.216   4.395   4.805  0.7780  0.3893 -0.1017
16709TIP3   OH271541   2.308   5.599  11.941  0.4676 -0.1460 -0.1874
16709TIP3    H171542   2.389   5.562  11.975  0.4581  0.8668  1.0061
16709TIP3    H271543   2.241   5.571  12.003  0.2777  0.8573  0.0816
16710TIP3   OH271544   2.775   2.524   0.641  0.3887  0.3601 -0.0222
16710TIP3    H171545   2.738   2.590   0.699 -3.2383 -1.8013  0.4232
16710TIP3    H271546   2.759   2.557   0.553 -1.1462  0.2590  0.1984
16711TIP3   OH271547   3.971   2.924   6.263  0.0100 -0.5679  0.0865
16711TIP3    H171548   3.899   2.969   6.306 -1.3578 -0.5869 -2.0536
16711TIP3    H271549   3.929   2.856   6.210  1.3865  0.5727 -2.6358
16712TIP3   OH271550   6.034   2.657  15.301 -0.2726  0.0726 -0.3010
16712TIP3    H171551   6.024   2.579  15.355  0.1961 -0.4639 -0.9813
16712TIP3    H271552   5.949   2.670  15.259 -1.0962  1.3076  1.6099
16713TIP3   OH271553   5.579   1.674  11.491  0.1630 -0.1848  0.5385
16713TIP3    H171554   5.615   1.748  11.441 -0.3852  0.4492  1.0579
16713TIP3    H271555   5.585   1.703  11.583  0.1603 -0.8899  0.7629
16714TIP3   OH271556   6.754   3.564   1.806 -0.7262 -0.1899  0.3826
16714TIP3    H171557   6.756   3.531   1.716  0.4854 -1.8120  0.9506
16714TIP3    H271558   6.691   3.636   1.804 -0.6235 -0.0954 -1.7836
16715TIP3   OH271559   5.896   4.652  14.958 -0.3683 -0.3573  0.2369
16715TIP3    H171560   5.854   4.716  15.015  1.3906  0.2829  0.8501
16715TIP3    H271561   5.968   4.700  14.917 -1.5309 -0.7728 -2.5756
16716TIP3   OH271562   5.469   1.042   3.476  0.2102 -0.0486  0.1596
16716TIP3    H171563   5.522   1.119   3.496  1.2379 -0.2121 -1.6840
16716TIP3    H271564   5.531   0.969   3.483  0.0734 -0.3299 -1.2757
16717TIP3   OH271565   0.922   3.123  11.614  0.2274 -0.0616  0.1497
16717TIP3    H171566   0.862   3.069  11.666  0.2098 -0.7851 -0.5993
16717TIP3    H271567   0.935   3.202  11.667 -1.1083 -0.0417  0.4878
16718TIP3   OH271568   0.740   0.294   3.827  0.4668  0.2917 -0.2457
16718TIP3    H171569   0.674   0.358   3.801  0.0481 -0.2132 -0.4687
16718TIP3    H271570   0.823   0.328   3.793  0.2960  0.8499 -0.1060
16719TIP3   OH271571   2.440   2.133   5.124 -0.4220  0.5085 -0.6728
16719TIP3    H171572   2.511   2.083   5.083  0.9861  2.0498 -0.2577
16719TIP3    H271573   2.430   2.210   5.069 -1.5062  0.5238 -0.4740
16720TIP3   OH271574   0.948   0.813   3.809 -0.2091  0.2335 -0.6547
16720TIP3    H171575   1.007   0.761   3.863  0.2712  1.3827 -0.0251
16720TIP3    H271576   0.860   0.783   3.834  0.0054  0.6797  0.7244
16721TIP3   OH271577   0.222   0.223  16.730  0.6331 -0.6382  0.3793
16721TIP3    H171578   0.162   0.183  16.667 -0.3594  1.3970 -0.0449
16721TIP3    H271579   0.212   0.171  16.810 -2.5740  0.2537  0.6785
16722TIP3   OH271580   0.585   5.806   4.909  0.1343 -0.3463 -0.3210
16722TIP3    H171581   0.583   5.888   4.959  2.9531 -0.6565  0.4704
16722TIP3    H271582   0.605   5.739   4.974  0.8485 -1.2203 -1.4127
16723TIP3   OH271583   0.437   1.520  11.550  0.3647 -0.4584 -0.2788
16723TIP3    H171584   0.481   1.509  11.635  1.4395  1.8782 -0.4601
16723TIP3    H271585   0.353   1.474  11.561  0.6355 -0.5581  1.9046
16724TIP3   OH271586   0.434   0.810   5.539  0.7153  0.2845  0.3392
16724TIP3    H171587   0.462   0.813   5.447 -1.4628 -0.2877 -0.4261
16724TIP3    H271588   0.513   0.791   5.588  1.9430  0.5462 -1.4313
16725TIP3   OH271589   3.883   5.200   4.606 -0.1601 -0.3859  0.3542
16725TIP3    H171590   3.874   5.270   4.671 -1.5335 -0.4947  0.3119
16725TIP3    H271591   3.951   5.231   4.547  0.7663 -0.0521  1.5391
16726TIP3   OH271592   3.237   3.801   3.027  0.3153 -0.0742  0.2926
16726TIP3    H171593   3.238   3.897   3.035  0.7823 -0.0817  0.3746
16726TIP3    H271594   3.305   3.772   3.088 -0.3108 -0.5029  0.7901
16727TIP3   OH271595   5.830   0.243  14.775 -0.4613  0.1072 -0.1764
16727TIP3    H171596   5.816   0.200  14.859  0.3923 -1.0941 -0.6107
16727TIP3    H271597   5.871   0.326  14.796  1.3779 -0.9262  0.5495
16728TIP3   OH271598   3.775   4.556   3.260 -0.2688 -0.5330  0.4925
16728TIP3    H171599   3.866   4.543   3.232 -0.8761 -0.6439 -1.5426
16728TIP3    H271600   3.780   4.555   3.356  2.0144  0.4311  0.4616
16729TIP3   OH271601   4.542   4.328   0.021  0.2259  0.4347 -0.2979
16729TIP3    H171602   4.594   4.261   0.065 -1.0461  0.7229  1.7973
16729TIP3    H271603   4.576   4.331  -0.069  0.4729 -2.8181 -0.4067
16730TIP3   OH271604   1.104   2.769  17.254  0.2050  0.6589 -0.4212
16730TIP3    H171605   1.139   2.839  17.201  0.8333 -0.0200 -0.9250
16730TIP3    H271606   1.075   2.811  17.335  0.0819  1.5614 -0.9340
16731TIP3   OH271607   5.134   6.698  10.440 -0.1795 -0.0174  0.0745
16731TIP3    H171608   5.164   6.763  10.503 -0.4771  0.4490 -0.2566
16731TIP3    H271609   5.211   6.645  10.421  1.0037  2.3044 -2.1952
16732TIP3   OH271610   0.109   4.426  14.224  0.5272 -0.1348 -0.1685
16732TIP3    H171611   0.125   4.508  14.269  1.7562 -0.7547  0.5675
16732TIP3    H271612   0.129   4.358  14.289 -0.3789 -1.0304 -0.7791
16733TIP3   OH271613   3.244   3.347  13.940 -0.1398  0.7863  0.0333
16733TIP3    H171614   3.333   3.383  13.940 -0.0046  0.4918  1.1873
16733TIP3    H271615   3.218   3.349  13.848  1.6175 -0.5219 -0.5506
16734TIP3   OH271616   6.205   1.521   5.718 -0.4194 -0.2386  0.0460
16734TIP3    H171617   6.281   1.464   5.712 -0.9997 -1.0092 -0.1088
16734TIP3    H271618   6.209   1.557   5.807 -0.7316 -1.5075  0.5977
16735TIP3   OH271619   6.382   0.295  14.200 -0.3490  0.3091  0.3212
16735TIP3    H171620   6.409   0.206  14.221 -0.4682 -0.1869 -1.4757
16735TIP3    H271621   6.459   0.349  14.221  1.7198 -0.8857 -3.2855
16736TIP3   OH271622   4.586   4.822  13.825  0.0122  0.4197  0.1165
16736TIP3    H171623   4.584   4.858  13.737 -1.1229  1.2164  0.4459
16736TIP3    H271624   4.626   4.735  13.815  1.2163  1.0748 -0.9433
16737TIP3   OH271625   6.073   0.078   5.139  0.1640 -0.1712 -0.5301
16737TIP3    H171626   6.034  -0.009   5.132 -2.3437  0.9288 -1.7554
16737TIP3    H271627   6.051   0.107   5.227 -2.0183  0.4492 -1.2177
16738TIP3   OH271628   2.299   3.352  16.616 -0.0088  0.4293  0.1099
16738TIP3    H171629   2.362   3.356  16.544  0.9969 -4.8375  0.3242
16738TIP3    H271630   2.351   3.325  16.692 -2.1265 -2.9417  0.5690
16739TIP3   OH271631   1.194   6.757  11.215  0.2735 -0.3865 -0.3606
16739TIP3    H171632   1.108   6.757  11.174  0.5656 -1.6057 -1.0273
16739TIP3    H271633   1.178   6.725  11.304 -0.0969  0.3845 -0.1468
16740TIP3   OH271634   3.070   4.434  13.322  0.3165  0.2089  0.5689
16740TIP3    H171635   3.137   4.496  13.292 -2.3353  3.8040  1.3677
16740TIP3    H271636   3.051   4.462  13.412 -2.2493 -0.6097  0.3476
16741TIP3   OH271637   2.971   5.156  11.464 -0.5216  0.2874  0.5681
16741TIP3    H171638   2.915   5.108  11.524 -1.7096 -0.0675 -0.7941
16741TIP3    H271639   3.056   5.158  11.508 -0.7285 -2.0345  1.1821
16742TIP3   OH271640   6.026   4.034   5.857  0.4504  0.3109 -0.2965
16742TIP3    H171641   6.086   4.048   5.783  0.9434  0.5117  0.1405
16742TIP3    H271642   6.040   3.942   5.882  0.6923  0.4043 -0.0901
16743TIP3   OH271643   3.731   2.708   0.072 -0.1669 -0.0161  0.3095
16743TIP3    H171644   3.647   2.693   0.027  0.3460 -0.0241 -0.6880
16743TIP3    H271645   3.796   2.665   0.016  0.6207  0.8499  0.5298
16744TIP3   OH271646   2.336   5.404  12.740 -0.5704 -0.1777 -0.3288
16744TIP3    H171647   2.287   5.479  12.707 -0.4546 -0.1051 -0.3384
16744TIP3    H271648   2.307   5.394  12.830  0.6993  0.9885  0.2456
16745TIP3   OH271649   2.999   1.134   4.075  0.1089  0.1278 -0.2274
16745TIP3    H171650   3.056   1.076   4.025  0.0332  0.5054 -0.7604
16745TIP3    H271651   3.007   1.219   4.032  1.3804  0.9179  1.4293
16746TIP3   OH271652   6.085   0.662  12.927 -0.4113 -0.1512  0.3211
16746TIP3    H171653   6.129   0.698  12.850 -1.1041 -0.6178 -0.3105
16746TIP3    H271654   6.101   0.726  12.996 -1.5016  1.3161 -0.7341
16747TIP3   OH271655   6.325   3.659   5.705  0.0753 -0.5101  0.2843
16747TIP3    H171656   6.259   3.679   5.639  1.5860 -0.7078 -1.3410
16747TIP3    H271657   6.332   3.563   5.703 -0.1656 -0.5493  1.0438
16748TIP3   OH271658   4.789   1.438   5.346 -0.1369  0.7429  0.5733
16748TIP3    H171659   4.729   1.388   5.291  1.1843  0.8595 -1.0401
16748TIP3    H271660   4.863   1.379   5.361 -0.0358  1.0705  1.4122
16749TIP3   OH271661   6.608   5.855   1.779  0.1869 -0.0850 -0.3190
16749TIP3    H171662   6.517   5.885   1.778 -0.4992 -1.9191  1.0336
16749TIP3    H271663   6.651   5.908   1.713 -2.1630 -0.0608 -1.9589
16750TIP3   OH271664   4.243   1.250   3.501  0.4126  0.1502  0.2571
16750TIP3    H171665   4.198   1.288   3.577 -0.6842 -0.3665 -0.1099
16750TIP3    H271666   4.179   1.254   3.431  0.0809 -2.6916  0.2960
16751TIP3   OH271667   3.237   0.773   2.041 -0.3657 -0.9115  0.3340
16751TIP3    H171668   3.142   0.783   2.033 -0.4967  0.5937  2.7971
16751TIP3    H271669   3.248   0.700   2.101 -0.1224  0.6289  2.2605
16752TIP3   OH271670   0.397   6.068  13.066 -0.4618 -0.7501 -0.3797
16752TIP3    H171671   0.420   6.159  13.048 -0.5957 -0.4466  0.8743
16752TIP3    H271672   0.323   6.074  13.127  1.1917 -1.6268  1.8411
16753TIP3   OH271673   4.362   3.224   0.851  0.4054 -0.3760 -0.0503
16753TIP3    H171674   4.375   3.315   0.878  0.8264 -0.4964  0.1697
16753TIP3    H271675   4.272   3.204   0.877  0.5026 -0.2035  0.4352
16754TIP3   OH271676   2.243   3.153  15.153  0.3994 -0.1538  0.0808
16754TIP3    H171677   2.223   3.068  15.193  0.1266 -0.0052  0.2602
16754TIP3    H271678   2.333   3.171  15.178 -0.3968  0.9216  2.4027
16755TIP3   OH271679   6.574   3.511   6.317  0.4724  0.5333 -0.0783
16755TIP3    H171680   6.623   3.450   6.372  0.8119  0.2775 -0.6596
16755TIP3    H271681   6.486   3.473   6.313  0.4962  0.4541  0.1341
16756TIP3   OH271682   3.138   0.281  12.442  0.0176  0.4296  0.0740
16756TIP3    H171683   3.160   0.284  12.536  0.8064  0.1972 -0.0968
16756TIP3    H271684   3.205   0.336  12.401 -0.8296  1.2199 -0.2668
16757TIP3   OH271685   5.423   0.575  14.582 -0.1576 -0.6158 -0.6810
16757TIP3    H171686   5.449   0.497  14.632  0.1506  0.8992  1.6688
16757TIP3    H271687   5.483   0.643  14.612  0.2422  0.3782 -3.4133
16758TIP3   OH271688   1.699   3.185  16.389  0.1418 -0.2426  0.2103
16758TIP3    H171689   1.736   3.207  16.474 -0.1196 -0.2857  0.3358
16758TIP3    H271690   1.729   3.095  16.373  0.7394 -0.0096 -0.0471
16759TIP3   OH271691   2.856   3.137  13.262  0.5904 -0.1078 -0.2178
16759TIP3    H171692   2.915   3.150  13.336 -2.2158  1.4764  1.9251
16759TIP3    H271693   2.798   3.067  13.289 -0.4765  0.4764 -0.9225
16760TIP3   OH271694   1.526   4.271   0.724 -0.0140 -0.5021  0.0503
16760TIP3    H171695   1.562   4.225   0.648  0.9005  0.8598 -0.3865
16760TIP3    H271696   1.482   4.203   0.775 -2.7277 -1.1468 -2.8429
16761TIP3   OH271697   3.171   4.123   6.070  0.0259 -0.3833  0.0061
16761TIP3    H171698   3.208   4.061   6.132  0.3172 -1.6933 -1.4110
16761TIP3    H271699   3.078   4.101   6.066 -0.2060  0.4187  0.7657
16762TIP3   OH271700   4.445   3.969   0.663  0.2078 -0.0133  0.6459
16762TIP3    H171701   4.461   3.896   0.724  0.8860 -1.5405 -1.2358
16762TIP3    H271702   4.492   3.944   0.584 -1.1685  1.5664 -0.7497
16763TIP3   OH271703   1.320   3.116  14.084  0.1233 -0.5903 -0.6753
16763TIP3    H171704   1.409   3.120  14.119 -0.0023 -1.2770 -0.2642
16763TIP3    H271705   1.267   3.164  14.148 -0.0458 -1.5264 -0.0915
16764TIP3   OH271706   0.033   6.241   4.987 -0.3126  0.3723 -0.1722
16764TIP3    H171707   0.112   6.285   4.956  0.0082 -0.7849 -1.0574
16764TIP3    H271708  -0.035   6.309   4.984  0.5533  1.2875  0.2715
16765TIP3   OH271709   0.485   0.920  16.829  0.0520  1.3310  0.1343
16765TIP3    H171710   0.572   0.926  16.869  0.6829  0.3531 -1.0374
16765TIP3    H271711   0.461   1.012  16.814  0.5652  1.6478  1.0863
16766TIP3   OH271712   5.324   1.044  13.845  0.2468  0.0682  0.5550
16766TIP3    H171713   5.419   1.051  13.836  0.1190 -0.2182 -1.3341
16766TIP3    H271714   5.298   1.130  13.878  1.0614  0.5582 -0.0144
16767TIP3   OH271715   6.515   3.873  15.479  0.1779  0.2748  0.4789
16767TIP3    H171716   6.479   3.916  15.557 -0.7180  0.6412 -0.1210
16767TIP3    H271717   6.443   3.819  15.446  1.1665 -1.3859  0.9897
16768TIP3   OH271718   2.144   3.632  15.570 -0.1087  0.0202  0.1931
16768TIP3    H171719   2.119   3.541  15.554 -0.6027  0.2548 -0.4141
16768TIP3    H271720   2.065   3.682  15.548  1.2925  0.9519 -3.3838
16769TIP3   OH271721   6.667   2.851  14.340 -0.0591 -0.2128 -0.1049
16769TIP3    H171722   6.750   2.872  14.383  0.5190  1.3436 -1.8590
16769TIP3    H271723   6.688   2.849  14.247 -2.0438  0.5197 -0.6137
16770TIP3   OH271724   1.434   1.249  14.243 -0.3890 -0.4665 -0.2821
16770TIP3    H171725   1.398   1.265  14.156 -0.8245 -2.6723 -0.5630
16770TIP3    H271726   1.369   1.193  14.286  0.3197 -0.2867  1.0910
16771TIP3   OH271727   5.200   6.173  11.689 -0.2613  0.0861  1.1108
16771TIP3    H171728   5.137   6.158  11.760  0.5089 -0.9963  1.5955
16771TIP3    H271729   5.168   6.251  11.644 -3.3206 -1.7289 -0.1593
16772TIP3   OH271730   0.935   5.685  11.349 -0.3520  0.5650 -0.2579
16772TIP3    H171731   0.868   5.616  11.346  0.3305 -0.0829 -1.2868
16772TIP3    H271732   0.971   5.679  11.437  1.3569 -2.0668 -1.0257
16773TIP3   OH271733   4.612   5.865   1.621  0.3772  1.3743  0.4864
16773TIP3    H171734   4.672   5.800   1.658  0.1635  0.2540 -1.0501
16773TIP3    H271735   4.541   5.813   1.584 -1.1497  2.6384  1.5367
16774TIP3   OH271736   2.217   0.865  12.507 -0.2133  0.4870 -0.1848
16774TIP3    H171737   2.279   0.912  12.562  1.5560 -1.3006 -0.5586
16774TIP3    H271738   2.253   0.870  12.419 -0.7513 -0.3031 -0.4649
16775TIP3   OH271739   3.281   1.903   6.226 -0.1287  0.3687 -0.2987
16775TIP3    H171740   3.206   1.946   6.268 -0.1296 -0.0916  0.1937
16775TIP3    H271741   3.320   1.851   6.296  0.9196  0.9450 -0.4420
16776TIP3   OH271742   6.570   3.603  14.770 -0.4784  0.3243  0.0148
16776TIP3    H171743   6.638   3.543  14.739 -1.8941 -1.0365 -0.5305
16776TIP3    H271744   6.501   3.597  14.704 -0.7878  2.3552  0.0953
16777TIP3   OH271745   1.199   4.511  15.113 -0.2409 -0.2761  0.2493
16777TIP3    H171746   1.152   4.444  15.063  0.5854  0.4011 -1.5319
16777TIP3    H271747   1.131   4.556  15.163 -1.0574 -1.2511  0.0383
16778TIP3   OH271748   4.961   0.827   4.752  0.9947  0.4780 -0.0534
16778TIP3    H171749   5.014   0.871   4.686 -0.3139  0.6790 -1.0150
16778TIP3    H271750   4.888   0.789   4.703 -0.1469  0.8377  1.3024
16779TIP3   OH271751   5.799   1.030   5.998 -0.0255  0.3297 -0.3546
16779TIP3    H171752   5.801   1.039   6.093  0.2835  1.2658 -0.4345
16779TIP3    H271753   5.813   0.936   5.983 -1.1328 -0.0079  0.5338
16780TIP3   OH271754   5.578   1.223   2.237 -0.3430  0.6626  0.1478
16780TIP3    H171755   5.673   1.218   2.246 -0.3559 -0.3337 -0.1887
16780TIP3    H271756   5.563   1.267   2.154 -0.1592 -0.4763 -0.4997
16781TIP3   OH271757   6.587   1.939   0.561 -0.0081  0.1775  0.0479
16781TIP3    H171758   6.664   1.883   0.556 -0.1667 -0.3405  2.4022
16781TIP3    H271759   6.520   1.893   0.510  1.0371  0.3806 -1.5896
16782TIP3   OH271760   0.663   0.463  14.728 -0.0446 -0.1875 -0.4306
16782TIP3    H171761   0.579   0.492  14.763 -0.0002 -0.3710 -0.1711
16782TIP3    H271762   0.669   0.371  14.752  0.5060 -0.0203  0.0870
16783TIP3   OH271763   5.800   0.175  11.118 -0.8241 -0.2444  0.1093
16783TIP3    H171764   5.885   0.218  11.109 -0.2485 -1.4888 -0.6953
16783TIP3    H271765   5.736   0.247  11.114  0.0853  0.5344 -1.4180
16784TIP3   OH271766   5.438   3.479  14.498  0.3859 -0.0257  0.5965
16784TIP3    H171767   5.464   3.533  14.423 -2.3990 -1.1549 -1.3444
16784TIP3    H271768   5.439   3.540  14.573  0.6790  1.8295 -0.8457
16785TIP3   OH271769   5.360   4.800   6.045  0.3148 -0.3132 -0.1992
16785TIP3    H171770   5.308   4.721   6.027 -0.0528 -0.3698  1.0176
16785TIP3    H271771   5.421   4.773   6.114  0.5085  0.3273 -0.1170
16786TIP3   OH271772   0.017   3.480   5.753  0.7539  0.4251 -0.1601
16786TIP3    H171773   0.041   3.550   5.814 -2.3590  1.7872 -0.3258
16786TIP3    H271774  -0.018   3.410   5.808 -1.2432  1.3021 -0.2438
16787TIP3   OH271775   2.894   4.097  15.610  0.1010  0.2411  0.4809
16787TIP3    H171776   2.963   4.163  15.599  1.9856 -1.4150  1.6045
16787TIP3    H271777   2.826   4.122  15.548  3.0060  0.2981 -3.0296
16788TIP3   OH271778   1.299   1.772   1.310 -0.2520  0.2618 -0.1150
16788TIP3    H171779   1.356   1.707   1.350  0.8697  1.8461  0.9736
16788TIP3    H271780   1.265   1.729   1.232  2.6911 -0.6537 -1.0213
16789TIP3   OH271781   3.600   2.573   4.865  0.4953  0.0186  0.1206
16789TIP3    H171782   3.647   2.656   4.870  0.2496  0.0742  2.4184
16789TIP3    H271783   3.563   2.561   4.952 -2.1351 -0.9771 -1.0133
16790TIP3   OH271784   4.473   1.553  13.219 -0.0160  0.2026 -0.5249
16790TIP3    H171785   4.512   1.466  13.211 -0.1347  0.1341 -0.3676
16790TIP3    H271786   4.506   1.586  13.303 -2.0901 -0.7831  0.7533
16791TIP3   OH271787   6.559   6.066  11.762  0.5616 -0.1901  0.7630
16791TIP3    H171788   6.469   6.082  11.791  0.6908  0.3968  0.8663
16791TIP3    H271789   6.603   6.151  11.772  0.8830 -0.2309 -0.1874
16792TIP3   OH271790   6.497   0.589  12.681  0.2909  0.1601 -0.0250
16792TIP3    H171791   6.470   0.540  12.759 -1.5599  2.6109  1.0101
16792TIP3    H271792   6.558   0.655  12.715  1.5216 -0.3905 -1.1159
16793TIP3   OH271793   6.496   5.763  15.182  0.0756  0.4718  0.6569
16793TIP3    H171794   6.448   5.817  15.245  0.4918  0.0825  1.3306
16793TIP3    H271795   6.456   5.677  15.190  0.5854  0.2502  0.9100
16794TIP3   OH271796   6.230   1.501   3.907  0.2914  0.4467  0.1659
16794TIP3    H171797   6.266   1.413   3.914 -3.2979 -1.3607 -1.6126
16794TIP3    H271798   6.238   1.523   3.814 -0.5760  1.1749  0.2478
16795TIP3   OH271799   1.879   5.504  14.317 -0.3892 -0.6729  0.2933
16795TIP3    H171800   1.810   5.440  14.302  0.3166 -2.2660  3.0808
16795TIP3    H271801   1.832   5.582  14.349 -1.0138 -1.1792  0.6225
16796TIP3   OH271802   2.287   0.251   3.965  0.0431  0.2699  0.6557
16796TIP3    H171803   2.317   0.342   3.960  1.5575 -0.2445 -0.3325
16796TIP3    H271804   2.352   0.208   4.020  0.0117 -0.4615  0.1283
16797TIP3   OH271805   6.108   4.078  11.786 -0.3743  0.0976  0.1100
16797TIP3    H171806   6.069   4.000  11.745 -1.7253  0.3514  0.8226
16797TIP3    H271807   6.043   4.104  11.851 -0.9160  2.9894 -1.4383
16798TIP3   OH271808   4.839   5.755   3.555  0.1100  0.5331  0.1849
16798TIP3    H171809   4.837   5.701   3.476  0.6921  0.8770 -0.0712
16798TIP3    H271810   4.768   5.721   3.608 -0.3383  0.3427 -0.5184
16799TIP3   OH271811   3.477   1.584   0.056 -0.3968 -0.3123 -0.0558
16799TIP3    H171812   3.568   1.613   0.045 -0.9752  1.3338 -0.7537
16799TIP3    H271813   3.457   1.603   0.147  0.2861 -1.7266  0.4150
16800TIP3   OH271814   1.104   0.180   5.071 -0.0704  0.1926 -0.2663
16800TIP3    H171815   1.048   0.132   5.010 -0.4335 -0.3689  0.5063
16800TIP3    H271816   1.058   0.262   5.087  0.1834  0.4879 -0.9909
16801TIP3   OH271817   1.503   0.747   2.901  0.4293 -0.7296  0.2117
16801TIP3    H171818   1.567   0.815   2.925 -1.0004  0.5269  0.5866
16801TIP3    H271819   1.543   0.665   2.932  1.6564  0.0669  0.8229
16802TIP3   OH271820   0.466   4.605  16.925  0.1248  0.7643 -0.2509
16802TIP3    H171821   0.389   4.610  16.981 -0.3992  1.1470 -1.0018
16802TIP3    H271822   0.447   4.536  16.862  0.1637  1.2346 -0.7828
16803TIP3   OH271823   2.824   5.820  14.071 -0.4736  0.2944  0.4902
16803TIP3    H171824   2.730   5.815  14.089 -0.5349  0.9072  0.3620
16803TIP3    H271825   2.833   5.786  13.982 -0.2118 -2.4149  1.4474
16804TIP3   OH271826   5.105   0.477  14.889  0.3476 -0.3045  0.3339
16804TIP3    H171827   5.146   0.501  14.972 -0.1216  2.0052 -0.0171
16804TIP3    H271828   5.177   0.472  14.827  0.8450 -3.0964  0.9874
16805TIP3   OH271829   0.674   3.285   6.655  0.1311 -0.2516  0.6348
16805TIP3    H171830   0.745   3.260   6.595 -1.0192 -1.5436 -0.2622
16805TIP3    H271831   0.629   3.203   6.674 -1.7396  0.6561  0.3639
16806TIP3   OH271832   2.750   3.240  14.623 -0.1271 -0.2187  0.2015
16806TIP3    H171833   2.735   3.308  14.689  0.5354  0.8199 -0.6704
16806TIP3    H271834   2.717   3.160  14.663 -1.3759  0.6975  1.0772
16807TIP3   OH271835   2.866   0.403   0.494  0.0815 -0.6241 -0.1810
16807TIP3    H171836   2.801   0.354   0.545 -2.6414  1.6168 -1.2516
16807TIP3    H271837   2.928   0.336   0.464 -0.2522 -2.5324  2.9302
16808TIP3   OH271838   6.318   3.184   5.366 -0.6476  0.3203  0.6963
16808TIP3    H171839   6.262   3.172   5.443 -2.6213  2.8019 -0.2333
16808TIP3    H271840   6.344   3.276   5.368 -0.2614  0.3032 -1.2961
16809TIP3   OH271841   1.461   4.688  12.891 -0.0774  0.5772  0.4729
16809TIP3    H171842   1.452   4.655  12.801 -1.7364 -0.3208  0.9381
16809TIP3    H271843   1.466   4.783  12.881 -0.3449  0.5002 -0.5657
16810TIP3   OH271844   5.835   5.268  14.113 -0.1973  0.2445 -0.5574
16810TIP3    H171845   5.854   5.177  14.089 -0.8703 -0.9549  2.9573
16810TIP3    H271846   5.745   5.266  14.145  0.4963  1.6113  1.6976
16811TIP3   OH271847   3.637   4.071   5.391  0.0608 -0.0709 -0.4537
16811TIP3    H171848   3.708   4.101   5.448  0.1895 -1.2311  0.0241
16811TIP3    H271849   3.558   4.107   5.431  0.2783  0.3325 -0.3800
16812TIP3   OH271850   5.536   5.266  13.629 -0.0743 -0.8345 -0.0932
16812TIP3    H171851   5.451   5.232  13.600 -0.1210  1.4019 -3.0664
16812TIP3    H271852   5.600   5.207  13.589 -0.2324  0.0895 -1.8274
16813TIP3   OH271853   1.728   4.359  14.208  0.0629  0.0664 -0.4278
16813TIP3    H171854   1.802   4.409  14.176  0.7705 -1.0207 -0.5621
16813TIP3    H271855   1.762   4.310  14.283 -0.8227  0.4053  0.2193
16814TIP3   OH271856   1.320   4.338  14.819 -0.3949 -0.0125  0.4528
16814TIP3    H171857   1.263   4.291  14.880 -0.2903  0.0434  0.5942
16814TIP3    H271858   1.325   4.427  14.855 -0.3786  0.0366  0.3310
16815TIP3   OH271859   5.393   4.098  15.765 -0.1395 -0.0937  0.0516
16815TIP3    H171860   5.300   4.078  15.757  0.1999 -1.7757 -0.1513
16815TIP3    H271861   5.405   4.178  15.714 -1.0360 -1.2908 -2.1883
16816TIP3   OH271862   0.032   4.526   2.346 -0.2119  0.5628 -0.1259
16816TIP3    H171863   0.117   4.568   2.360 -0.6342  1.2418  0.5103
16816TIP3    H271864   0.041   4.440   2.386  0.1241  0.6956  0.0929
16817TIP3   OH271865   0.844   0.152  12.820  0.6735 -0.3088  0.8181
16817TIP3    H171866   0.831   0.246  12.808  1.8369 -0.1195  0.9632
16817TIP3    H271867   0.863   0.141  12.913  0.7281 -0.6636  0.7700
16818TIP3   OH271868   2.954   2.999  15.639 -0.0517  0.7238 -0.0008
16818TIP3    H171869   2.917   2.921  15.597  0.2092  1.1119 -0.9840
16818TIP3    H271870   3.005   3.041  15.569  0.4458  1.3589  0.7327
16819TIP3   OH271871   5.022   2.650  15.339 -0.3109 -0.1594 -0.2268
16819TIP3    H171872   5.114   2.661  15.317 -0.2333  0.4361  0.3386
16819TIP3    H271873   5.014   2.559  15.366  0.2596 -0.0456  0.3574
16820TIP3   OH271874   2.679   6.346   1.280 -0.5788  0.2988 -0.4290
16820TIP3    H171875   2.699   6.412   1.347  0.9774 -1.0470  0.5158
16820TIP3    H271876   2.740   6.275   1.298 -1.2656 -0.8267 -2.2771
16821TIP3   OH271877   4.163   5.796   1.050  0.4279 -0.2429  0.4770
16821TIP3    H171878   4.170   5.701   1.044 -1.1763 -0.3452 -0.1545
16821TIP3    H271879   4.236   5.821   1.108  0.8476 -1.8375  0.7025
16822TIP3   OH271880   2.167   4.433  14.471 -0.1102 -0.5615  0.1439
16822TIP3    H171881   2.246   4.380  14.464 -0.2718 -0.6020 -2.6624
16822TIP3    H271882   2.197   4.523  14.459 -0.1971 -0.2784  1.8748
16823TIP3   OH271883   3.324   0.063   6.479 -0.3651 -0.3081 -0.0599
16823TIP3    H171884   3.281  -0.006   6.530  0.8328  1.0032  2.9847
16823TIP3    H271885   3.403   0.084   6.529 -0.6280  3.1671 -0.8723
16824TIP3   OH271886   4.087   1.090   5.806  0.0057 -0.1124  0.3173
16824TIP3    H171887   4.082   1.123   5.896 -0.9118  0.2978  0.1317
16824TIP3    H271888   4.006   1.040   5.795  1.0362 -1.8920  0.3642
16825TIP3   OH271889   2.411   1.966  12.726  0.4150  0.2414  0.3262
16825TIP3    H171890   2.348   1.895  12.713  1.0650 -0.5546  1.3085
16825TIP3    H271891   2.359   2.039  12.760 -0.0105 -0.3634  1.0136
16826TIP3   OH271892   2.307   4.925  16.555 -1.0240  0.2465 -0.2791
16826TIP3    H171893   2.360   4.846  16.568 -1.1846  0.1491 -0.2225
16826TIP3    H271894   2.235   4.897  16.498 -0.5882  0.5598 -1.0022
16827TIP3   OH271895   0.891   5.990   2.545 -0.1982  0.2315 -0.1383
16827TIP3    H171896   0.911   5.965   2.455 -0.7464 -1.7023  0.2391
16827TIP3    H271897   0.823   6.057   2.536  0.9679  1.3351 -1.1786
16828TIP3   OH271898   5.536   5.174  14.140  0.0746 -0.0542 -0.3139
16828TIP3    H171899   5.449   5.210  14.159 -0.6460 -1.6043 -0.5355
16828TIP3    H271900   5.562   5.215  14.057  0.6677  2.2778  0.9473
16829TIP3   OH271901   3.858   3.212   2.466  0.0121 -0.1130  0.1646
16829TIP3    H171902   3.794   3.222   2.395 -1.6093 -1.3375  1.3744
16829TIP3    H271903   3.857   3.297   2.511 -0.2810  0.0951 -0.2318
16830TIP3   OH271904   5.446   6.004   4.812  0.6507  0.1564 -0.7876
16830TIP3    H171905   5.361   6.023   4.851  1.3340  2.0901 -0.1509
16830TIP3    H271906   5.502   6.076   4.840  2.6360 -1.3073 -0.8156
16831TIP3   OH271907   1.258   6.444   3.352 -0.0315  0.4238  0.0167
16831TIP3    H171908   1.311   6.364   3.353  0.2478  0.5008  3.5205
16831TIP3    H271909   1.179   6.420   3.401 -0.9944  1.6741 -0.8892
16832TIP3   OH271910   5.843   2.805  16.334 -0.2095  0.1513 -0.0933
16832TIP3    H171911   5.773   2.853  16.379  1.9903  2.6075  0.9703
16832TIP3    H271912   5.816   2.806  16.242 -1.6308  0.9618  0.2988
16833TIP3   OH271913   2.952   4.514   2.262  0.2390  0.1400 -0.6720
16833TIP3    H171914   3.003   4.525   2.181 -0.7748  1.5994 -1.1579
16833TIP3    H271915   2.880   4.576   2.252 -0.4432 -0.3730  0.9382
16834TIP3   OH271916   2.033   2.010   4.221  0.5611  0.2845 -0.3532
16834TIP3    H171917   2.029   2.006   4.316  1.1827 -1.2093 -0.3582
16834TIP3    H271918   1.958   2.063   4.195  0.0441  0.2044  0.9355
16835TIP3   OH271919   3.850   2.452  14.578  0.0508  0.7504  0.3766
16835TIP3    H171920   3.848   2.363  14.611  0.2061  1.2798  1.8832
16835TIP3    H271921   3.932   2.457  14.528  1.2083  0.6648  2.1755
16836TIP3   OH271922   3.590   5.850  12.264 -0.2139 -0.2489  0.7450
16836TIP3    H171923   3.632   5.781  12.316 -0.4395  1.1213  2.9088
16836TIP3    H271924   3.618   5.833  12.174  0.9699 -2.2357  1.4183
16837TIP3   OH271925   5.713   5.359  10.927 -0.1851 -0.1554  0.1505
16837TIP3    H171926   5.655   5.418  10.878  1.3513  2.2833  1.0448
16837TIP3    H271927   5.702   5.386  11.018  1.6802 -0.1921  0.4151
16838TIP3   OH271928   4.385   0.879  11.917  0.1203 -0.4146 -0.7952
16838TIP3    H171929   4.365   0.952  11.859  1.1120  1.1165  0.7336
16838TIP3    H271930   4.479   0.866  11.909 -0.0153 -1.4737 -0.9395
16839TIP3   OH271931   6.339   3.710  15.341  0.3429  0.2688  0.3302
16839TIP3    H171932   6.307   3.648  15.275  0.6818 -0.2172  0.6260
16839TIP3    H271933   6.424   3.676  15.367  0.0080  0.2000  1.3615
16840TIP3   OH271934   2.680   3.771  11.534 -0.2161  0.1324 -0.5002
16840TIP3    H171935   2.693   3.755  11.441  0.7652 -1.0830 -0.1886
16840TIP3    H271936   2.660   3.865  11.540  3.8230  1.2969 -1.6013
16841TIP3   OH271937   5.643   3.160   4.358 -0.5736 -0.2706  0.1027
16841TIP3    H171938   5.567   3.216   4.373  0.2938  0.8624  0.3402
16841TIP3    H271939   5.681   3.148   4.445 -1.2689 -2.0544  0.2259
16842TIP3   OH271940   2.372   2.903  11.399 -0.2164  0.2431  0.0241
16842TIP3    H171941   2.281   2.895  11.427 -0.9253  0.7724 -1.9559
16842TIP3    H271942   2.405   2.979  11.447 -0.6193 -0.2796  1.1697
16843TIP3   OH271943   0.277   0.125   2.676  0.4306  0.1915 -0.1146
16843TIP3    H171944   0.239   0.212   2.664 -0.4773 -0.1615  0.1048
16843TIP3    H271945   0.307   0.125   2.767  0.6045  0.3402 -0.1718
16844TIP3   OH271946   0.284   3.386  13.710 -0.3743 -0.3277 -0.0521
16844TIP3    H171947   0.240   3.331  13.645 -1.5987  1.4306 -0.7670
16844TIP3    H271948   0.326   3.455  13.660 -1.5991  1.2473  0.9816
16845TIP3   OH271949   4.249   3.089  14.003 -0.8700 -0.0359  0.4306
16845TIP3    H171950   4.304   3.122  13.932 -0.0277 -0.2774  0.9525
16845TIP3    H271951   4.287   3.126  14.082 -0.3020 -1.6529  0.9697
16846TIP3   OH271952   3.358   4.185  12.473 -0.1575 -0.4743 -0.1576
16846TIP3    H171953   3.329   4.148  12.557  1.0688 -1.9723 -0.3579
16846TIP3    H271954   3.379   4.276  12.493 -1.7157 -0.2620  0.7112
16847TIP3   OH271955   4.666   3.915   5.605  0.0278  0.2535 -0.6535
16847TIP3    H171956   4.668   4.000   5.649  1.1355 -1.2261  2.4443
16847TIP3    H271957   4.628   3.855   5.669 -0.2762 -1.7354 -2.5540
16848TIP3   OH271958   3.806   5.313   3.121  0.4562 -0.0340 -0.0879
16848TIP3    H171959   3.861   5.354   3.188 -0.1053  0.6466 -0.0359
16848TIP3    H271960   3.749   5.253   3.170  1.2630 -0.8846 -0.1615
16849TIP3   OH271961   1.742   1.983  11.885  0.2136 -0.0313  0.2530
16849TIP3    H171962   1.749   2.073  11.853 -0.5933 -0.6551 -1.7986
16849TIP3    H271963   1.832   1.949  11.881  0.1322 -0.0947 -1.4240
16850TIP3   OH271964   3.693   5.443   3.612  0.6423  0.4215 -0.3736
16850TIP3    H171965   3.611   5.477   3.577  1.4675  1.8965 -0.9768
16850TIP3    H271966   3.710   5.496   3.689 -0.4211 -1.8530  1.5839
16851TIP3   OH271967   6.235   5.334  13.172 -0.1259  0.4888  0.1059
16851TIP3    H171968   6.209   5.416  13.130  2.8917  0.3939 -2.2512
16851TIP3    H271969   6.193   5.266  13.120  1.7394  0.4510 -1.4477
16852TIP3   OH271970   5.937   0.372  15.677 -0.2381 -0.0329 -0.4214
16852TIP3    H171971   5.876   0.311  15.716  1.3810 -0.4057  1.7300
16852TIP3    H271972   5.908   0.458  15.707 -1.1145  0.0617 -1.4752
16853TIP3   OH271973   0.465   2.788  10.918 -0.0583  0.1990  0.0676
16853TIP3    H171974   0.509   2.872  10.931 -1.6134  0.7954  1.9977
16853TIP3    H271975   0.432   2.792  10.828 -0.0448  1.6227  0.1066
16854TIP3   OH271976   3.921   1.462  16.267  0.1983  0.4111  0.0265
16854TIP3    H171977   3.864   1.515  16.322 -1.2170 -1.8623  0.9277
16854TIP3    H271978   3.958   1.523  16.204  0.4334  2.8357  2.3034
16855TIP3   OH271979   2.455   1.691   0.498 -0.2297  0.0222 -0.1685
16855TIP3    H171980   2.411   1.746   0.434  1.0636  1.5065  0.1610
16855TIP3    H271981   2.491   1.619   0.447 -1.1076 -0.0241 -0.7549
16856TIP3   OH271982   0.248   2.656  12.980 -0.2533  0.1677  0.0098
16856TIP3    H171983   0.324   2.679  12.926  0.9957 -2.1422  0.6283
16856TIP3    H271984   0.199   2.737  12.989  2.5841  1.9925  0.2538
16857TIP3   OH271985   4.700   3.231  13.484  0.3232 -0.3857 -0.7585
16857TIP3    H171986   4.698   3.198  13.574  0.8826  1.9910  0.2154
16857TIP3    H271987   4.793   3.247  13.467  0.0846  0.6998 -1.1290
16858TIP3   OH271988   4.863   6.284  10.876 -0.1166 -0.2267  0.0536
16858TIP3    H171989   4.769   6.268  10.875  0.0393 -1.2573  0.5972
16858TIP3    H271990   4.880   6.335  10.797 -1.0074 -0.7809 -0.5108
16859TIP3   OH271991   2.962   5.486  11.122  0.4976 -0.5819 -0.3519
16859TIP3    H171992   3.008   5.521  11.046  3.0544  0.7321  1.6223
16859TIP3    H271993   2.942   5.563  11.175 -3.6137 -1.1443 -0.7246
16860TIP3   OH271994   5.101   6.239   2.618 -0.6758 -0.6018  0.1270
16860TIP3    H171995   5.008   6.259   2.627 -0.5476 -0.3336  1.0061
16860TIP3    H271996   5.125   6.199   2.702  0.2309  0.3226  0.3272
16861TIP3   OH271997   0.201   6.574  12.768 -0.5575  0.3602 -0.4325
16861TIP3    H171998   0.257   6.550  12.841  0.0494 -0.4900 -1.1530
16861TIP3    H271999   0.190   6.669  12.776 -0.9495  0.2198  1.0449
16862TIP3   OH272000   3.266   1.050   4.366  0.6455  0.2794  0.1833
16862TIP3    H172001   3.171   1.047   4.381  0.5717 -2.7669 -0.2515
16862TIP3    H272002   3.303   1.069   4.453 -0.2780 -3.3207  1.5279
16863TIP3   OH272003   5.038   3.019  11.243 -0.3389 -0.0966  0.0675
16863TIP3    H172004   5.133   3.033  11.242 -0.4042  1.9592  3.7702
16863TIP3    H272005   5.009   3.043  11.155  2.4477 -0.0337 -0.9320
16864TIP3   OH272006   4.496   0.281  15.838 -0.4725 -0.0909  0.6429
16864TIP3    H172007   4.542   0.256  15.919 -0.1745 -1.3608  0.1011
16864TIP3    H272008   4.422   0.220  15.833 -1.1607  0.7437  0.5552
16865TIP3   OH272009   5.551   5.517   2.769 -0.5281  0.2389 -0.0718
16865TIP3    H172010   5.573   5.510   2.676  1.1971 -1.3001  0.3880
16865TIP3    H272011   5.633   5.544   2.811 -1.9030  3.6067  0.7933
16866TIP3   OH272012   1.097   1.504   6.062 -0.1811 -0.0361  0.0455
16866TIP3    H172013   1.025   1.529   6.004  0.5810 -1.1383 -1.4590
16866TIP3    H272014   1.054   1.464   6.137 -1.1745  0.4854 -0.2284
16867TIP3   OH272015   3.511   6.024   2.218  0.6015 -0.2105  0.2585
16867TIP3    H172016   3.538   6.020   2.126 -1.0771 -0.9431 -0.2413
16867TIP3    H272017   3.534   5.938   2.253  0.9402 -0.0469  0.4435
16868TIP3   OH272018   6.516   0.877  14.797  0.0675  0.6678 -0.1984
16868TIP3    H172019   6.498   0.900  14.888 -1.6803  2.6257 -0.9651
16868TIP3    H272020   6.467   0.941  14.745  1.7342  0.1860 -2.5435
16869TIP3   OH272021   0.776   1.051  12.401 -0.0701 -0.5560 -0.1022
16869TIP3    H172022   0.763   0.991  12.474  0.2246  1.3998  1.6509
16869TIP3    H272023   0.850   1.014  12.352  1.2710 -0.7312  1.9559
16870TIP3   OH272024   2.029   1.320   5.252 -0.4856 -0.1240  0.3354
16870TIP3    H172025   1.994   1.251   5.195 -1.4782 -0.9433  1.8836
16870TIP3    H272026   2.045   1.277   5.335  2.3239  0.7047  0.3389
16871TIP3   OH272027   0.176   2.360  16.720  0.3415  0.1173 -0.0222
16871TIP3    H172028   0.223   2.278  16.736  1.6178  0.6810 -0.7670
16871TIP3    H272029   0.176   2.405  16.804  1.3965  0.2384 -0.0797
16872TIP3   OH272030   4.511   2.954   5.420 -0.5197  0.6615 -0.5287
16872TIP3    H172031   4.542   2.985   5.505  0.7114 -1.5168 -0.1257
16872TIP3    H272032   4.451   2.883   5.440  1.3273 -1.2641 -1.4140
16873TIP3   OH272033   4.670   0.214  11.315 -0.0624 -0.0743 -0.4198
16873TIP3    H172034   4.596   0.238  11.372 -1.5107 -2.4977 -1.1092
16873TIP3    H272035   4.649   0.255  11.231  0.8430  1.4983  0.0770
16874TIP3   OH272036   6.233   4.612  13.477  0.0277 -0.2339  0.2679
16874TIP3    H172037   6.191   4.683  13.428 -1.1089 -0.4212  0.9464
16874TIP3    H272038   6.277   4.560  13.409  2.1913  1.9037 -0.1249
16875TIP3   OH272039   6.698   0.754  13.823  0.0520 -0.4012  0.2816
16875TIP3    H172040   6.765   0.692  13.796 -0.9965 -1.5231  0.1463
16875TIP3    H272041   6.652   0.777  13.742 -1.2228 -1.5098  0.6365
16876TIP3   OH272042   3.033   3.482  14.561  0.3189  0.0065 -0.3758
16876TIP3    H172043   3.061   3.521  14.644  2.1110 -0.8774 -0.5054
16876TIP3    H272044   2.955   3.431  14.582  0.9309 -0.4490  0.8325
16877TIP3   OH272045   1.397   0.379   1.660 -0.0660  0.0649 -0.5823
16877TIP3    H172046   1.364   0.442   1.723  1.3853  1.3147 -1.0053
16877TIP3    H272047   1.331   0.377   1.591 -2.0509 -1.8876  1.2142
16878TIP3   OH272048   4.324   0.716   4.417 -0.2075 -0.0522  0.4712
16878TIP3    H172049   4.285   0.757   4.340 -1.6581 -2.2742 -0.0748
16878TIP3    H272050   4.354   0.789   4.471  2.2282  1.6081 -2.7953
16879TIP3   OH272051   6.432   5.938  13.018  0.4264 -0.1291  0.3573
16879TIP3    H172052   6.374   5.878  13.064 -0.4079  0.4856  0.1261
16879TIP3    H272053   6.377   5.980  12.952  1.3929 -0.3250 -0.6040
16880TIP3   OH272054   0.423   2.321  12.347  0.3098 -0.0217  0.2720
16880TIP3    H172055   0.463   2.250  12.397 -1.6286 -1.4318 -0.0999
16880TIP3    H272056   0.346   2.346  12.398  0.3444  1.0666 -0.1779
16881TIP3   OH272057   1.102   4.821   0.099 -0.6233 -0.2559  0.2220
16881TIP3    H172058   1.043   4.763   0.050 -1.2851 -0.7671  1.5650
16881TIP3    H272059   1.085   4.800   0.190 -0.2535  1.4776  0.7262
16882TIP3   OH272060   3.218   2.742   0.268  0.0724 -0.0951 -0.5347
16882TIP3    H172061   3.283   2.799   0.308 -2.1738  1.2608  1.4525
16882TIP3    H272062   3.215   2.665   0.325 -0.6848  0.2604 -0.0861
16883TIP3   OH272063   2.442   2.891  15.706  0.0196 -0.3229 -0.5260
16883TIP3    H172064   2.487   2.946  15.641  0.3489 -0.4539 -0.4147
16883TIP3    H272065   2.503   2.887  15.780 -1.1516  1.4323  0.6205
16884TIP3   OH272066   0.119   0.558   4.098  0.1856  0.0378 -0.8285
16884TIP3    H172067   0.044   0.520   4.054  0.1019 -1.3279  0.3979
16884TIP3    H272068   0.093   0.562   4.190  1.9794 -1.5794 -0.1790
16885TIP3   OH272069   0.721   5.886  11.581  0.1909 -0.1881 -0.2413
16885TIP3    H172070   0.696   5.799  11.550  1.5406 -0.7046  0.0159
16885TIP3    H272071   0.800   5.871  11.633  0.0921  1.1209  0.3304
16886TIP3   OH272072   1.024   3.454  16.047  0.9476 -0.0711  0.0590
16886TIP3    H172073   1.068   3.457  16.132  0.4188 -0.0860  0.3311
16886TIP3    H272074   0.937   3.490  16.063  1.0948  0.6087 -0.6319
16887TIP3   OH272075   2.207   2.383   4.152  0.3608 -0.4762  0.0791
16887TIP3    H172076   2.295   2.410   4.126  0.0618  0.5638  0.1102
16887TIP3    H272077   2.183   2.316   4.089  0.7426  0.0358 -0.6245
16888TIP3   OH272078   1.395   0.387  11.777  0.1408  0.3880 -0.2983
16888TIP3    H172079   1.438   0.338  11.847  0.6382  1.9571  0.5255
16888TIP3    H272080   1.461   0.392  11.708 -0.2286 -0.8501 -0.7792
16889TIP3   OH272081   5.119   2.464   3.786 -0.0564  0.6000  0.2865
16889TIP3    H172082   5.185   2.467   3.856  1.6044 -1.2907 -1.0951
16889TIP3    H272083   5.165   2.499   3.709 -1.5169  1.6415 -0.1609
16890TIP3   OH272084   1.017   5.929   4.688 -0.4069 -0.2757 -0.2553
16890TIP3    H172085   1.096   5.877   4.699  0.8344  1.7303  0.8476
16890TIP3    H272086   0.947   5.873   4.722  1.1011 -0.6221  2.5949
16891TIP3   OH272087   3.502   6.118  15.289 -0.4482 -0.2510  0.2517
16891TIP3    H172088   3.469   6.032  15.263 -0.0493 -0.7645  1.3909
16891TIP3    H272089   3.511   6.166  15.207  1.0484 -1.9080 -0.6060
16892TIP3   OH272090   1.907   4.360   5.309  0.6366 -0.2209  0.2936
16892TIP3    H172091   1.909   4.433   5.247  0.8991  0.1927  0.7888
16892TIP3    H272092   1.991   4.316   5.296  0.6695 -0.1663  0.3208
16893TIP3   OH272093   2.958   0.734   3.295  0.0228 -0.2432  0.2253
16893TIP3    H172094   3.022   0.673   3.260  0.0114  0.4723 -1.1113
16893TIP3    H272095   2.875   0.687   3.293 -0.1517  0.0538 -1.6402
16894TIP3   OH272096   3.271   3.098   3.364  0.1498 -0.5601  0.1114
16894TIP3    H172097   3.319   3.169   3.323 -0.0249  0.2352  1.2450
16894TIP3    H272098   3.325   3.020   3.348  0.0544 -0.3181 -1.6301
16895TIP3   OH272099   4.155   2.139  13.509  0.0638  0.3471  0.2433
16895TIP3    H172100   4.115   2.179  13.432  1.8334  1.6309 -0.0862
16895TIP3    H272101   4.185   2.053  13.479 -0.7093  0.1564 -0.0131
16896TIP3   OH272102   3.075   0.683  16.586  0.1118 -0.1873 -0.5679
16896TIP3    H172103   3.019   0.620  16.540 -0.0131 -0.4199 -0.1065
16896TIP3    H272104   3.072   0.762  16.531 -1.8739  0.3153  0.1631
16897TIP3   OH272105   5.739   1.844   4.967  0.8105  0.4908  0.3912
16897TIP3    H172106   5.699   1.808   5.046 -0.1117 -0.1084 -0.3217
16897TIP3    H272107   5.771   1.930   4.993 -0.2159  0.6443  1.2072
16898TIP3   OH272108   2.389   4.663   5.269  0.3874 -0.1047 -0.3814
16898TIP3    H172109   2.340   4.596   5.221 -1.2074  0.1280  0.8277
16898TIP3    H272110   2.419   4.618   5.348 -1.5820  0.7990  0.9465
16899TIP3   OH272111   5.962   3.868   2.811 -0.2295 -0.5281  0.4991
16899TIP3    H172112   5.909   3.871   2.891  1.2189 -0.3472  1.5015
16899TIP3    H272113   6.045   3.829   2.839  0.7844  0.7244 -0.6300
16900TIP3   OH272114   3.502   3.197   1.432 -0.4189  0.4764 -0.1678
16900TIP3    H172115   3.588   3.178   1.470 -0.8073 -0.1781  0.4236
16900TIP3    H272116   3.463   3.262   1.491  0.7801  3.0461 -2.0163
16901TIP3   OH272117   4.956   1.922  15.216 -0.3276 -0.4519 -0.3869
16901TIP3    H172118   4.936   2.014  15.231 -0.0792 -0.2166 -1.3742
16901TIP3    H272119   5.051   1.917  15.223 -0.0412 -0.0579 -2.9527
16902TIP3   OH272120   5.701   1.300   0.624 -0.7544  0.1686 -0.0716
16902TIP3    H172121   5.661   1.240   0.562  1.4617 -0.2212 -1.2300
16902TIP3    H272122   5.652   1.381   0.615 -0.6416  0.0502 -2.1996
16903TIP3   OH272123   2.742   2.868   2.000  0.3713 -0.2015 -0.1008
16903TIP3    H172124   2.676   2.800   1.992  0.0981  0.0334  0.1203
16903TIP3    H272125   2.780   2.855   2.087  0.4248 -0.1640 -0.1183
16904TIP3   OH272126   3.335   4.934  15.434 -0.4074 -0.3275 -0.3825
16904TIP3    H172127   3.284   4.877  15.492 -1.0570 -0.7747 -1.3824
16904TIP3    H272128   3.337   4.888  15.350  1.6664 -0.3392 -0.3778
16905TIP3   OH272129   6.765   2.060  13.427 -0.1269  0.7605  0.0442
16905TIP3    H172130   6.751   2.114  13.504 -0.6649  1.6564 -0.6576
16905TIP3    H272131   6.841   2.100  13.383 -0.8800  1.3259 -0.7785
16906TIP3   OH272132   1.782   6.370  16.502  0.3754  0.1544 -0.0528
16906TIP3    H172133   1.790   6.288  16.453  2.4294 -0.7293  1.5976
16906TIP3    H272134   1.689   6.376  16.523 -0.1177 -0.7671 -1.7767
16907TIP3   OH272135   4.007   0.905   4.888 -0.2639 -0.7530  0.0838
16907TIP3    H172136   3.938   0.839   4.892  0.2735 -1.3013  0.5831
16907TIP3    H272137   4.032   0.919   4.980 -2.1041  2.0370  0.2700
16908TIP3   OH272138   0.168   5.984  15.146  0.1719 -0.4577 -0.3881
16908TIP3    H172139   0.136   5.902  15.107  1.5795 -1.8579  1.2529
16908TIP3    H272140   0.158   5.971  15.240  1.3897  0.8433 -0.0477
16909TIP3   OH272141   2.685   6.547  13.122 -0.0274 -0.0523 -0.0901
16909TIP3    H172142   2.672   6.455  13.148  2.0281 -0.1779  0.6820
16909TIP3    H272143   2.771   6.548  13.081  0.6516  1.7741  1.2763
16910TIP3   OH272144   3.702   5.016  12.982 -0.1347 -0.5993  0.3872
16910TIP3    H172145   3.712   5.099  12.936 -2.0422  0.2480  1.3543
16910TIP3    H272146   3.626   5.030  13.039 -1.9582 -3.7171 -1.0489
16911TIP3   OH272147   5.079   3.143   5.224 -0.0601 -0.5203  0.2109
16911TIP3    H172148   5.013   3.083   5.189  1.0797 -1.3717 -0.5719
16911TIP3    H272149   5.060   3.147   5.318 -0.1673 -2.1292  0.2842
16912TIP3   OH272150   5.077   2.072  12.958  0.2303 -0.0077 -0.0373
16912TIP3    H172151   5.063   2.130  12.884 -2.8658  0.3755  0.7222
16912TIP3    H272152   5.097   2.131  13.031  1.4227 -0.2514 -0.1517
16913TIP3   OH272153   6.054   2.322   1.104 -0.1397  0.3584 -0.0979
16913TIP3    H172154   5.995   2.371   1.047  1.7031  0.0657 -2.4295
16913TIP3    H272155   6.018   2.234   1.106 -0.6557  0.5646 -0.1417
16914TIP3   OH272156   5.104   5.535   2.779 -0.1878 -0.2146  0.2447
16914TIP3    H172157   5.112   5.628   2.755  0.0310  0.2931  2.0713
16914TIP3    H272158   5.019   5.508   2.745  0.0066  0.4700 -0.8425
16915TIP3   OH272159   0.546   6.219   4.413  0.1032 -0.2470 -0.2703
16915TIP3    H172160   0.473   6.207   4.474 -0.1793  0.1696 -0.5233
16915TIP3    H272161   0.513   6.281   4.349  0.6485 -0.1436 -0.4493
16916TIP3   OH272162   6.595   1.594  12.334 -0.1733  0.1854  0.2157
16916TIP3    H172163   6.630   1.656  12.270 -0.8137  0.5150  0.1769
16916TIP3    H272164   6.659   1.595  12.406 -0.2201  0.9599  0.2555
16917TIP3   OH272165   2.471   5.423  14.800 -0.1139 -0.2501  0.1305
16917TIP3    H172166   2.405   5.354  14.804  1.9414 -2.3798 -0.2645
16917TIP3    H272167   2.470   5.451  14.708 -0.1995 -0.5540  0.0361
16918TIP3   OH272168   1.647   3.542   5.604 -0.4294  0.3641  0.1891
16918TIP3    H172169   1.732   3.582   5.622 -0.6875  0.7916  0.4820
16918TIP3    H272170   1.623   3.574   5.518  0.1860 -0.6049 -0.3656
16919TIP3   OH272171   5.275   1.676  16.302 -0.5472  0.3963 -1.1339
16919TIP3    H172172   5.233   1.597  16.336 -0.4406 -0.0817 -2.0883
16919TIP3    H272173   5.333   1.704  16.373  0.5620 -1.2595 -1.3449
16920TIP3   OH272174   4.972   3.659  17.181 -0.2915  0.1510 -0.3707
16920TIP3    H172175   5.018   3.691  17.258  0.1234  0.6648 -0.8205
16920TIP3    H272176   4.888   3.627  17.214 -0.2219  0.5973  0.2524
16921TIP3   OH272177   1.901   6.725  16.022  0.2176 -0.0094  0.1728
16921TIP3    H172178   1.894   6.669  16.099  1.8308 -1.7152 -0.8511
16921TIP3    H272179   1.876   6.669  15.948  2.7269  0.2712 -0.9877
16922TIP3   OH272180   3.687   5.573  13.846 -0.9158  0.3521 -0.1557
16922TIP3    H172181   3.596   5.550  13.864 -1.0234 -0.3662 -1.5113
16922TIP3    H272182   3.685   5.666  13.826 -1.2629  0.4499  0.3161
16923TIP3   OH272183   4.343   5.391   2.550  0.1888  0.0812  0.1235
16923TIP3    H172184   4.322   5.397   2.643  0.7845 -0.8332  0.3275
16923TIP3    H272185   4.411   5.457   2.536 -0.0998  0.4119  0.2734
16924TIP3   OH272186   5.260   5.544  12.243 -0.1424  0.5074  0.0625
16924TIP3    H172187   5.199   5.515  12.310  0.2510  0.5156  0.4306
16924TIP3    H272188   5.217   5.522  12.160  0.0929 -1.0599  0.3171
16925TIP3   OH272189   4.177   1.129  14.508  0.5317  0.2387 -0.0811
16925TIP3    H172190   4.212   1.059  14.564 -0.4714 -0.8299 -0.7455
16925TIP3    H272191   4.151   1.198  14.570 -0.4807 -0.8842  0.8030
16926TIP3   OH272192   0.764   0.760   4.654 -0.1318 -0.3539  0.5531
16926TIP3    H172193   0.823   0.759   4.729  0.0081 -1.2391  0.4407
16926TIP3    H272194   0.820   0.787   4.581 -0.4243  1.2037  0.8734
16927TIP3   OH272195   0.380   1.914   3.984  0.1865  0.4567  0.7722
16927TIP3    H172196   0.425   1.917   3.899 -1.3005  0.6642 -0.0510
16927TIP3    H272197   0.447   1.885   4.046  1.6018  1.3596 -0.2703
16928TIP3   OH272198   4.043   2.073  12.620  0.0802 -0.4461  0.2454
16928TIP3    H172199   4.111   2.135  12.595  0.9217 -1.3466  0.2172
16928TIP3    H272200   4.034   2.083  12.715  2.3698 -2.2946  0.7638
16929TIP3   OH272201   4.169   5.450   0.369 -0.0107 -0.3198  0.5225
16929TIP3    H172202   4.242   5.389   0.372 -0.7465 -1.3403 -1.0874
16929TIP3    H272203   4.187   5.512   0.439  2.1484 -0.8117  0.4783
16930TIP3   OH272204   5.075   5.221   1.510 -0.1500  0.0579  0.2623
16930TIP3    H172205   5.125   5.230   1.429 -1.4432  0.6494 -0.5017
16930TIP3    H272206   5.022   5.142   1.497 -1.1306  0.7260  0.0750
16931TIP3   OH272207   5.351   1.450  17.129 -0.1131  0.3233  0.4656
16931TIP3    H172208   5.405   1.501  17.069  0.5592  0.4396  1.1645
16931TIP3    H272209   5.283   1.511  17.158 -0.3101  0.3299  0.0137
16932TIP3   OH272210   5.568   4.036   2.636 -0.6795  0.1959  0.1576
16932TIP3    H172211   5.553   4.071   2.724 -2.9665 -1.1597  0.3881
16932TIP3    H272212   5.573   3.941   2.648  0.5063  0.0823 -1.0219
16933TIP3   OH272213   3.468   0.648  15.681  0.5243 -0.0079 -0.1473
16933TIP3    H172214   3.439   0.737  15.660  2.1153  0.3193 -1.1540
16933TIP3    H272215   3.528   0.660  15.754 -0.4987 -0.4660  0.7842
16934TIP3   OH272216   4.470   0.882   3.387 -0.9456 -0.0525  0.1050
16934TIP3    H172217   4.383   0.896   3.351 -0.6230 -0.7780 -0.9967
16934TIP3    H272218   4.530   0.905   3.316 -0.2077  0.9192  1.0109
16935TIP3   OH272219   0.220   1.115  15.537 -0.4073 -0.0981  0.1938
16935TIP3    H172220   0.160   1.064  15.482  0.3256 -0.7499 -0.0197
16935TIP3    H272221   0.301   1.063  15.538 -0.3187  0.0408  1.6714
16936TIP3   OH272222   2.498   3.636   0.259 -0.8739 -0.0072  0.4512
16936TIP3    H172223   2.439   3.654   0.332 -1.6584 -0.2282 -0.1093
16936TIP3    H272224   2.483   3.707   0.197  1.0924  1.1789  1.2446
16937TIP3   OH272225   1.520   5.743  12.475 -0.1713  0.2150 -0.6519
16937TIP3    H172226   1.561   5.815  12.426 -0.1901  0.0376 -0.9267
16937TIP3    H272227   1.429   5.770  12.484 -0.1991  0.1858 -0.8343
16938TIP3   OH272228   5.614   4.503  10.297  0.3804 -0.0647  0.1107
16938TIP3    H172229   5.675   4.467  10.232  2.2047  0.3965  1.4955
16938TIP3    H272230   5.630   4.597  10.295 -1.3836  0.2581 -0.5265
16939TIP3   OH272231   2.432   6.264   5.278  0.6541  0.2005  0.1619
16939TIP3    H172232   2.456   6.252   5.186 -1.6850  1.6352 -0.7363
16939TIP3    H272233   2.490   6.333   5.309  0.4487  0.7859 -0.7237
16940TIP3   OH272234   3.388   4.490  15.386 -0.2484  0.1193 -0.8505
16940TIP3    H172235   3.399   4.513  15.294  0.3686  2.5428 -0.2300
16940TIP3    H272236   3.324   4.553  15.419  1.5460  1.0626  0.9846
16941TIP3   OH272237   3.738   3.081   3.760 -0.2610  0.2768  0.1948
16941TIP3    H172238   3.725   3.166   3.718 -1.9050 -0.8017 -1.6327
16941TIP3    H272239   3.816   3.045   3.717 -0.7263  0.0480 -0.4682
16942TIP3   OH272240   0.965   0.097  15.040 -0.6020 -0.0449 -0.4114
16942TIP3    H172241   1.014   0.043  15.102  0.9443  1.2254 -0.4640
16942TIP3    H272242   0.930   0.168  15.093  0.2506  0.7384 -0.8740
16943TIP3   OH272243   1.453   3.223   5.432 -0.0887  0.5552 -0.6916
16943TIP3    H172244   1.482   3.240   5.342  0.8659 -1.5261 -0.8227
16943TIP3    H272245   1.527   3.179   5.474 -0.5278  1.4278  1.1299
16944TIP3   OH272246   2.469   0.730   0.469  0.4070  0.3436  0.6493
16944TIP3    H172247   2.521   0.806   0.496 -0.2261  1.4423 -1.0474
16944TIP3    H272248   2.467   0.673   0.546 -0.7058  2.9187  2.6689
16945TIP3   OH272249   2.552   4.912  15.506 -0.1849  0.5542 -0.7613
16945TIP3    H172250   2.589   4.912  15.594 -0.7670  0.7666 -0.5135
16945TIP3    H272251   2.492   4.837  15.504 -1.3205  1.4331 -0.4774
16946TIP3   OH272252   0.787   3.136  12.576 -0.0860 -0.0883  0.5121
16946TIP3    H172253   0.838   3.062  12.542 -1.2693 -1.4879  1.6314
16946TIP3    H272254   0.702   3.127  12.534 -0.5111  0.1267  1.3129
16947TIP3   OH272255   3.953   0.014   0.723 -0.5635 -0.3742  0.2560
16947TIP3    H172256   4.014   0.073   0.680 -0.3486  1.9916  3.4085
16947TIP3    H272257   4.005  -0.064   0.743 -0.1634 -0.6992 -1.8210
16948TIP3   OH272258   1.697   5.323  15.443 -0.5750  0.6045 -0.1753
16948TIP3    H172259   1.753   5.272  15.384 -1.2578  0.7011 -0.9179
16948TIP3    H272260   1.615   5.333  15.396 -1.1206  0.7444  0.7717
16949TIP3   OH272261   6.716   2.091   2.861 -0.1550  0.0219 -0.2017
16949TIP3    H172262   6.646   2.056   2.806 -0.4573  0.4999 -0.1182
16949TIP3    H272263   6.792   2.094   2.803  0.1127 -1.5764  0.0045
16950TIP3   OH272264   2.661   2.029  15.394  0.2824  0.0834 -0.4440
16950TIP3    H172265   2.721   2.091  15.352  2.5055 -0.5095  1.6139
16950TIP3    H272266   2.608   2.082  15.452 -0.6944  0.5147 -1.6866
16951TIP3   OH272267   1.798   0.996   4.676  0.1616 -0.4280 -0.2430
16951TIP3    H172268   1.738   0.940   4.724  0.2007  0.4158  0.8150
16951TIP3    H272269   1.747   1.074   4.654  0.5532 -0.1793 -0.2964
16952TIP3   OH272270   6.106   2.645  14.386 -0.0921 -0.5976  0.0191
16952TIP3    H172271   6.042   2.668  14.453  0.4000  0.8174  0.0374
16952TIP3    H272272   6.059   2.585  14.328 -2.1650  1.8943 -1.0918
16953TIP3   OH272273   2.368   2.388   2.149 -0.2846 -0.6813  0.5363
16953TIP3    H172274   2.355   2.332   2.226 -0.2262 -0.2712  0.8507
16953TIP3    H272275   2.418   2.463   2.183 -1.2600  0.0802  0.3493
16954TIP3   OH272276   3.663   1.992   6.865 -0.2610  0.0796  0.2876
16954TIP3    H172277   3.702   2.074   6.897  0.4364  0.6675 -1.9046
16954TIP3    H272278   3.716   1.968   6.789 -1.1216 -1.8571  0.2369
16955TIP3   OH272279   6.646   3.185   0.550  0.2433  0.4951 -0.3607
16955TIP3    H172280   6.688   3.195   0.465  0.3646  1.0087 -0.2472
16955TIP3    H272281   6.561   3.146   0.531  0.7792 -0.6096 -0.5894
16956TIP3   OH272282   4.478   4.653   0.789 -0.1936  0.5515 -0.0229
16956TIP3    H172283   4.399   4.607   0.761  0.7349 -1.8070  1.0000
16956TIP3    H272284   4.549   4.590   0.776  0.9229  0.9846  3.1328
16957TIP3   OH272285   5.071   5.005   4.733  0.0933 -0.2343  0.6492
16957TIP3    H172286   5.057   5.088   4.778  1.2657 -0.7233  1.9992
16957TIP3    H272287   5.109   5.029   4.649 -0.2138  0.6151  0.7467
16958TIP3   OH272288   0.526   1.226  12.494  0.4742  0.1591 -0.3217
16958TIP3    H172289   0.495   1.148  12.449  0.2817  0.0018  0.0874
16958TIP3    H272290   0.612   1.243  12.455 -0.1515  0.6619 -1.5300
16959TIP3   OH272291   4.777   3.132  13.745 -0.5449 -0.2420  0.2297
16959TIP3    H172292   4.788   3.223  13.773 -2.3027  0.3060 -0.7156
16959TIP3    H272293   4.783   3.081  13.826 -1.0739  0.8692  0.9848
16960TIP3   OH272294   1.721   1.431   0.627  0.3291 -0.2589  0.0715
16960TIP3    H172295   1.793   1.482   0.591  0.9972 -2.0095 -1.2452
16960TIP3    H272296   1.685   1.383   0.552 -3.4162  1.8139  0.2861
16961TIP3   OH272297   0.072   0.015   2.929 -0.2256  0.0805 -0.4887
16961TIP3    H172298   0.092   0.097   2.974 -1.5813 -0.5923  1.4601
16961TIP3    H272299  -0.010  -0.015   2.968 -0.5612 -1.4712 -2.2219
16962TIP3   OH272300   3.261   3.268  11.999  0.4598  0.2284  0.4557
16962TIP3    H172301   3.314   3.284  12.077  0.9263  0.9383  0.0066
16962TIP3    H272302   3.323   3.279  11.926 -0.5241  2.1758 -0.1444
16963TIP3   OH272303   5.673   6.162   3.841  0.5811 -0.2586  0.1119
16963TIP3    H172304   5.685   6.146   3.935  0.5631 -2.5925 -0.2244
16963TIP3    H272305   5.728   6.237   3.822  0.0923  0.6662  2.1007
16964TIP3   OH272306   4.410   0.937  16.286  0.6671  0.1718  0.3602
16964TIP3    H172307   4.373   0.852  16.264 -0.5159  0.4399  1.2068
16964TIP3    H272308   4.502   0.919  16.305  0.1041 -1.2027  2.0360
16965TIP3   OH272309   4.339   3.089   1.434 -0.3646  0.3899 -0.2689
16965TIP3    H172310   4.255   3.052   1.410  1.1694 -1.2950 -3.5860
16965TIP3    H272311   4.368   3.136   1.356  2.4035 -0.3598  0.2145
16966TIP3   OH272312   2.972   5.115   3.876  0.0457  0.7901 -0.0811
16966TIP3    H172313   3.051   5.087   3.830  1.1836  3.0381  0.3795
16966TIP3    H272314   2.996   5.198   3.917 -2.2099  0.9464  1.0777
16967TIP3   OH272315   0.871   1.147   4.859  0.2463  0.5223 -0.2641
16967TIP3    H172316   0.877   1.142   4.764 -0.1243 -0.3364 -0.2533
16967TIP3    H272317   0.961   1.143   4.890  0.2706 -2.2426 -0.4752
16968TIP3   OH272318   0.918   1.635  11.679 -0.3259  0.1931  0.3936
16968TIP3    H172319   0.882   1.673  11.759 -1.0383  0.7767 -0.1915
16968TIP3    H272320   0.997   1.589  11.708 -0.2774  0.8479  1.3437
16969TIP3   OH272321   1.059   2.102   5.725  0.5620  0.6164 -0.6456
16969TIP3    H172322   1.154   2.102   5.735  0.4268 -1.1333  1.2042
16969TIP3    H272323   1.027   2.042   5.792 -2.0955  3.5153  0.9651
16970TIP3   OH272324   2.895   3.431   6.457  0.4052  0.2705 -0.4264
16970TIP3    H172325   2.813   3.386   6.474  0.4759  0.7343  1.2534
16970TIP3    H272326   2.962   3.362   6.460 -0.0108 -0.4298 -3.5482
16971TIP3   OH272327   6.293   3.810  14.211 -0.4104 -0.1593 -0.3365
16971TIP3    H172328   6.380   3.790  14.176 -0.1547 -1.2080  0.8274
16971TIP3    H272329   6.298   3.787  14.303 -2.1146 -0.8831 -0.3772
16972TIP3   OH272330   1.658   0.900   2.434  0.3440  0.3234 -0.5565
16972TIP3    H172331   1.708   0.931   2.509  1.1745 -2.1447  0.0245
16972TIP3    H272332   1.572   0.878   2.469  0.8633 -1.2328 -0.1497
16973TIP3   OH272333   2.067   0.184   1.258 -0.2791 -0.5347 -0.5086
16973TIP3    H172334   1.987   0.181   1.311  0.6408 -0.5090  0.9327
16973TIP3    H272335   2.049   0.250   1.191 -1.1417  0.1282  0.3502
16974TIP3   OH272336   3.437   4.531   1.588 -0.1059  0.1782 -0.5764
16974TIP3    H172337   3.494   4.581   1.646  0.4472 -3.1298  2.0339
16974TIP3    H272338   3.366   4.499   1.645 -0.2928 -2.1152 -1.9649
16975TIP3   OH272339   3.545   4.159  14.557 -0.4439 -0.5090  1.2410
16975TIP3    H172340   3.584   4.087  14.507  1.4651  0.5597  1.1183
16975TIP3    H272341   3.542   4.232  14.495  1.6190  0.7333  2.5001
16976TIP3   OH272342   2.351   4.696   2.897 -0.1221  0.0346  0.2935
16976TIP3    H172343   2.373   4.643   2.973  1.6234  0.3746  0.0719
16976TIP3    H272344   2.271   4.742   2.922  0.0675 -0.3429  1.6807
16977TIP3   OH272345   1.209   6.299   5.948  0.0951  0.2328 -0.1330
16977TIP3    H172346   1.262   6.297   6.027  0.5945  0.4497 -0.4567
16977TIP3    H272347   1.270   6.322   5.878 -0.7060  2.2603 -0.2541
16978TIP3   OH272348   6.540   5.104  13.027 -0.4255 -0.5064  0.1588
16978TIP3    H172349   6.569   5.013  13.037  0.0288 -0.1834  2.2058
16978TIP3    H272350   6.603   5.143  12.967 -0.7203 -1.5542 -0.8759
16979TIP3   OH272351   5.635   0.089   4.805  0.1228 -0.4219 -0.3519
16979TIP3    H172352   5.553   0.123   4.841  0.9758 -1.1129  2.4994
16979TIP3    H272353   5.695   0.164   4.809  0.2187 -0.5013 -0.3123
16980TIP3   OH272354   6.512   4.185  13.275  0.1965  0.5667 -0.1978
16980TIP3    H172355   6.465   4.110  13.313 -0.0266  0.8958  0.1719
16980TIP3    H272356   6.464   4.204  13.194 -0.6063  1.2047  0.4140
16981TIP3   OH272357   5.127   3.586  15.970 -0.0276  0.3895  0.4001
16981TIP3    H172358   5.172   3.565  16.051 -0.9632 -0.8744  0.6297
16981TIP3    H272359   5.139   3.509  15.915 -0.7616  0.5730 -0.0396
16982TIP3   OH272360   5.692   5.515  15.608  0.2038  0.0957 -0.1013
16982TIP3    H172361   5.732   5.569  15.540 -1.3945  2.1278  0.4279
16982TIP3    H272362   5.668   5.434  15.564 -1.1072  1.4765 -2.1293
16983TIP3   OH272363   2.031   6.030   2.893  0.3144  0.4165 -0.5759
16983TIP3    H172364   2.054   6.029   2.800  0.0157  2.5245 -0.7060
16983TIP3    H272365   2.107   5.991   2.936  1.5141  1.6074 -1.5295
16984TIP3   OH272366   0.435   5.176  15.795  0.1051  0.7649  0.7454
16984TIP3    H172367   0.346   5.201  15.821  0.1235  0.2959  1.2576
16984TIP3    H272368   0.433   5.180  15.699  0.3427  3.5799  0.7646
16985TIP3   OH272369   1.655   4.629  14.042  0.0735  0.4753  0.2652
16985TIP3    H172370   1.631   4.585  14.124 -2.0696  0.6086 -0.2329
16985TIP3    H272371   1.646   4.561  13.975  0.8921  0.6132 -0.0016
16986TIP3   OH272372   6.532   4.866   1.493 -0.0430  0.3685 -0.0206
16986TIP3    H172373   6.548   4.879   1.586  1.9004 -0.5938 -0.1693
16986TIP3    H272374   6.567   4.945   1.451 -1.4048  1.0512  0.0534
16987TIP3   OH272375   3.702   3.645   5.610  0.1445 -0.4829  0.0916
16987TIP3    H172376   3.663   3.618   5.527 -1.1935  1.5193 -0.0061
16987TIP3    H272377   3.684   3.572   5.670 -0.6319 -1.1114 -0.8701
16988TIP3   OH272378   3.037   4.428   3.352  0.0640  0.0038 -0.7876
16988TIP3    H172379   2.969   4.421   3.285 -0.4602 -0.2103 -0.2429
16988TIP3    H272380   3.037   4.521   3.376 -1.2299 -0.2792  0.4151
16989TIP3   OH272381   1.396   4.107  13.154 -0.2166 -0.0954 -0.4275
16989TIP3    H172382   1.392   4.123  13.248 -0.4147  0.6693 -0.5638
16989TIP3    H272383   1.353   4.182  13.114 -2.3217 -1.5386 -1.0334
16990TIP3   OH272384   4.706   5.347  16.220  0.5351  0.2772 -0.3554
16990TIP3    H172385   4.641   5.390  16.277  1.5271 -1.6076  2.4190
16990TIP3    H272386   4.786   5.398  16.234  0.4439  0.6989 -1.2980
16991TIP3   OH272387   3.226   1.382  11.244 -0.2169 -0.2083  0.1269
16991TIP3    H172388   3.206   1.377  11.151  0.3680 -0.9386  0.0242
16991TIP3    H272389   3.141   1.390  11.287 -0.4351  1.2288 -0.5163
16992TIP3   OH272390   5.138   3.058  11.938 -0.2635 -0.3115  0.2100
16992TIP3    H172391   5.207   3.058  11.871  0.2418 -1.1916  0.7235
16992TIP3    H272392   5.056   3.068  11.888  0.1671 -0.1576 -0.4722
16993TIP3   OH272393   0.882   4.508  12.693  0.0159  0.0176  0.1142
16993TIP3    H172394   0.935   4.434  12.661 -0.3210 -0.1619 -0.0325
16993TIP3    H272395   0.791   4.479  12.682 -0.1296  0.7219 -0.5612
16994TIP3   OH272396   3.782   5.541   2.844  0.5356 -0.3771  0.0053
16994TIP3    H172397   3.712   5.513   2.903  0.1737 -1.3448 -0.8567
16994TIP3    H272398   3.807   5.628   2.875 -1.7743  0.4553 -0.3240
16995TIP3   OH272399   2.474   5.440  14.531 -0.0817  0.0483  0.1926
16995TIP3    H172400   2.559   5.398  14.545  0.6157  1.4931  0.5078
16995TIP3    H272401   2.424   5.376  14.481  1.3126 -0.6996 -0.3122
16996TIP3   OH272402   3.774   1.812  16.205 -0.3061  0.6222 -0.1277
16996TIP3    H172403   3.758   1.797  16.112  0.1659  2.5944 -0.5927
16996TIP3    H272404   3.839   1.746  16.230 -0.0122  0.4235 -1.3575
16997TIP3   OH272405   5.099   1.376  12.790 -0.0844 -0.2598 -0.6894
16997TIP3    H172406   5.109   1.335  12.704  1.8024 -0.8796 -0.2297
16997TIP3    H272407   5.030   1.441  12.778 -1.2042 -1.6532 -2.1669
16998TIP3   OH272408   0.798   5.172   5.723 -0.1173  0.6333 -0.0722
16998TIP3    H172409   0.710   5.210   5.722 -0.6908 -0.6193 -1.5905
16998TIP3    H272410   0.835   5.195   5.637  0.5773  0.1169  0.0756
16999TIP3   OH272411   1.911   2.185  14.296 -0.2703  0.6246 -0.6679
16999TIP3    H172412   1.861   2.125  14.241 -0.4687  0.1043  0.0777
16999TIP3    H272413   1.999   2.149  14.297 -0.4772  0.1228  0.0905
17000TIP3   OH272414   3.269   0.310   5.217 -0.1445  0.6746 -0.4979
17000TIP3    H172415   3.284   0.229   5.266  0.1697  1.4426  0.7302
17000TIP3    H272416   3.183   0.298   5.177  0.2498 -0.5853 -1.0008
17001TIP3   OH272417   3.718   5.507  17.055 -0.0162  0.4272 -0.0106
17001TIP3    H172418   3.710   5.428  17.001 -3.6684 -0.0402  0.9379
17001TIP3    H272419   3.671   5.486  17.136 -0.5545  3.3189  0.5421
17002TIP3   OH272420   1.619   6.163  13.094 -0.0852  0.5396  0.2397
17002TIP3    H172421   1.648   6.221  13.023 -1.1937  0.5838 -0.1934
17002TIP3    H272422   1.609   6.078  13.052  0.8981  0.1572  0.7355
17003TIP3   OH272423   3.901   6.489  15.571 -0.5087 -0.4500 -0.2117
17003TIP3    H172424   3.872   6.407  15.532  0.4978 -0.2076 -1.5554
17003TIP3    H272425   3.992   6.498  15.543 -0.8015  1.4667 -0.7242
17004TIP3   OH272426   2.196   0.971  16.108  0.1641  0.2446 -0.4532
17004TIP3    H172427   2.197   0.876  16.094 -0.1654  0.2353 -0.4149
17004TIP3    H272428   2.158   0.982  16.195  0.4866  0.3972 -0.3282
17005TIP3   OH272429   6.201   1.018   5.741  0.4152  0.0924  0.3543
17005TIP3    H172430   6.282   0.970   5.725  0.1057 -0.2287 -0.2834
17005TIP3    H272431   6.133   0.950   5.743  0.1324  0.3794  0.6760
17006TIP3   OH272432   3.279   6.089  16.597 -0.0699  0.2264  0.0462
17006TIP3    H172433   3.187   6.081  16.573 -0.4366  1.0942  1.1403
17006TIP3    H272434   3.280   6.140  16.678  1.4398  1.1039 -0.4822
17007TIP3   OH272435   3.394   6.672  13.105  0.9393 -0.1190 -0.2403
17007TIP3    H172436   3.383   6.614  13.030 -0.5611 -0.7406  0.4313
17007TIP3    H272437   3.475   6.641  13.147  0.6452 -1.1425 -0.4027
17008TIP3   OH272438   3.916   6.561  16.055  0.2869  0.2843 -0.0461
17008TIP3    H172439   3.952   6.502  15.989  1.3194  1.0623 -0.2016
17008TIP3    H272440   3.946   6.648  16.028 -0.4649  0.7770  0.6697
17009TIP3   OH272441   2.993   6.451  11.479 -0.3070 -0.1523  0.0530
17009TIP3    H172442   3.012   6.437  11.572 -1.5170 -0.6476  0.2393
17009TIP3    H272443   2.937   6.529  11.478 -2.8393 -1.8361  0.0786
17010TIP3   OH272444   4.258   2.365   2.780 -0.1697  0.1803  0.1683
17010TIP3    H172445   4.197   2.351   2.708  0.1671  1.7331 -0.4670
17010TIP3    H272446   4.329   2.416   2.742  1.7652 -1.8694  0.7899
17011TIP3   OH272447   6.198   2.852   3.377 -0.6685  0.0563 -0.2670
17011TIP3    H172448   6.188   2.788   3.307 -0.5391 -0.0685 -0.1708
17011TIP3    H272449   6.246   2.925   3.336  1.3650 -0.9307  0.2484
17012TIP3   OH272450   1.617   6.345  13.352  0.4084 -0.1701 -0.2252
17012TIP3    H172451   1.573   6.341  13.437  1.6846 -1.8918  0.4027
17012TIP3    H272452   1.579   6.272  13.303 -0.5814  1.0250 -1.3234
17013TIP3   OH272453   1.517   3.179  11.218 -0.0453  0.1690  0.3364
17013TIP3    H172454   1.453   3.204  11.152 -1.4119 -1.5536  0.9437
17013TIP3    H272455   1.505   3.244  11.288  0.8538  1.5123 -0.6924
17014TIP3   OH272456   3.094   5.495  11.442  0.2114  0.5275  0.5704
17014TIP3    H172457   3.184   5.529  11.443  1.0041 -1.4451  1.5384
17014TIP3    H272458   3.100   5.413  11.394 -1.0500  0.3011  0.7799
17015TIP3   OH272459   6.221   6.300   0.207  0.0274 -0.4574 -0.3803
17015TIP3    H172460   6.131   6.318   0.180  0.0463  0.3409  0.0381
17015TIP3    H272461   6.266   6.385   0.200  0.9610 -1.0000 -1.3411
17016TIP3   OH272462   6.104   2.005   4.767 -0.2156 -0.6895  0.0283
17016TIP3    H172463   6.071   1.956   4.842 -0.5372 -0.2985  0.1510
17016TIP3    H272464   6.200   2.005   4.778 -0.2682 -0.4880  0.5384
17017TIP3   OH272465   4.505   2.072   1.755  0.2075 -0.2530  0.6006
17017TIP3    H172466   4.492   1.991   1.707 -0.5873  0.2563 -0.0761
17017TIP3    H272467   4.588   2.107   1.723 -0.3561  0.1260 -0.4996
17018TIP3   OH272468   2.318   6.032   2.454  0.2050 -0.5164  0.2550
17018TIP3    H172469   2.246   6.056   2.395  0.4218 -1.5238 -0.4601
17018TIP3    H272470   2.370   6.111   2.463  0.2148 -0.3621 -0.9948
17019TIP3   OH272471   3.971   0.847   6.387  0.1515 -0.1808  0.7386
17019TIP3    H172472   3.975   0.798   6.470 -1.7030  0.7487  1.4384
17019TIP3    H272473   3.993   0.936   6.411  0.2959 -0.0417  0.0971
17020TIP3   OH272474   2.002   0.210  10.876 -0.6952 -0.5859 -0.1735
17020TIP3    H172475   1.927   0.179  10.825 -0.0966 -0.6606 -1.0276
17020TIP3    H272476   2.074   0.154  10.849 -0.0705  0.2124 -0.1904
17021TIP3   OH272477   0.550   3.936   3.396 -0.2533 -0.1931  0.2758
17021TIP3    H172478   0.458   3.941   3.370 -0.4994 -0.4548  1.0609
17021TIP3    H272479   0.582   3.855   3.356 -0.4141 -0.2036  0.1654
17022TIP3   OH272480   3.056   4.026   1.514 -0.5445  0.3882  0.1383
17022TIP3    H172481   3.024   4.044   1.602 -0.2627  2.2572 -0.1045
17022TIP3    H272482   2.979   4.035   1.458 -0.6210 -0.3034  0.1221
17023TIP3   OH272483   4.190   2.760   3.772  0.0242  0.1495 -0.0916
17023TIP3    H172484   4.193   2.815   3.851  2.4697 -1.6613  1.2327
17023TIP3    H272485   4.199   2.822   3.700 -0.2460  1.7181  1.1475
17024TIP3   OH272486   2.798   6.271  13.496  0.3281  0.5336 -0.0113
17024TIP3    H172487   2.741   6.295  13.569  0.8056  2.3465 -0.1891
17024TIP3    H272488   2.813   6.177  13.507 -0.8834  0.4595  1.3009
17025TIP3   OH272489   3.962   1.122  10.711  0.3284  0.3229 -0.0405
17025TIP3    H172490   4.030   1.080  10.659 -0.6639  0.6259 -1.6535
17025TIP3    H272491   4.010   1.167  10.782  1.6223 -0.9577 -0.0614
17026TIP3   OH272492   1.791   2.184   4.180  0.4298 -0.0550 -0.5959
17026TIP3    H172493   1.756   2.267   4.147 -0.0165 -0.1668 -0.4167
17026TIP3    H272494   1.764   2.181   4.272  0.6751 -0.2711 -0.5302
17027TIP3   OH272495   0.122   5.579   2.858  0.0386 -0.2349  0.6736
17027TIP3    H172496   0.123   5.530   2.776  1.4261 -0.8737  1.0535
17027TIP3    H272497   0.214   5.597   2.876 -0.0188 -1.9714  3.1671
17028TIP3   OH272498   1.887   5.221  17.249 -0.7279 -0.7949  0.0522
17028TIP3    H172499   1.957   5.166  17.213 -0.8085  0.7540 -2.6660
17028TIP3    H272500   1.807   5.172  17.230 -0.6311 -1.0064  0.1706
17029TIP3   OH272501   6.353   0.889  12.918 -0.3387  0.1886  0.1786
17029TIP3    H172502   6.265   0.885  12.955 -0.9839 -1.4217 -1.3642
17029TIP3    H272503   6.396   0.809  12.951  0.6061  0.9876  0.9677
17030TIP3   OH272504   4.143   6.279   3.174 -0.6419  0.1459 -0.3573
17030TIP3    H172505   4.206   6.285   3.246 -0.6155  1.4319 -0.4577
17030TIP3    H272506   4.094   6.199   3.192  0.1260 -0.1646  0.4568
17031TIP3   OH272507   5.372   2.187  12.774  0.2103 -0.0656  0.2895
17031TIP3    H172508   5.283   2.169  12.742  0.7126 -2.8263  0.2102
17031TIP3    H272509   5.417   2.224  12.698 -0.2515 -0.8752 -0.3993
17032TIP3   OH272510   5.126   4.153   3.126  0.1088 -0.3009 -0.0211
17032TIP3    H172511   5.158   4.102   3.200  0.2612 -1.2266 -0.7013
17032TIP3    H272512   5.078   4.226   3.165  1.8983  0.3825  1.0150
17033TIP3   OH272513   0.268   3.485  16.056  0.0061 -0.9296 -0.5509
17033TIP3    H172514   0.352   3.530  16.041 -0.0436 -0.9674 -0.9665
17033TIP3    H272515   0.265   3.419  15.987 -0.7974 -0.3160 -1.1225
17034TIP3   OH272516   2.493   3.042   1.470 -0.1589  0.1284 -0.4178
17034TIP3    H172517   2.523   3.128   1.441 -0.4710  0.1759 -0.6087
17034TIP3    H272518   2.536   2.981   1.411 -0.8117  0.2270 -1.0088
17035TIP3   OH272519   6.735   0.887  15.064 -0.3053  0.2065  0.1056
17035TIP3    H172520   6.659   0.938  15.092  0.7423  0.5414  2.6108
17035TIP3    H272521   6.810   0.943  15.084  0.6800 -0.0868 -2.3731
17036TIP3   OH272522   4.950   4.499  16.345  0.2823 -0.1779  0.3003
17036TIP3    H172523   5.006   4.503  16.267 -0.9394 -1.1619 -0.6488
17036TIP3    H272524   4.953   4.408  16.372 -1.2701 -0.3557 -0.0809
17037TIP3   OH272525   1.106   3.952  13.334  0.2695  0.2671 -0.5158
17037TIP3    H172526   1.141   3.923  13.250 -0.3324 -1.3564 -0.2404
17037TIP3    H272527   1.138   3.887  13.397 -0.2985  0.7703  0.3149
17038TIP3   OH272528   1.095   1.021   0.045  0.2130 -0.2560 -0.3185
17038TIP3    H172529   1.151   1.063   0.110  1.0984 -0.6904 -0.7885
17038TIP3    H272530   1.115   1.065  -0.037 -1.5267  0.8856 -0.1856
17039TIP3   OH272531   5.503   2.928   2.228 -0.4218 -0.5938 -1.0232
17039TIP3    H172532   5.425   2.955   2.180 -0.7728  0.0594 -0.1116
17039TIP3    H272533   5.568   2.909   2.160 -0.1127  2.5986 -1.7477
17040TIP3   OH272534   5.643   2.656   3.880 -0.8759  0.3501 -0.0984
17040TIP3    H172535   5.709   2.601   3.838  1.2805  2.9679 -0.4143
17040TIP3    H272536   5.658   2.645   3.974  1.0687  1.9538 -0.1562
17041TIP3   OH272537   2.807   2.764   5.538 -0.1058  0.8308 -0.1218
17041TIP3    H172538   2.890   2.717   5.533  0.1172  1.2464 -0.3484
17041TIP3    H272539   2.772   2.743   5.624  0.2140  0.6189 -0.0461
17042TIP3   OH272540   6.500   2.217   3.619  0.8141  0.2768  0.1108
17042TIP3    H172541   6.582   2.241   3.577  0.7140 -0.2821 -0.4109
17042TIP3    H272542   6.438   2.283   3.589  0.5046 -0.6845 -1.4420
17043TIP3   OH272543   0.821   1.307   5.118  0.1319 -0.1935  0.3203
17043TIP3    H172544   0.882   1.271   5.182  1.8320  0.7566 -0.7129
17043TIP3    H272545   0.851   1.272   5.034 -1.3261 -0.4432 -0.1335
17044TIP3   OH272546   2.827   2.174  13.231  0.0385 -0.3164 -0.4580
17044TIP3    H172547   2.850   2.194  13.322 -0.6841  0.9841 -0.5371
17044TIP3    H272548   2.891   2.108  13.204 -0.4622 -1.6214  1.3552
17045TIP3   OH272549   3.869   3.172   0.377 -0.2155 -0.2870  1.3255
17045TIP3    H172550   3.839   3.097   0.429 -2.2602 -1.2143 -0.9618
17045TIP3    H272551   3.896   3.134   0.293 -0.2380  1.4363  0.4863
17046TIP3   OH272552   2.525   1.629   3.942  0.0834  0.3722 -0.6355
17046TIP3    H172553   2.483   1.577   3.874 -2.6233 -1.4357  2.1235
17046TIP3    H272554   2.561   1.564   4.003  0.0055  1.7941  1.0087
17047TIP3   OH272555   3.283   1.773   3.964 -0.0802 -0.1831 -0.0100
17047TIP3    H172556   3.260   1.690   4.007  0.4311 -0.0229  0.5811
17047TIP3    H272557   3.227   1.776   3.887 -0.8480 -0.5866  0.5197
17048TIP3   OH272558   3.805   0.545  13.926  0.0500 -0.4162 -0.0949
17048TIP3    H172559   3.834   0.585  13.844 -1.2544  0.7686 -0.0225
17048TIP3    H272560   3.843   0.457  13.925  5.3721  1.5111  0.9669
17049TIP3   OH272561   1.750   2.606  11.037  0.2330  0.2082  0.1529
17049TIP3    H172562   1.730   2.666  11.109 -0.8717 -1.8961  1.7300
17049TIP3    H272563   1.674   2.611  10.980 -0.2447 -0.2604  0.7289
17050TIP3   OH272564   3.792   3.689   3.211 -0.2313 -0.3657  0.0492
17050TIP3    H172565   3.822   3.612   3.161 -1.3348 -0.6826 -0.1436
17050TIP3    H272566   3.742   3.653   3.284 -0.4590  0.1619  0.1608
17051TIP3   OH272567   1.950   1.153  17.141  0.1006  0.2052  0.6665
17051TIP3    H172568   2.029   1.130  17.189  1.3271  1.6674 -0.5507
17051TIP3    H272569   1.916   1.231  17.185 -0.0911  0.1763  0.5734
17052TIP3   OH272570   2.009   1.167  14.715 -0.0548  0.3850 -0.1586
17052TIP3    H172571   1.974   1.079  14.705  0.6047  0.1570 -0.4763
17052TIP3    H272572   1.936   1.224  14.690 -0.5921 -0.0541  0.3735
17053TIP3   OH272573   5.499   0.062  15.052  0.9644 -0.2736 -0.1498
17053TIP3    H172574   5.428   0.119  15.021  1.7947  0.5270 -0.6214
17053TIP3    H272575   5.472   0.036  15.140  1.1972  1.9965  0.6568
17054TIP3   OH272576   3.019   1.966  16.362 -0.1131  0.5269  0.3254
17054TIP3    H172577   3.001   2.056  16.335 -0.7908  0.6188  1.0417
17054TIP3    H272578   2.949   1.915  16.323  0.5805  0.2148 -0.5416
17055TIP3   OH272579   0.567   3.228  17.001 -0.2378  0.1015  0.4586
17055TIP3    H172580   0.662   3.213  17.001 -0.3380 -1.0566  3.2070
17055TIP3    H272581   0.556   3.313  17.041 -0.3843  0.2854  0.0374
17056TIP3   OH272582   5.605   3.063  15.497 -0.6678 -0.2847  0.0588
17056TIP3    H172583   5.524   3.019  15.474 -2.1706  2.0782  0.4780
17056TIP3    H272584   5.627   3.032  15.584  0.0367 -2.4132 -0.8079
17057TIP3   OH272585   6.208   0.623  16.120 -0.0700  0.1051 -0.3012
17057TIP3    H172586   6.130   0.573  16.096 -0.3697  0.6440 -0.4756
17057TIP3    H272587   6.258   0.564  16.176 -1.5092  0.3907  1.3692
17058TIP3   OH272588   2.459   2.562  16.677 -0.1542 -0.0432  0.3946
17058TIP3    H172589   2.485   2.520  16.595 -0.6653  0.2234  0.0828
17058TIP3    H272590   2.412   2.641  16.649 -0.8257 -0.2409  0.9294
17059TIP3   OH272591   3.344   0.927   2.641  0.3350  0.2475 -0.6669
17059TIP3    H172592   3.434   0.957   2.626  0.2803  0.2196 -1.0623
17059TIP3    H272593   3.303   0.997   2.691  1.2149 -0.6880  1.5072
17060TIP3   OH272594   1.880   3.168  15.489  0.3012  0.5167  0.2164
17060TIP3    H172595   1.867   3.084  15.446  0.5275  0.1759  0.7979
17060TIP3    H272596   1.811   3.172  15.555  0.5722  0.5802  0.4981
17061TIP3   OH272597   5.923   4.322  16.039  0.4391  0.4542 -0.0317
17061TIP3    H172598   5.857   4.294  15.976 -1.7812 -1.1994  2.8209
17061TIP3    H272599   5.923   4.418  16.032  1.1519  0.3277 -3.2338
17062TIP3   OH272600   1.699   3.916   5.506  0.4637 -0.6182 -0.8331
17062TIP3    H172601   1.676   3.996   5.458 -2.1424  0.8237  2.4123
17062TIP3    H272602   1.772   3.942   5.562 -0.5643 -0.3606  0.4240
17063TIP3   OH272603   3.645   6.121  12.360 -0.2953 -0.4970  0.6395
17063TIP3    H172604   3.562   6.120  12.408 -1.3549  3.2868 -0.7836
17063TIP3    H272605   3.640   6.044  12.303 -1.4291 -1.9842  2.5954
17064TIP3   OH272606   5.753   2.694  16.012 -0.2581  0.3005  0.1181
17064TIP3    H172607   5.710   2.778  16.028 -0.3098  0.4280 -0.6231
17064TIP3    H272608   5.745   2.646  16.094 -0.4150  0.9403  0.4808
17065TIP3   OH272609   0.053   0.646   0.032 -0.4549  0.4464 -0.5962
17065TIP3    H172610   0.041   0.651   0.127  1.5980  1.1240 -0.3136
17065TIP3    H272611   0.056   0.737   0.003 -0.8923  0.2442 -1.2961
17066TIP3   OH272612   6.062   6.200  16.665 -0.0510 -0.5853 -0.4563
17066TIP3    H172613   6.153   6.179  16.682 -0.4755 -2.7181 -0.5338
17066TIP3    H272614   6.026   6.223  16.751  0.7570  1.3061 -0.5806
17067TIP3   OH272615   6.637   2.994  14.844 -0.0128  0.1309  0.2129
17067TIP3    H172616   6.615   3.084  14.869 -0.7125 -0.5862  2.4311
17067TIP3    H272617   6.572   2.940  14.890 -1.2124 -1.4530 -3.0342
17068TIP3   OH272618   5.152   6.386   3.317  0.3519 -0.3653 -0.0748
17068TIP3    H172619   5.096   6.330   3.371 -0.3434  0.0105 -0.3852
17068TIP3    H272620   5.169   6.463   3.371  1.9713 -1.1972  0.6605
17069TIP3   OH272621   1.968   5.222  11.375 -0.6569  0.1135 -0.0506
17069TIP3    H172622   2.055   5.190  11.353 -0.2894  1.6640 -1.0277
17069TIP3    H272623   1.932   5.253  11.291 -0.8744  2.3917  0.8061
17070TIP3   OH272624   6.707   6.367   4.518 -0.2759 -0.1070 -0.7801
17070TIP3    H172625   6.648   6.310   4.567 -0.5202 -0.1220 -1.0881
17070TIP3    H272626   6.795   6.338   4.543 -0.3846  0.2926  0.1202
17071TIP3   OH272627   4.415   1.066   4.954  0.0040  0.0605 -0.7824
17071TIP3    H172628   4.488   1.047   5.014  0.8198 -1.8743 -2.2800
17071TIP3    H272629   4.445   1.143   4.905  0.1564  0.4854 -0.0444
17072TIP3   OH272630   6.332   1.500  15.373 -0.5890 -1.1017  0.2778
17072TIP3    H172631   6.402   1.460  15.424  0.8186  1.0151  0.1437
17072TIP3    H272632   6.374   1.527  15.291 -1.3644  0.7936  0.4545
17073TIP3   OH272633   6.333   5.912   1.727  0.1182 -0.0296 -0.1730
17073TIP3    H172634   6.305   5.861   1.803  0.4945 -0.2986 -0.2077
17073TIP3    H272635   6.253   5.950   1.691  0.0050  0.5688  0.6957
17074TIP3   OH272636   1.218   1.801  16.247 -0.0821  0.3652  0.0009
17074TIP3    H172637   1.152   1.801  16.177 -0.6325  1.4364  0.5056
17074TIP3    H272638   1.287   1.743  16.214 -0.9720 -0.2653 -0.8175
17075TIP3   OH272639   1.929   1.245   3.450 -0.0127  0.3994  0.0216
17075TIP3    H172640   1.931   1.267   3.543 -0.6484 -0.7916  0.3409
17075TIP3    H272641   1.870   1.308   3.410 -0.4956  0.3206  0.6067
17076TIP3   OH272642   4.068   0.638   1.178 -0.3548  0.0772  0.1891
17076TIP3    H172643   4.092   0.729   1.157  0.2669  0.1965  1.3351
17076TIP3    H272644   4.082   0.631   1.272  2.7240 -2.0960 -0.2831
17077TIP3   OH272645   0.914   5.280  17.077 -0.4995  0.0652  0.3837
17077TIP3    H172646   0.841   5.313  17.023 -0.3945  0.4698  0.4866
17077TIP3    H272647   0.992   5.317  17.036 -0.3304 -0.5483  0.1442
17078TIP3   OH272648   1.124   4.264  14.995  0.0481  0.4406 -0.0399
17078TIP3    H172649   1.170   4.215  15.064 -0.1779 -0.3778 -0.4649
17078TIP3    H272650   1.035   4.229  14.996 -0.1772  0.9935 -0.2181
17079TIP3   OH272651   3.613   6.469   0.861  0.6976 -0.2449 -0.8019
17079TIP3    H172652   3.688   6.413   0.880  1.1895  0.8242  0.6425
17079TIP3    H272653   3.649   6.540   0.808  0.9362  0.7133  0.5816
17080TIP3   OH272654   1.794   6.001   5.262  0.1495 -0.0230 -0.2594
17080TIP3    H172655   1.880   6.002   5.219  1.6155  0.9209  2.4688
17080TIP3    H272656   1.813   5.973   5.351 -2.5836 -0.7773  0.1588
17081TIP3   OH272657   0.021   2.188   4.234 -0.2801  0.3064  0.1020
17081TIP3    H172658   0.014   2.158   4.325 -0.9597  2.7850  0.9625
17081TIP3    H272659  -0.062   2.162   4.194  0.0976 -0.9628  0.1123
17082TIP3   OH272660   5.550   3.326  12.365 -0.2993 -0.1181  0.2766
17082TIP3    H172661   5.614   3.297  12.430  1.8480  1.9334 -0.7599
17082TIP3    H272662   5.601   3.333  12.284 -1.5763  2.4150 -0.4029
17083TIP3   OH272663   5.323   5.486   5.234  0.2049 -0.3537 -0.8504
17083TIP3    H172664   5.373   5.475   5.314  0.4703  0.2240 -0.9382
17083TIP3    H272665   5.235   5.453   5.255 -0.2381  1.3977  0.2087
17084TIP3   OH272666   0.853   1.801   5.641 -0.0681  0.4846  0.6004
17084TIP3    H172667   0.887   1.870   5.697  1.3485  0.0439  0.3291
17084TIP3    H272668   0.853   1.722   5.695  0.9313  0.1424  0.1427
17085TIP3   OH272669   0.213   1.984   1.086 -0.4361  0.7907  0.2121
17085TIP3    H172670   0.282   2.041   1.052 -0.6464  1.3440  0.6835
17085TIP3    H272671   0.225   1.986   1.181 -0.4120 -0.0062  0.2276
17086TIP3   OH272672   1.068   5.131  11.928  0.8213  0.7327 -0.3548
17086TIP3    H172673   1.134   5.064  11.909 -0.4885 -0.2470 -1.6689
17086TIP3    H272674   1.015   5.093  11.998  0.5957  0.7497 -0.5137
17087TIP3   OH272675   1.134   0.432   0.095  0.4725 -0.0031 -0.2155
17087TIP3    H172676   1.154   0.464   0.007  0.4623 -0.4023 -0.3647
17087TIP3    H272677   1.056   0.481   0.122  0.4103  0.0378 -0.4738
17088TIP3   OH272678   1.811   4.507   3.011  0.8039 -0.2284 -0.3455
17088TIP3    H172679   1.869   4.464   2.948  1.7521  0.3009  0.1361
17088TIP3    H272680   1.871   4.546   3.075 -0.0790  0.5888  0.0007
17089TIP3   OH272681   0.891   4.331  13.577 -0.6156 -0.4871  0.3004
17089TIP3    H172682   0.819   4.393  13.570  1.4229  2.1558  1.1640
17089TIP3    H272683   0.936   4.355  13.658  1.9889 -1.1453 -0.8422
17090TIP3   OH272684   3.543   4.281  13.469  0.6533 -0.3526 -0.5508
17090TIP3    H172685   3.484   4.317  13.403 -0.1467 -1.8414 -0.6933
17090TIP3    H272686   3.630   4.308  13.440  0.2343 -0.0520 -1.5964
17091TIP3   OH272687   4.521   4.822   1.710  0.6036 -0.0829 -0.3414
17091TIP3    H172688   4.432   4.838   1.677  0.6818  0.5541 -0.2578
17091TIP3    H272689   4.518   4.734   1.746  0.2284 -0.3855 -1.1035
17092TIP3   OH272690   2.437   4.501  11.336 -0.1247  0.4056  0.2846
17092TIP3    H172691   2.413   4.531  11.424 -2.6997 -0.8266  0.0855
17092TIP3    H272692   2.430   4.578  11.281 -3.0528  0.3447  0.4212
17093TIP3   OH272693   4.454   2.039  16.497 -0.6929 -0.0487 -0.1708
17093TIP3    H172694   4.445   1.999  16.583  1.4317  0.2124  0.2256
17093TIP3    H272695   4.447   2.133  16.514 -0.0644  0.0135 -0.2486
17094TIP3   OH272696   4.239   4.175   1.207  0.0885 -0.4523  0.8966
17094TIP3    H172697   4.185   4.251   1.185  1.3810 -0.0967 -1.2661
17094TIP3    H272698   4.184   4.099   1.185  0.0843 -0.0980 -0.3864
17095TIP3   OH272699   5.866   5.622   1.836 -0.3116 -0.4686  0.0654
17095TIP3    H172700   5.873   5.656   1.925 -2.2264 -3.9091  1.7585
17095TIP3    H272701   5.800   5.677   1.793  1.8687  2.3296  0.0029
17096TIP3   OH272702   4.108   3.023   1.293 -0.2124  0.2747 -0.1583
17096TIP3    H172703   4.134   2.977   1.213  0.0814  2.4121 -1.3574
17096TIP3    H272704   4.037   3.081   1.265 -1.3621 -0.2254  1.5559
17097TIP3   OH272705   1.685   5.072  10.906  0.5225 -0.2845 -0.6343
17097TIP3    H172706   1.724   4.984  10.904  0.1547 -0.5069  0.9841
17097TIP3    H272707   1.755   5.129  10.874  1.4511 -0.9411  0.1545
17098TIP3   OH272708   5.858   0.236   4.355 -0.5456 -0.1103 -0.0285
17098TIP3    H172709   5.804   0.230   4.276  0.0093  1.6714 -0.6103
17098TIP3    H272710   5.948   0.227   4.323 -0.4007 -4.0537  1.0471
17099TIP3   OH272711   1.547   1.827  11.091 -0.3449  0.0271 -0.3164
17099TIP3    H172712   1.620   1.857  11.145  1.8438 -2.4871 -1.6444
17099TIP3    H272713   1.558   1.874  11.008 -0.9434  0.4772 -0.1459
17100TIP3   OH272714   0.017   1.251   5.770 -0.3377  0.1768  0.1464
17100TIP3    H172715   0.108   1.251   5.798 -0.2422 -1.4842 -0.1069
17100TIP3    H272716   0.020   1.271   5.676  0.0058 -2.2259 -0.4174
17101TIP3   OH272717   5.717   0.497   5.050 -0.3755  0.1839 -0.0983
17101TIP3    H172718   5.801   0.517   5.009 -0.4867  0.8064 -0.0340
17101TIP3    H272719   5.729   0.411   5.090  0.8211  1.0213  1.4633
17102TIP3   OH272720   3.379   6.593   4.829 -0.2595 -0.2742 -0.2294
17102TIP3    H172721   3.409   6.523   4.887 -2.1142 -1.2743 -0.4029
17102TIP3    H272722   3.452   6.654   4.825  0.0791 -0.3316  2.8762
17103TIP3   OH272723   2.557   2.308  12.252  0.4071 -0.1384  0.0194
17103TIP3    H172724   2.573   2.247  12.180  2.7126 -1.8918  1.8530
17103TIP3    H272725   2.600   2.389  12.225 -0.4193 -0.1210 -1.3429
17104TIP3   OH272726   2.281   5.119   2.162  0.1588 -1.1639 -0.4946
17104TIP3    H172727   2.330   5.183   2.214  0.3840 -1.8006  0.0972
17104TIP3    H272728   2.270   5.161   2.077  0.1356 -0.2644 -0.0619
17105TIP3   OH272729   0.216   1.436  11.748 -0.3936 -0.1821 -0.2175
17105TIP3    H172730   0.135   1.385  11.740 -0.6659  0.3791 -1.2271
17105TIP3    H272731   0.193   1.523  11.715  0.8341 -0.2479 -1.3111
17106TIP3   OH272732   0.552   6.071  14.290 -0.0763  0.6435  0.2325
17106TIP3    H172733   0.638   6.053  14.253  0.1762  0.8146  0.7260
17106TIP3    H272734   0.568   6.083  14.384 -0.6443  0.6219  0.3365
17107TIP3   OH272735   2.508   4.480   3.493 -0.3491  0.2117  0.2233
17107TIP3    H172736   2.532   4.439   3.409  1.6928 -1.1921  1.4013
17107TIP3    H272737   2.528   4.413   3.558 -0.7699  1.6994  1.9455
17108TIP3   OH272738   0.188   5.647  14.744  0.0581 -0.2806 -0.2811
17108TIP3    H172739   0.182   5.742  14.741  0.5607 -0.2735 -1.7286
17108TIP3    H272740   0.097   5.617  14.748 -0.1203  0.2471 -0.3880
17109TIP3   OH272741   6.020   3.527   3.740 -0.0571 -0.0494  1.1695
17109TIP3    H172742   6.064   3.491   3.817  1.1186  0.1113  0.6008
17109TIP3    H272743   5.980   3.452   3.697  1.6147 -0.5945  0.4779
17110TIP3   OH272744   2.001   6.643   0.204  0.5705 -0.4346 -0.5709
17110TIP3    H172745   1.906   6.646   0.189  0.6359  1.6536 -0.9709
17110TIP3    H272746   2.010   6.611   0.294 -0.4384 -1.6572 -0.8727
17111TIP3   OH272747   3.982   5.084   5.823 -0.4857 -0.2455 -0.4556
17111TIP3    H172748   3.985   5.116   5.913 -0.1218 -1.5055 -0.0061
17111TIP3    H272749   4.074   5.075   5.798 -0.5520 -1.7918 -0.2409
17112TIP3   OH272750   2.963   2.284   0.745 -0.2256 -0.3649 -0.4332
17112TIP3    H172751   2.900   2.355   0.734  1.4917  1.0407 -1.8534
17112TIP3    H272752   2.943   2.222   0.675  0.3083  0.3890 -1.2777
17113TIP3   OH272753   5.112   0.231   0.350  0.0621  0.0030 -0.0400
17113TIP3    H172754   5.126   0.136   0.343  2.1208  0.2141  0.5757
17113TIP3    H272755   5.170   0.268   0.283 -0.5777  0.8520 -0.1345
17114TIP3   OH272756   2.283   4.376   0.246 -0.0473 -0.2699  0.3029
17114TIP3    H172757   2.240   4.316   0.185  0.4973 -0.0597 -0.2970
17114TIP3    H272758   2.305   4.321   0.321  1.6934 -1.1735 -0.8122
17115TIP3   OH272759   6.135   4.409  12.038 -0.2520 -0.3329 -0.4615
17115TIP3    H172760   6.046   4.436  12.064 -0.2366 -0.8032  0.0808
17115TIP3    H272761   6.188   4.488  12.053 -0.5717 -0.0557 -0.7629
17116TIP3   OH272762   0.593   2.622  12.534  0.4166 -0.2387  1.0095
17116TIP3    H172763   0.642   2.704  12.521 -0.7313  0.7608  2.6314
17116TIP3    H272764   0.509   2.637  12.490  0.1159 -0.4504  1.5092
17117TIP3   OH272765   4.168   0.221   1.692  0.5729  0.2193 -0.9645
17117TIP3    H172766   4.129   0.165   1.625  0.8835 -2.9665  1.2742
17117TIP3    H272767   4.255   0.183   1.707  0.6121  0.9563  1.0411
17118TIP3   OH272768   5.757   4.984  10.920 -0.0693  0.1403 -0.0438
17118TIP3    H172769   5.739   4.956  10.830 -1.8624  1.2432 -0.0786
17118TIP3    H272770   5.796   4.907  10.961  0.6596 -0.4263 -1.7168
17119TIP3   OH272771   3.884   5.690  10.645  0.7905 -0.2308 -0.5265
17119TIP3    H172772   3.935   5.625  10.692  0.9292  0.1359 -0.1594
17119TIP3    H272773   3.929   5.702  10.561  1.1150 -0.1550 -0.3401
17120TIP3   OH272774   3.256   2.075  15.203 -0.2116 -0.0864  0.0145
17120TIP3    H172775   3.207   2.155  15.222  1.3108  0.8862 -0.0071
17120TIP3    H272776   3.258   2.071  15.108  0.2238  0.2000  0.0059
17121TIP3   OH272777   2.966   4.007  12.681 -0.1239 -0.3839 -0.1157
17121TIP3    H172778   2.970   3.963  12.766  1.6887  0.0483  0.0595
17121TIP3    H272779   2.977   3.936  12.617  2.2812 -0.3268  0.1500
17122TIP3   OH272780   4.564   0.003  13.361  0.4381  0.6665  0.0989
17122TIP3    H172781   4.514  -0.010  13.441  1.1969  1.4485  0.7216
17122TIP3    H272782   4.652  -0.027  13.382  0.2384 -0.8910 -1.0484
17123TIP3   OH272783   3.465   1.981   5.268 -0.0609  0.0191 -0.2659
17123TIP3    H172784   3.509   2.029   5.198  0.6565 -0.6132 -0.2704
17123TIP3    H272785   3.373   1.978   5.242  0.3571 -1.1642 -1.7659
17124TIP3   OH272786   2.211   2.024   1.993  0.1169 -0.6640 -0.0426
17124TIP3    H172787   2.119   2.050   1.993  0.2251 -0.2347 -1.0930
17124TIP3    H272788   2.246   2.063   2.073 -0.5662 -0.6709  0.2715
17125TIP3   OH272789   0.436   1.490  11.229  0.1681 -0.7193  0.1444
17125TIP3    H172790   0.470   1.468  11.316 -2.2055  1.2319  1.7022
17125TIP3    H272791   0.341   1.479  11.237 -0.1260 -0.4667 -2.2428
17126TIP3   OH272792   0.861   3.537   1.046  0.1436 -1.1240  0.1729
17126TIP3    H172793   0.939   3.562   0.997  0.7204 -1.9264  0.6597
17126TIP3    H272794   0.804   3.495   0.981 -0.8724  1.3677 -0.6780
17127TIP3   OH272795   4.281   1.718   2.967 -0.0376  0.2568 -0.0650
17127TIP3    H172796   4.312   1.647   2.911 -1.1932 -0.1990 -0.1515
17127TIP3    H272797   4.288   1.797   2.913  0.2867  0.0600 -0.3166
17128TIP3   OH272798   2.051   0.365   2.822 -0.5137 -0.0616  0.2312
17128TIP3    H172799   2.087   0.287   2.865 -1.1418  0.8638  2.5951
17128TIP3    H272800   2.075   0.355   2.730  1.0751 -2.0906  0.7908
17129TIP3   OH272801   5.025   4.011  16.541 -0.1754  0.3500  0.1355
17129TIP3    H172802   5.058   4.042  16.625  0.5226 -0.8731  0.3435
17129TIP3    H272803   4.969   4.081  16.510 -0.1503  0.9894  1.4484
17130TIP3   OH272804   1.917   1.568   5.186 -0.2000 -0.0557  0.1543
17130TIP3    H172805   1.879   1.580   5.099  1.3923  1.8682 -0.3479
17130TIP3    H272806   1.954   1.480   5.185 -1.5877 -0.6540 -0.5281
17131TIP3   OH272807   5.742   3.630   1.655  0.4018 -0.3945 -0.5177
17131TIP3    H172808   5.792   3.555   1.621  0.8796  0.5384 -2.0015
17131TIP3    H272809   5.807   3.683   1.701  0.2594 -0.4391 -0.2668
17132TIP3   OH272810   4.012   3.364   4.978 -0.3595 -0.6586  0.4040
17132TIP3    H172811   4.002   3.348   5.072  0.3707 -0.0711  0.5936
17132TIP3    H272812   4.104   3.347   4.961 -0.8114 -2.3334 -0.5377
17133TIP3   OH272813   3.411   1.255   0.384 -0.0950  0.0248  0.3687
17133TIP3    H172814   3.494   1.298   0.365  0.3791 -1.4818 -1.2085
17133TIP3    H272815   3.361   1.261   0.302 -0.9319 -0.4030  0.8274
17134TIP3   OH272816   3.208   6.528  12.804 -0.1579  0.6362 -0.2014
17134TIP3    H172817   3.255   6.445  12.813  0.2259  0.7083 -1.3813
17134TIP3    H272818   3.260   6.578  12.741 -1.7025  0.7794 -1.4224
17135TIP3   OH272819   3.354   0.406  12.706 -0.2912  0.1963 -0.0798
17135TIP3    H172820   3.436   0.358  12.705  0.7158  1.8324 -1.0060
17135TIP3    H272821   3.375   0.488  12.750 -0.9098  1.4354 -1.9675
17136TIP3   OH272822   3.884   6.399   1.532  0.2924 -0.0943  0.4375
17136TIP3    H172823   3.796   6.362   1.526  0.8002 -1.1048 -1.6078
17136TIP3    H272824   3.927   6.345   1.599 -0.7815  0.8218  1.9310
17137TIP3   OH272825   0.260   4.673   6.067 -0.1137 -0.1336  0.3016
17137TIP3    H172826   0.219   4.759   6.063 -1.0432 -0.5556  0.5333
17137TIP3    H272827   0.192   4.612   6.038  1.1929 -0.6032 -1.9661
17138TIP3   OH272828   5.561   6.123  17.068 -0.1962 -0.0118 -0.0772
17138TIP3    H172829   5.573   6.198  17.126 -1.4239  0.7823 -0.8192
17138TIP3    H272830   5.468   6.103  17.072  0.2626 -2.2284  0.9465
17139TIP3   OH272831   3.404   5.891   3.109  0.6118 -0.0081 -1.1166
17139TIP3    H172832   3.439   5.862   3.194  0.7878  1.0184 -0.8179
17139TIP3    H272833   3.471   5.949   3.074 -0.7329  2.0127 -0.5263
17140TIP3   OH272834   5.451   5.078   2.879  0.1785 -0.7537 -0.1815
17140TIP3    H172835   5.475   5.002   2.933  3.6859 -0.0981 -0.5635
17140TIP3    H272836   5.464   5.153   2.936 -1.0264 -0.2884 -0.4939
17141TIP3   OH272837   3.217   2.535  16.770  1.0496  0.3314  0.5185
17141TIP3    H172838   3.226   2.615  16.719  1.3636  0.0012  0.0518
17141TIP3    H272839   3.301   2.490  16.760  0.4317 -0.6779 -0.2857
17142TIP3   OH272840   5.682   0.712   5.268  0.1435  0.0388  0.2768
17142TIP3    H172841   5.686   0.648   5.339 -2.5044  0.2326  0.7023
17142TIP3    H272842   5.657   0.660   5.191 -0.2157  0.3137  0.2107
17143TIP3   OH272843   0.774   0.743  11.988 -0.3307 -0.5733 -0.1048
17143TIP3    H172844   0.810   0.831  11.982  0.0250 -0.7236 -0.2298
17143TIP3    H272845   0.686   0.750  11.951 -0.4358 -0.1987  0.2169
17144TIP3   OH272846   1.919   0.823   6.242  0.4973  0.2780 -0.1769
17144TIP3    H172847   1.991   0.872   6.202  0.0533  1.8266  0.8656
17144TIP3    H272848   1.908   0.861   6.329  0.1013 -1.6712  0.6871
17145TIP3   OH272849   1.633   1.346   5.482  0.1809 -0.2533  0.7286
17145TIP3    H172850   1.656   1.417   5.423 -0.4874  0.3817  1.2191
17145TIP3    H272851   1.554   1.307   5.444  1.1328 -1.4400 -0.1170
17146TIP3   OH272852   4.745   1.170   0.039  0.3840 -0.2430 -0.3255
17146TIP3    H172853   4.695   1.236  -0.008 -0.0251 -1.1284 -1.1580
17146TIP3    H272854   4.680   1.109   0.072  0.6540  0.3682  1.4651
17147TIP3   OH272855   1.058   0.081   3.962  0.2784 -0.5814 -0.4887
17147TIP3    H172856   0.998   0.009   3.944 -0.3649 -0.1798 -0.0020
17147TIP3    H272857   1.003   0.148   4.003  1.2151 -0.5685  0.8232
17148TIP3   OH272858   0.163   3.703  16.959 -0.5254  0.4820 -0.2293
17148TIP3    H172859   0.110   3.708  16.880 -0.3568  0.1620 -0.3669
17148TIP3    H272860   0.100   3.687  17.029 -0.5270 -1.0602 -0.5431
17149TIP3   OH272861   0.602   5.097   2.373 -1.0169 -0.0863  0.8356
17149TIP3    H172862   0.638   5.053   2.295 -0.7891  2.6501 -0.7132
17149TIP3    H272863   0.678   5.117   2.426 -0.7620  1.1004  0.0546
17150TIP3   OH272864   0.039   2.318   4.856 -0.0117  0.2129  0.1792
17150TIP3    H172865  -0.037   2.265   4.878 -0.8653  1.6184  0.7698
17150TIP3    H272866   0.046   2.314   4.761  0.0353 -1.0508  0.2273
17151TIP3   OH272867   3.349   3.958   5.883  0.5413 -0.3724  0.4063
17151TIP3    H172868   3.415   4.024   5.904  2.6568 -1.8946 -1.0249
17151TIP3    H272869   3.399   3.882   5.854 -1.8195 -2.3116  1.0623
17152TIP3   OH272870   4.105   5.762  15.518 -0.0422  0.3687 -0.1350
17152TIP3    H172871   4.123   5.749  15.611 -0.7625 -3.3802 -0.3764
17152TIP3    H272872   4.010   5.752  15.510 -0.2184  2.2908 -1.1497
17153TIP3   OH272873   5.458   2.066  13.037  0.7304 -0.3492 -0.0399
17153TIP3    H172874   5.510   2.137  13.073  0.2642  0.1581 -0.3365
17153TIP3    H272875   5.472   2.071  12.942  0.8254 -0.7578 -0.0488
17154TIP3   OH272876   5.747   3.228   6.051  0.4875 -0.1846  0.0574
17154TIP3    H172877   5.782   3.178   6.125 -1.3728  0.3895  1.4176
17154TIP3    H272878   5.704   3.163   5.996 -0.2167 -0.3585  0.7861
17155TIP3   OH272879   3.880   2.856  11.745  0.2145 -0.0735 -0.2448
17155TIP3    H172880   3.910   2.846  11.654 -1.0591 -0.2192 -0.6612
17155TIP3    H272881   3.919   2.781  11.791 -0.2887 -0.8079 -0.9893
17156TIP3   OH272882   4.470   4.158  16.754 -0.3635  0.1020 -0.0333
17156TIP3    H172883   4.446   4.217  16.826 -0.0007 -2.1033  2.0268
17156TIP3    H272884   4.565   4.148  16.763 -0.6442 -2.1964  0.8845
17157TIP3   OH272885   3.230   4.616  10.690  0.4922  0.4366 -0.3909
17157TIP3    H172886   3.189   4.584  10.610 -0.7774 -1.6331  1.0020
17157TIP3    H272887   3.164   4.602  10.758  1.9002  1.1777  1.2020
17158TIP3   OH272888   0.897   1.593  15.398 -0.0119  0.5252  0.2474
17158TIP3    H172889   0.832   1.528  15.422 -1.7253  1.6882 -0.9855
17158TIP3    H272890   0.890   1.600  15.302  1.7797  0.8774  0.0910
17159TIP3   OH272891   5.647   6.553  11.600 -0.0640 -0.2910  0.5415
17159TIP3    H172892   5.714   6.551  11.531 -0.7636 -0.0462 -0.1561
17159TIP3    H272893   5.636   6.461  11.625 -1.6755 -0.7475 -1.5441
17160TIP3   OH272894   0.217   4.945  12.994  0.7329  0.1515 -0.1062
17160TIP3    H172895   0.302   4.977  13.026  0.6817  0.0775  0.1022
17160TIP3    H272896   0.159   5.021  12.997  0.2028 -0.2929  1.8058
17161TIP3   OH272897   1.160   6.392   2.844 -0.0749 -0.2637 -0.0258
17161TIP3    H172898   1.206   6.415   2.925  1.9873 -3.7050 -0.0232
17161TIP3    H272899   1.199   6.447   2.777  1.6547 -0.6957  0.5897
17162TIP3   OH272900   4.541   2.875  14.082 -0.5468 -0.1631  0.2132
17162TIP3    H172901   4.542   2.808  14.014  0.6629 -1.8877  1.8155
17162TIP3    H272902   4.451   2.906  14.084 -1.5802 -2.8715  0.4235
17163TIP3   OH272903   1.909   1.534  13.005 -0.5952  0.6080  0.2735
17163TIP3    H172904   1.923   1.547  13.099  2.8282 -2.1253  0.3542
17163TIP3    H272905   1.852   1.457  13.000  0.5387 -0.2689  0.2365
17164TIP3   OH272906   3.056   0.762  10.483  0.0747 -0.1710 -0.2018
17164TIP3    H172907   2.993   0.773  10.412 -0.5836  1.2894  0.5670
17164TIP3    H272908   3.047   0.670  10.509 -2.2436  0.1226  0.3010
17165TIP3   OH272909   0.667   1.427   3.567 -0.2196 -0.2040  0.0843
17165TIP3    H172910   0.650   1.455   3.657  1.4353 -0.8663  0.6445
17165TIP3    H272911   0.581   1.406   3.531 -0.8730 -0.2640  1.6303
17166TIP3   OH272912   5.327   0.573   6.043  0.2506  0.2816  0.0286
17166TIP3    H172913   5.252   0.614   6.087 -0.0230  0.6264 -0.7307
17166TIP3    H272914   5.399   0.635   6.055  0.6757 -0.4609  1.5294
17167TIP3   OH272915   2.886   3.742  14.719  0.7995  0.3618 -0.1285
17167TIP3    H172916   2.816   3.677  14.719 -0.5050  1.7207  0.2273
17167TIP3    H272917   2.942   3.716  14.793 -0.4863  0.4052  0.9071
17168TIP3   OH272918   2.757   3.486  12.726 -0.1774  0.1796 -0.0154
17168TIP3    H172919   2.844   3.482  12.686 -0.6167  0.0003 -0.9874
17168TIP3    H272920   2.721   3.398  12.714 -0.1413 -0.0144  1.2157
17169TIP3   OH272921   3.804   4.291   4.700  0.1949  0.1383  0.5551
17169TIP3    H172922   3.730   4.276   4.759 -0.1197 -2.0148 -0.2819
17169TIP3    H272923   3.881   4.273   4.754  0.1265  1.6050  1.2067
17170TIP3   OH272924   5.638   3.061  15.799  0.1875 -0.4116  0.3462
17170TIP3    H172925   5.720   3.111  15.806  0.5319 -0.7532 -0.9347
17170TIP3    H272926   5.666   2.974  15.772 -0.6956 -0.0125 -2.0851
17171TIP3   OH272927   6.329   2.115   6.164  0.2865 -0.2984 -0.1271
17171TIP3    H172928   6.263   2.180   6.187  0.2607 -0.5235  0.4434
17171TIP3    H272929   6.407   2.142   6.212 -0.0333 -1.2956  0.9911
17172TIP3   OH272930   3.273   6.011  11.815 -0.0430  0.4520 -0.5840
17172TIP3    H172931   3.349   5.966  11.778  0.4180  1.3032 -0.6966
17172TIP3    H272932   3.282   5.998  11.909  0.0156  0.2080 -0.6216
17173TIP3   OH272933   6.373   6.032   3.166 -0.8723 -0.0431  0.0252
17173TIP3    H172934   6.306   5.971   3.133 -0.8676  0.0392 -0.1402
17173TIP3    H272935   6.382   6.096   3.095  0.0720 -0.5952 -0.3685
17174TIP3   OH272936   5.138   3.382   3.966 -0.5034  0.1054 -0.3083
17174TIP3    H172937   5.215   3.325   3.966 -0.2197  0.4746 -1.2738
17174TIP3    H272938   5.104   3.377   3.877  0.0204  2.0579 -0.6643
17175TIP3   OH272939   0.191   5.302  15.774 -0.9842 -0.2138 -0.7481
17175TIP3    H172940   0.213   5.392  15.800 -0.6491 -0.7378  0.8941
17175TIP3    H272941   0.109   5.283  15.819 -0.3392 -1.1896  0.0545
17176TIP3   OH272942   5.550   4.368  16.153  0.6708 -0.3786  0.5663
17176TIP3    H172943   5.530   4.284  16.111  1.4382 -0.2745 -0.0221
17176TIP3    H272944   5.584   4.422  16.082 -0.0818  0.5351  0.8849
17177TIP3   OH272945   4.770   4.133  16.474 -1.4049  0.4449  0.0198
17177TIP3    H172946   4.771   4.038  16.459 -4.0264 -0.0218  1.9277
17177TIP3    H272947   4.696   4.164  16.421 -0.6991  1.4079 -0.4189
17178TIP3   OH272948   3.962   1.285   0.392 -0.5923  0.1792 -0.0795
17178TIP3    H172949   3.946   1.236   0.312 -0.3700  0.2920 -0.1936
17178TIP3    H272950   3.970   1.218   0.460 -2.1240  0.1388  0.0941
17179TIP3   OH272951   6.453   1.221  15.323 -0.2756 -0.9179 -0.4733
17179TIP3    H172952   6.379   1.181  15.277 -2.2356  0.0666  1.5883
17179TIP3    H272953   6.484   1.152  15.382 -0.2530 -1.0039 -0.5858
17180TIP3   OH272954   4.788   3.184  14.614  0.4189  0.3010  0.0095
17180TIP3    H172955   4.723   3.247  14.582  1.6831  1.0642 -1.1524
17180TIP3    H272956   4.826   3.147  14.535 -0.6600 -2.3818  0.6467
17181TIP3   OH272957   2.132   1.126  14.046  0.1442 -0.1575  0.7554
17181TIP3    H172958   2.044   1.096  14.022  1.0145 -1.3142 -1.2243
17181TIP3    H272959   2.135   1.120  14.142 -1.8358 -0.3207  0.8397
17182TIP3   OH272960   0.142   3.481  15.323 -0.0013  0.4337  0.6791
17182TIP3    H172961   0.138   3.498  15.229 -1.1268  0.2962  0.6883
17182TIP3    H272962   0.150   3.386  15.330 -4.1474 -0.0685  0.7137
17183TIP3   OH272963   3.023   2.208  16.090 -0.0040 -0.3637 -0.6420
17183TIP3    H172964   2.943   2.241  16.131  0.2886 -1.4889  0.9057
17183TIP3    H272965   3.000   2.122  16.056 -0.0514  0.2713 -2.2809
17184TIP3   OH272966   3.637   0.113  11.312 -0.2769 -0.6762 -0.0680
17184TIP3    H172967   3.663   0.032  11.269 -1.9671 -1.3754  0.1430
17184TIP3    H272968   3.615   0.172  11.239 -2.5564 -1.6625 -0.2755
17185TIP3   OH272969   3.996   4.538  13.184  0.2340  0.3271 -0.6532
17185TIP3    H172970   4.034   4.571  13.265  2.3315  0.2389 -1.5332
17185TIP3    H272971   3.983   4.445  13.200 -0.7547  0.5720  0.0562
17186TIP3   OH272972   1.530   0.897  16.154  0.3119 -0.4545 -0.2704
17186TIP3    H172973   1.585   0.951  16.098  2.1322 -1.0242  0.8806
17186TIP3    H272974   1.440   0.916  16.125  0.7273  3.7319  0.5804
17187TIP3   OH272975   5.276   1.076   1.004  0.1350  0.0044  0.4210
17187TIP3    H172976   5.308   1.161   0.975 -0.2117 -0.6807 -2.2372
17187TIP3    H272977   5.355   1.029   1.033  0.5416  0.7184  0.4828
17188TIP3   OH272978   5.688   1.499   4.635 -0.2616  0.5404  0.4930
17188TIP3    H172979   5.749   1.480   4.563 -1.5937 -1.7009 -0.1596
17188TIP3    H272980   5.714   1.438   4.704 -1.1125  0.2661  0.5839
17189TIP3   OH272981   3.311   6.734  14.986 -0.3664 -0.3350 -0.1889
17189TIP3    H172982   3.385   6.761  15.040 -0.6805  0.4723 -0.1614
17189TIP3    H272983   3.342   6.743  14.896 -0.8307  1.2040 -0.2119
17190TIP3   OH272984   3.068   3.929   4.964 -0.3203  0.4534 -0.2310
17190TIP3    H172985   3.059   3.910   5.058 -0.8183 -0.6453 -0.4836
17190TIP3    H272986   3.104   4.017   4.961 -0.0874  0.4242  1.0026
17191TIP3   OH272987   2.683   5.368  16.702  0.0029  0.8325  0.6344
17191TIP3    H172988   2.715   5.450  16.740 -0.1636  1.3585 -0.3340
17191TIP3    H272989   2.604   5.348  16.753  1.5048 -0.2288  2.7190
17192TIP3   OH272990   3.710   4.653  13.007  0.1346 -0.2504 -0.1787
17192TIP3    H172991   3.753   4.722  12.956  0.0706  0.0743  0.2018
17192TIP3    H272992   3.616   4.672  13.000  0.1113 -0.3486 -0.1402
17193TIP3   OH272993   3.079   4.512   3.027 -0.2291  0.4374 -0.1359
17193TIP3    H172994   3.020   4.516   2.953  0.0271  0.8764 -0.3187
17193TIP3    H272995   3.139   4.586   3.015  1.0546 -0.6269 -0.5545
17194TIP3   OH272996   3.295   5.119   0.627  0.0373  0.2548  0.4558
17194TIP3    H172997   3.336   5.033   0.630 -2.1581 -0.9357 -0.9927
17194TIP3    H272998   3.271   5.137   0.718  0.3901 -0.7281  0.7566
17195TIP3   OH272999   4.456   3.494   1.148 -0.8395 -0.2080 -0.1038
17195TIP3    H173000   4.431   3.466   1.060  0.1161  0.3508 -0.5613
17195TIP3    H273001   4.535   3.546   1.136  1.0622 -2.5309  1.3576
17196TIP3   OH273002   3.164   0.597   1.230  0.0057  0.1598  0.7504
17196TIP3    H173003   3.120   0.538   1.292  0.7568  1.2239  2.3636
17196TIP3    H273004   3.242   0.627   1.277  0.7661  0.7942 -0.8421
17197TIP3   OH273005   5.748   1.315   4.856  0.3923 -0.5422  1.0670
17197TIP3    H173006   5.690   1.253   4.901  0.6834 -1.3639  0.3434
17197TIP3    H273007   5.828   1.265   4.840 -0.0983 -0.6873 -1.3613
17198TIP3   OH273008   0.787   4.313   1.816 -0.5245  0.7189 -0.7233
17198TIP3    H173009   0.751   4.225   1.806 -0.8896  0.8638 -0.6814
17198TIP3    H273010   0.728   4.356   1.877  0.8638  0.2978  1.0117
17199TIP3   OH273011   4.640   0.778  17.091  0.0990  0.3026  0.6516
17199TIP3    H173012   4.730   0.767  17.062 -0.0383 -1.8788  0.8948
17199TIP3    H273013   4.614   0.864  17.057  1.7672  0.3122 -0.7310
17200TIP3   OH273014   1.822   0.062   2.905  0.0438  0.3502 -0.1547
17200TIP3    H173015   1.738   0.067   2.950  0.1205  0.3376 -0.0105
17200TIP3    H273016   1.880   0.018   2.967  0.4658  1.3715  0.1924
17201TIP3   OH273017   4.342   2.352  15.469  0.2146 -0.5126  0.0355
17201TIP3    H173018   4.253   2.337  15.435  0.6212  0.6279 -1.6694
17201TIP3    H273019   4.339   2.441  15.504  1.2019  0.4085 -2.0505
17202TIP3   OH273020   2.831   5.723   3.903 -0.0112  0.0618  0.1315
17202TIP3    H173021   2.832   5.628   3.887  1.0079  0.2989 -1.4436
17202TIP3    H273022   2.886   5.734   3.980  1.9301 -0.4729 -1.0886
17203TIP3   OH273023   4.686   3.756  17.265  0.3560 -0.4663 -0.3477
17203TIP3    H173024   4.635   3.709  17.199 -3.0326  1.8910  0.3491
17203TIP3    H273025   4.708   3.839  17.224  2.4066 -0.8039 -0.0491
17204TIP3   OH273026   1.739   2.622  14.877  0.7144  0.0758 -0.3467
17204TIP3    H173027   1.716   2.690  14.814 -3.1387 -0.2550  0.4899
17204TIP3    H273028   1.759   2.545  14.823 -0.3242  0.3893 -1.2069
17205TIP3   OH273029   1.632   0.124  14.497 -0.4484  0.0740 -0.0014
17205TIP3    H173030   1.657   0.135  14.589  1.2454 -0.2253 -0.4082
17205TIP3    H273031   1.713   0.104  14.452 -1.5327 -1.6678 -1.2927
17206TIP3   OH273032   4.410   5.340   0.386 -0.3735 -0.0523  0.2827
17206TIP3    H173033   4.473   5.295   0.330 -1.8824  0.5334 -2.0405
17206TIP3    H273034   4.459   5.413   0.424  1.2602 -1.7266  1.5719
17207TIP3   OH273035   5.482   0.360  14.373 -0.4295  0.2842  0.1026
17207TIP3    H173036   5.570   0.337  14.401  0.2985  0.7303 -1.6548
17207TIP3    H273037   5.462   0.441  14.420  0.6482  0.8843 -0.4438
17208TIP3   OH273038   0.639   0.186  12.354  0.9615  0.7046 -0.3321
17208TIP3    H173039   0.582   0.258  12.381 -0.5020  0.7185 -3.0939
17208TIP3    H273040   0.672   0.150  12.436 -2.9868  0.7654  1.5492
17209TIP3   OH273041   4.271   2.244   5.100  0.0917  0.3004 -0.0270
17209TIP3    H173042   4.282   2.300   5.024 -0.4371  2.3035  1.2751
17209TIP3    H273043   4.293   2.156   5.070  2.9117  1.4621 -1.6946
17210TIP3   OH273044   4.078   2.138   2.761  0.0836 -0.7564  0.3260
17210TIP3    H173045   4.152   2.175   2.809 -0.0500 -0.8682  0.6261
17210TIP3    H273046   4.086   2.173   2.673  0.5138 -0.7929  0.3472
17211TIP3   OH273047   4.857   2.049   5.081 -0.5096 -0.5904 -0.2486
17211TIP3    H173048   4.820   1.963   5.061 -1.5971 -0.0084 -0.8004
17211TIP3    H273049   4.818   2.108   5.017 -1.6366  0.7561  1.5660
17212TIP3   OH273050   0.335   1.150  12.211 -0.4981  0.4282 -0.0306
17212TIP3    H173051   0.328   1.087  12.283  1.8688 -0.6301 -0.6141
17212TIP3    H273052   0.283   1.113  12.140 -1.8746  0.8796  0.7141
17213TIP3   OH273053   1.113   4.268   1.869 -0.1132 -0.3015  0.1067
17213TIP3    H173054   1.089   4.341   1.811  1.6972  0.2131 -0.0639
17213TIP3    H273055   1.031   4.220   1.882 -0.7895  0.1574 -2.0526
17214TIP3   OH273056   0.700   5.860  11.012  0.0250  0.6597 -0.0466
17214TIP3    H173057   0.653   5.906  10.942 -2.0138 -0.0342  0.7742
17214TIP3    H273058   0.708   5.770  10.980  1.5003  0.9170 -0.4727
17215TIP3   OH273059   2.286   5.597  16.029  0.1485  0.3288 -0.2217
17215TIP3    H173060   2.256   5.657  16.098  0.3718 -2.3250  2.3523
17215TIP3    H273061   2.381   5.605  16.030  0.3442 -1.5677  1.7064
17216TIP3   OH273062   0.489   0.369   2.036  0.3449 -0.0339  1.0427
17216TIP3    H173063   0.475   0.457   2.001  2.2096 -0.5587 -1.3296
17216TIP3    H273064   0.584   0.362   2.045  0.2636 -1.9467  0.7773
17217TIP3   OH273065   4.148   2.596   4.708  0.3532  0.1713  0.1178
17217TIP3    H173066   4.079   2.530   4.703 -1.2776  1.6592  1.6326
17217TIP3    H273067   4.115   2.669   4.656  1.4175  0.4231 -0.2317
17218TIP3   OH273068   0.377   3.273  11.354 -0.8483  0.1222 -0.1725
17218TIP3    H173069   0.324   3.353  11.345 -0.4255  0.2559 -1.8069
17218TIP3    H273070   0.362   3.244  11.444  0.0683  2.7929  0.9341
17219TIP3   OH273071   5.571   6.055  11.399 -0.1944  0.0927 -0.3005
17219TIP3    H173072   5.486   6.026  11.367  1.1552 -0.4450 -3.9267
17219TIP3    H273073   5.627   6.055  11.321  3.0508  0.7667  1.8265
17220TIP3   OH273074   4.362   4.326  10.905 -0.3693  0.4801  0.0004
17220TIP3    H173075   4.293   4.390  10.890  0.0885  0.8003 -0.8583
17220TIP3    H273076   4.412   4.325  10.822 -0.5227 -1.1761 -0.1022
17221TIP3   OH273077   6.129   1.710   0.112  0.6449 -0.3095 -0.1978
17221TIP3    H173078   6.206   1.764   0.130  2.1359 -2.8742  1.7996
17221TIP3    H273079   6.155   1.653   0.039 -0.6159  0.9834 -1.7306
17222TIP3   OH273080   5.530   4.587  15.042  0.0776 -0.0145  0.0956
17222TIP3    H173081   5.593   4.657  15.025 -0.2015  0.4470  0.9131
17222TIP3    H273082   5.481   4.578  14.960  0.0691  0.8058  0.0054
17223TIP3   OH273083   2.791   1.700  16.512 -0.2749  0.4060  0.0481
17223TIP3    H173084   2.847   1.730  16.583 -0.8231  0.9148  0.2716
17223TIP3    H273085   2.717   1.658  16.556  0.2929 -0.9935 -0.2489
17224TIP3   OH273086   0.490   6.635   5.900  1.2070 -0.3702 -0.1396
17224TIP3    H173087   0.492   6.571   5.971  1.0946  0.9727  1.0977
17224TIP3    H273088   0.493   6.581   5.820 -0.0594 -1.9863  0.8323
17225TIP3   OH273089   4.526   0.742  12.627  0.3309 -0.5020  0.3108
17225TIP3    H173090   4.560   0.796  12.699 -1.4133 -1.1481  1.6895
17225TIP3    H273091   4.588   0.756  12.555  1.4901  1.0862  1.5482
17226TIP3   OH273092   1.297   1.441   6.267 -0.2931 -0.1130 -0.5677
17226TIP3    H173093   1.240   1.471   6.196  0.2800 -0.0654 -1.0135
17226TIP3    H273094   1.276   1.499   6.340  0.1155  0.7757 -1.1303
17227TIP3   OH273095   5.718   1.664   1.909 -0.0929  1.0081  0.2378
17227TIP3    H173096   5.635   1.652   1.863  0.0516  1.5512 -0.1751
17227TIP3    H273097   5.698   1.721   1.982 -0.1738  0.7523  0.4174
17228TIP3   OH273098   0.703   5.025   0.054  0.7124  0.2936  0.1532
17228TIP3    H173099   0.633   4.965   0.081 -0.4955  1.4899 -0.1847
17228TIP3    H273100   0.751   5.044   0.135 -0.9356  1.4015  0.9491
17229TIP3   OH273101   3.472   2.500  15.026 -0.2129  0.1406 -0.1527
17229TIP3    H173102   3.441   2.525  14.939 -0.2666  1.4853  0.2272
17229TIP3    H273103   3.501   2.582  15.065  1.5191 -0.7232  0.4414
17230TIP3   OH273104   6.049   5.977  11.810  0.0196 -0.5620 -0.9171
17230TIP3    H173105   5.969   6.029  11.804  1.4606  1.6982 -1.8407
17230TIP3    H273106   6.019   5.888  11.827 -2.6207  0.4002 -0.1087
17231TIP3   OH273107   4.674   1.662  14.678 -0.3476 -0.6018 -0.3672
17231TIP3    H173108   4.672   1.627  14.589 -0.1433 -2.2578  0.2450
17231TIP3    H273109   4.762   1.699  14.686  0.1965 -1.8435 -0.3696
17232TIP3   OH273110   1.597   3.996   3.920  0.0633  0.5037 -0.1767
17232TIP3    H173111   1.582   4.086   3.947 -0.3996  0.9278 -1.7161
17232TIP3    H273112   1.518   3.949   3.949  0.7771  0.3392  1.5715
17233TIP3   OH273113   4.428   1.705  13.934  0.3576  0.3944 -0.8228
17233TIP3    H173114   4.445   1.722  13.842  1.3842  0.9807 -0.5341
17233TIP3    H273115   4.506   1.660  13.966 -0.9099 -1.8841 -0.7464
17234TIP3   OH273116   4.646   3.440  11.180  0.7419  0.5589 -0.4998
17234TIP3    H173117   4.666   3.362  11.128  1.4016 -0.9366  1.8408
17234TIP3    H273118   4.683   3.421  11.266 -0.4500  2.8392  0.5957
17235TIP3   OH273119   1.102   4.830   5.329  0.0203 -0.4721 -0.6111
17235TIP3    H173120   1.010   4.840   5.305 -0.2104  0.3682  0.5081
17235TIP3    H273121   1.099   4.807   5.422  0.9422  0.2127 -0.3987
17236TIP3   OH273122   5.025   3.090  16.641  0.1151  0.3115  0.5199
17236TIP3    H173123   5.085   3.083  16.567 -0.8139 -1.7604 -0.1205
17236TIP3    H273124   5.081   3.116  16.715  1.1783  1.7067 -0.7200
17237TIP3   OH273125   3.375   6.593  11.136  0.4341 -1.1072  0.1101
17237TIP3    H173126   3.373   6.596  11.040 -1.4250  0.5413  0.1415
17237TIP3    H273127   3.294   6.549  11.160  0.0354  0.0161  0.9217
17238TIP3   OH273128   5.920   4.660   6.173 -0.4226 -0.6451  0.0070
17238TIP3    H173129   5.835   4.638   6.134 -1.8047  1.3383  1.6901
17238TIP3    H273130   5.916   4.622   6.261  0.1805  0.0200  0.3224
17239TIP3   OH273131   2.132   1.447  14.598  0.2424 -0.0937 -0.3824
17239TIP3    H173132   2.048   1.473  14.634  0.4622 -1.6757  1.4458
17239TIP3    H273133   2.120   1.452  14.503 -1.3599  1.2875 -0.1491
17240TIP3   OH273134   6.369   3.077  12.933 -0.0506  0.4327 -0.5975
17240TIP3    H173135   6.415   2.994  12.923 -0.7382  0.1024 -1.0877
17240TIP3    H273136   6.320   3.087  12.852 -2.4120 -0.1942  0.6678
17241TIP3   OH273137   0.225   1.678   3.973 -0.0555 -0.0030  0.0995
17241TIP3    H173138   0.251   1.637   4.056  0.6894  2.0771  0.9756
17241TIP3    H273139   0.268   1.764   3.975 -1.1961  0.6627 -1.8015
17242TIP3   OH273140   3.047   1.701   2.307  0.0740 -0.3551  0.0291
17242TIP3    H173141   3.069   1.696   2.214 -0.0683  0.1992 -0.0386
17242TIP3    H273142   3.045   1.795   2.326 -4.3307 -0.1236 -0.5081
17243TIP3   OH273143   3.283   4.815   4.732  0.1672  0.5883 -0.3073
17243TIP3    H173144   3.327   4.874   4.793 -2.6122  1.2003  1.3173
17243TIP3    H273145   3.234   4.755   4.789  0.9394 -1.7377 -1.9558
17244TIP3   OH273146   0.088   5.244  16.770  0.1579  0.2028 -0.0912
17244TIP3    H173147   0.066   5.167  16.718  0.3120  0.0352  0.0938
17244TIP3    H273148   0.183   5.241  16.778  0.0172 -0.6618  1.5710
17245TIP3   OH273149   4.483   0.317  12.140  0.7864 -0.0114 -0.1004
17245TIP3    H173150   4.434   0.315  12.058  1.0121 -0.4716 -0.2323
17245TIP3    H273151   4.511   0.408  12.149  0.3286  0.1509 -0.2715
17246TIP3   OH273152   3.990   2.645  15.582 -0.1833 -0.3241  0.1524
17246TIP3    H173153   4.023   2.604  15.662 -1.6309 -0.9493  0.4551
17246TIP3    H273154   4.005   2.580  15.514 -2.3213 -1.3638  0.6026
17247TIP3   OH273155   2.199   5.001   0.154  0.1008 -0.1056  0.2366
17247TIP3    H173156   2.173   5.034   0.240  2.5393  1.9426  0.2759
17247TIP3    H273157   2.288   4.967   0.166  0.9775  1.3189 -1.6713
17248TIP3   OH273158   5.368   4.549   0.641 -0.2883 -0.2935  0.3224
17248TIP3    H173159   5.389   4.459   0.668  0.2015  0.0077  0.9560
17248TIP3    H273160   5.450   4.584   0.607 -0.4484 -0.0418  0.1944
17249TIP3   OH273161   6.123   1.095  15.723  0.5342  0.3541  0.2564
17249TIP3    H173162   6.131   1.000  15.724  0.7595  0.3699  0.1341
17249TIP3    H273163   6.213   1.126  15.716  0.5320  0.5933  1.1315
17250TIP3   OH273164   3.050   3.244   2.870  0.2850 -0.2223 -0.6684
17250TIP3    H173165   3.117   3.276   2.931  1.2035  1.5162 -2.4698
17250TIP3    H273166   3.099   3.211   2.795 -0.8400 -0.9970 -1.0914
17251TIP3   OH273167   3.140   0.722  11.074  0.9524  0.4738 -0.2010
17251TIP3    H173168   3.085   0.753  11.002  0.3709  0.7092  0.3392
17251TIP3    H273169   3.161   0.800  11.124 -0.2132  0.0833  0.9537
17252TIP3   OH273170   1.915   0.223  12.458  0.8295  0.0701  0.2737
17252TIP3    H173171   1.898   0.277  12.381 -0.7036  0.3892  0.7926
17252TIP3    H273172   2.003   0.187  12.444  0.5030 -0.0525 -1.7032
17253TIP3   OH273173   4.158   2.224   1.453 -0.1672 -0.2319  0.0334
17253TIP3    H173174   4.100   2.156   1.419 -2.2323  1.6106 -0.4115
17253TIP3    H273175   4.165   2.205   1.547  0.5130 -1.8403 -0.3122
17254TIP3   OH273176   6.771   4.170  11.202  0.5055 -0.3987 -0.0994
17254TIP3    H173177   6.679   4.195  11.195  0.1747 -1.8100 -1.5707
17254TIP3    H273178   6.771   4.075  11.188  2.2180 -0.3782 -0.5217
17255TIP3   OH273179   4.531   2.149  13.637 -1.0170  0.0400 -0.5659
17255TIP3    H173180   4.588   2.215  13.679  0.4940 -1.0813 -0.7606
17255TIP3    H273181   4.492   2.102  13.711 -0.2225 -0.3703 -0.3840
17256TIP3   OH273182   4.734   0.552   0.636  0.2785 -0.5348 -0.6563
17256TIP3    H173183   4.792   0.550   0.560  2.2444  0.9702  0.6992
17256TIP3    H273184   4.792   0.568   0.710 -1.9085  1.7419  0.7322
17257TIP3   OH273185   5.531   6.373   3.690 -0.2129 -0.3021 -0.8266
17257TIP3    H173186   5.593   6.305   3.664  2.0641  1.4372 -0.2981
17257TIP3    H273187   5.579   6.455   3.679 -0.6504  0.9361  4.0378
17258TIP3   OH273188   6.662   4.332   5.684 -0.0137  0.1486  0.2903
17258TIP3    H173189   6.742   4.317   5.634 -0.1491 -0.1406  0.1616
17258TIP3    H273190   6.659   4.427   5.695  0.1585  0.1930 -0.0198
17259TIP3   OH273191   0.472   2.639   0.113 -0.3169 -0.1962 -0.1950
17259TIP3    H173192   0.562   2.610   0.100 -0.5787 -0.0143 -2.8324
17259TIP3    H273193   0.420   2.585   0.053 -2.1014 -0.6839  1.6484
17260TIP3   OH273194   1.312   6.608  16.689  0.1885 -0.3840 -0.4373
17260TIP3    H173195   1.270   6.606  16.775 -3.1824 -2.1295 -1.9333
17260TIP3    H273196   1.287   6.693  16.653 -0.7453 -0.7526 -0.6890
17261TIP3   OH273197   4.729   4.825  16.635  0.1144  0.1403  0.1571
17261TIP3    H173198   4.796   4.878  16.592  0.0853 -0.5102 -0.7256
17261TIP3    H273199   4.647   4.871  16.619 -0.0266 -0.5719 -1.3475
17262TIP3   OH273200   5.136   5.355  12.954 -0.2504  0.1108  0.5558
17262TIP3    H173201   5.208   5.341  13.016  1.0208 -2.7298 -1.3163
17262TIP3    H273202   5.170   5.321  12.871 -2.7327  1.4929 -1.1477
17263TIP3   OH273203   0.477   2.903  14.739  0.1912  0.1581  0.0635
17263TIP3    H173204   0.387   2.905  14.708  0.5445 -1.3635 -1.1756
17263TIP3    H273205   0.528   2.941  14.668  0.6967 -0.4501  0.0955
17264TIP3   OH273206   4.449   0.134  12.938 -0.8762 -0.2270 -0.4171
17264TIP3    H173207   4.451   0.153  13.032 -2.2097  0.6806 -0.5415
17264TIP3    H273208   4.365   0.170  12.908 -1.7286 -2.8340 -1.4672
17265TIP3   OH273209   1.717   4.617   1.285 -0.0425  0.1728 -0.5167
17265TIP3    H173210   1.622   4.623   1.292 -0.2502 -0.5009 -2.3573
17265TIP3    H273211   1.733   4.543   1.226  1.6678 -0.3869  0.5604
17266TIP3   OH273212   6.538   3.444   3.346 -0.8554  0.2295  0.0926
17266TIP3    H173213   6.505   3.523   3.388 -0.5116  0.3316  0.1762
17266TIP3    H273214   6.483   3.374   3.379 -1.1436  0.4313  0.0421
17267TIP3   OH273215   6.016   6.361  17.287 -0.0880  0.1560 -0.2701
17267TIP3    H173216   6.026   6.304  17.210 -1.2790  1.2768 -1.3109
17267TIP3    H273217   5.934   6.408  17.271  0.8149  2.1358  0.5534
17268TIP3   OH273218   2.269   0.119   5.311 -0.5266  0.4103 -0.3089
17268TIP3    H173219   2.212   0.087   5.381  1.2890 -0.8085  0.6955
17268TIP3    H273220   2.338   0.167   5.357 -0.6500  1.7636 -1.4845
17269TIP3   OH273221   1.106   3.870   1.588 -0.3893 -0.1512 -0.1930
17269TIP3    H173222   1.140   3.781   1.596  1.2815  0.5634  1.3015
17269TIP3    H273223   1.176   3.925   1.621 -1.8602  1.6529  0.0711
17270TIP3   OH273224   3.563   0.167   2.982 -0.2038 -0.2670 -0.0822
17270TIP3    H173225   3.544   0.113   2.905 -0.5772 -0.0994 -0.1055
17270TIP3    H273226   3.504   0.133   3.050 -0.7881  0.4334 -0.2329
17271TIP3   OH273227   2.432   2.353  12.672  0.5072 -0.4145  0.1269
17271TIP3    H173228   2.403   2.298  12.599 -1.6550  0.1906  0.4560
17271TIP3    H273229   2.479   2.293  12.730 -0.8069 -1.6951 -0.0717
17272TIP3   OH273230   0.325   4.408  11.068  0.0376  0.4095 -0.0120
17272TIP3    H173231   0.376   4.488  11.064 -0.0243  0.3972 -1.2202
17272TIP3    H273232   0.253   4.428  11.128  0.5737  0.9239  0.4686
17273TIP3   OH273233   4.899   1.753   0.868 -0.3225 -0.1765 -0.3953
17273TIP3    H173234   4.907   1.772   0.774 -1.5103  1.1010 -0.2697
17273TIP3    H273235   4.981   1.710   0.891  0.0483 -0.3917 -1.9863
17274TIP3   OH273236   5.939   5.940   1.969 -0.2005  0.1581 -0.2633
17274TIP3    H173237   5.906   6.016   1.922  1.5491  0.0975 -1.6912
17274TIP3    H273238   5.988   5.977   2.042 -1.3016  0.3036  0.4253
17275TIP3   OH273239   2.307   2.667   5.326 -0.1425  0.2769 -0.8675
17275TIP3    H173240   2.255   2.706   5.396 -1.3400  1.0259 -2.1053
17275TIP3    H273241   2.397   2.666   5.359 -0.4981  1.6826  0.2176
17276TIP3   OH273242   6.431   4.229  12.151  0.2172  0.1955 -1.2266
17276TIP3    H173243   6.443   4.224  12.246 -0.6959  0.9681 -1.0577
17276TIP3    H273244   6.513   4.194  12.115  0.3382 -0.6717 -0.1639
17277TIP3   OH273245   3.210   5.918   4.706  0.3496  0.2957 -0.3838
17277TIP3    H173246   3.188   5.928   4.799 -0.0340 -2.3442 -0.1019
17277TIP3    H273247   3.150   5.976   4.660 -0.0245  1.0249  0.9782
17278TIP3   OH273248   2.767   6.200  15.121  0.1220 -0.1215  0.1080
17278TIP3    H173249   2.724   6.176  15.039  2.0375  1.1478 -1.3840
17278TIP3    H273250   2.792   6.117  15.161 -2.0292 -0.8034  0.1179
17279TIP3   OH273251   3.441   4.092  11.710  1.0404  0.2419 -0.2291
17279TIP3    H173252   3.401   4.172  11.744  0.4630 -0.4278  0.7376
17279TIP3    H273253   3.455   4.037  11.788 -0.2826 -1.3253 -1.0300
17280TIP3   OH273254   5.816   3.788   2.001  0.5094  0.4835  0.1814
17280TIP3    H173255   5.799   3.705   2.046  2.7241  0.9544  2.0773
17280TIP3    H273256   5.856   3.762   1.918  0.7028 -0.3535  0.5237
17281TIP3   OH273257   1.443   4.903   0.967 -0.7606 -0.2641  0.1466
17281TIP3    H173258   1.374   4.836   0.967 -0.9294 -0.0971  0.5398
17281TIP3    H273259   1.396   4.986   0.960 -0.6073 -0.1471  0.4640
17282TIP3   OH273260   6.635   2.532   6.353  0.0722  0.1895  0.2164
17282TIP3    H173261   6.648   2.559   6.262 -0.9328 -0.3663 -0.1039
17282TIP3    H273262   6.596   2.609   6.395  0.1219  0.2937  0.0741
17283TIP3   OH273263   6.705   3.349  10.875  0.1591 -0.9314  0.2420
17283TIP3    H173264   6.693   3.280  10.940  0.1970 -0.4470  0.7839
17283TIP3    H273265   6.798   3.372  10.883  0.2351 -1.0911 -0.2113
17284TIP3   OH273266   3.907   2.891   3.178 -0.4706 -0.1478  0.3390
17284TIP3    H173267   3.851   2.965   3.155 -0.5468 -0.4375 -0.4252
17284TIP3    H273268   3.985   2.902   3.125 -0.1611 -0.2093  0.7775
17285TIP3   OH273269   4.077   3.155  15.779 -0.3760  0.6989 -0.0699
17285TIP3    H173270   4.041   3.135  15.865 -0.3257  0.9622  0.0130
17285TIP3    H273271   4.171   3.143  15.789 -0.4127  0.2569 -0.2184
17286TIP3   OH273272   6.746   4.767   5.891 -0.2984  0.2010  0.6252
17286TIP3    H173273   6.663   4.782   5.936 -2.1351 -1.9392 -1.7221
17286TIP3    H273274   6.778   4.854   5.870 -1.9555  1.0945  1.5904
17287TIP3   OH273275   5.176   0.067  15.996  0.1247  0.0070  0.0392
17287TIP3    H173276   5.173   0.054  16.091 -2.1764 -0.6713 -0.0660
17287TIP3    H273277   5.129  -0.008  15.960  2.0066 -0.4023 -1.7643
17288TIP3   OH273278   4.380   2.327  12.069 -0.4318  0.4998  0.0648
17288TIP3    H173279   4.446   2.258  12.063  1.1854  1.9858 -0.0046
17288TIP3    H273280   4.347   2.321  12.158  1.4819  1.1533  0.8701
17289TIP3   OH273281   1.561   5.959  15.557  0.5260 -0.2004  0.2961
17289TIP3    H173282   1.635   5.926  15.506 -0.1751  0.5684 -1.2667
17289TIP3    H273283   1.588   6.046  15.585 -0.0615  0.4182 -0.9724
17290TIP3   OH273284   0.042   3.707   2.271  0.2175 -0.3504 -0.3054
17290TIP3    H173285  -0.046   3.739   2.251 -0.7018 -1.4259  1.6718
17290TIP3    H273286   0.072   3.667   2.190 -1.7088 -1.2072 -0.6474
17291TIP3   OH273287   5.891   2.652  11.454  0.0171  0.0688 -0.0682
17291TIP3    H173288   5.883   2.557  11.455 -0.3098  0.0910 -0.4112
17291TIP3    H273289   5.823   2.682  11.513 -1.5458  0.1897 -1.8355
17292TIP3   OH273290   6.566   6.302  15.727 -0.2847  0.0195 -0.6287
17292TIP3    H173291   6.511   6.224  15.727  1.7907 -1.5457 -0.2067
17292TIP3    H273292   6.650   6.272  15.691  0.4340  2.1882 -0.8925
17293TIP3   OH273293   5.983   1.204   4.027 -0.5806 -0.3225  0.0088
17293TIP3    H173294   5.982   1.284   4.079 -0.3465 -1.6402  2.1399
17293TIP3    H273295   5.909   1.214   3.966 -0.4138  1.5722  0.0682
17294TIP3   OH273296   5.345   2.433  12.539  0.1575  0.4295  0.6702
17294TIP3    H173297   5.436   2.459  12.549  0.5790 -0.8160  0.1817
17294TIP3    H273298   5.342   2.386  12.456 -1.2349  1.7081 -0.0632
17295TIP3   OH273299   1.113   5.902  14.757 -0.2173 -0.0342  0.3359
17295TIP3    H173300   1.143   5.908  14.848 -1.1087 -0.5809  0.6734
17295TIP3    H273301   1.083   5.812  14.747 -1.8454  0.5042  0.0467
17296TIP3   OH273302   2.699   2.805  13.763  0.6640 -0.3942  0.0586
17296TIP3    H173303   2.659   2.859  13.695 -1.3467 -0.3566  1.1791
17296TIP3    H273304   2.755   2.866  13.813 -0.5191  0.3814  0.4849
17297TIP3   OH273305   5.017   4.519   0.013  0.2080  0.6639  0.0362
17297TIP3    H173306   4.935   4.519   0.063 -0.8618 -1.0152 -1.6285
17297TIP3    H273307   5.055   4.432   0.028  3.4582  2.3409  3.3379
17298TIP3   OH273308   3.659   4.916  15.303 -0.2461 -0.2313  0.1901
17298TIP3    H173309   3.578   4.877  15.335  0.2665 -0.6122  1.0535
17298TIP3    H273310   3.728   4.876  15.356  0.3457  1.6470  0.9187
17299TIP3   OH273311   1.150   4.402   6.613  0.1305 -0.1230 -0.3226
17299TIP3    H173312   1.195   4.322   6.586  0.0843 -0.4846  0.6394
17299TIP3    H273313   1.068   4.402   6.564  0.1728 -0.6149 -0.3974
17300TIP3   OH273314   4.902   3.349   4.650 -0.5822  0.8822 -0.5186
17300TIP3    H173315   4.830   3.298   4.687  1.2750 -1.4728  0.1561
17300TIP3    H273316   4.920   3.416   4.715 -1.1809  0.5129  0.0404
17301TIP3   OH273317   0.766   0.904   0.446 -0.3249  0.3823  0.2347
17301TIP3    H173318   0.754   0.872   0.536 -2.9921  1.6338  0.4177
17301TIP3    H273319   0.828   0.976   0.455 -0.4263  0.3825  1.0786
17302TIP3   OH273320   0.074   5.145   2.725 -0.0331 -0.5440  0.4515
17302TIP3    H173321   0.112   5.100   2.800 -2.6515 -0.8461  1.7309
17302TIP3    H273322   0.080   5.082   2.653  0.7752 -1.0036  0.9053
17303TIP3   OH273323   1.652   5.413   1.873  0.7393 -0.2528 -1.0961
17303TIP3    H173324   1.561   5.439   1.868  0.8717  0.0388 -2.3352
17303TIP3    H273325   1.696   5.483   1.921  0.1389 -0.9550  0.5589
17304TIP3   OH273326   2.227   4.302   2.453 -0.0569 -0.3189 -0.1209
17304TIP3    H173327   2.173   4.224   2.468 -0.7342  0.2602  0.5885
17304TIP3    H273328   2.300   4.292   2.514 -0.1729 -0.3811  0.0110
17305TIP3   OH273329   3.108   1.328  16.627 -0.1172 -0.0985  0.1526
17305TIP3    H173330   3.162   1.334  16.706 -1.8376 -0.0864  1.3968
17305TIP3    H273331   3.117   1.413  16.584  1.1236 -0.2339  0.1197
17306TIP3   OH273332   5.716   0.146   2.009 -0.4268 -0.6863 -0.3459
17306TIP3    H173333   5.678   0.126   2.094  0.1164  0.2822  0.1408
17306TIP3    H273334   5.798   0.192   2.029 -0.6277  0.1691 -1.3777
17307TIP3   OH273335   1.300   0.997  13.022  0.3593 -0.2784 -0.3163
17307TIP3    H173336   1.371   0.986  12.960 -0.6390  0.7518 -1.7140
17307TIP3    H273337   1.282   1.091  13.022  0.1312 -0.2936  1.3274
17308TIP3   OH273338   2.281   6.507  12.503  0.5150 -0.9371 -0.3039
17308TIP3    H173339   2.348   6.570  12.476 -0.7708  0.4994 -0.2838
17308TIP3    H273340   2.218   6.507  12.430 -1.1132  0.2425  1.0108
17309TIP3   OH273341   3.980   2.206  14.319  0.0840 -0.5100 -0.3268
17309TIP3    H173342   3.923   2.130  14.321 -0.8864  0.2089  0.1136
17309TIP3    H273343   4.022   2.207  14.405  0.0949 -0.5438 -0.3314
17310TIP3   OH273344   0.400   1.150  13.782  0.2682 -0.2302  0.0743
17310TIP3    H173345   0.333   1.167  13.848 -1.1398  1.2761 -1.6206
17310TIP3    H273346   0.466   1.217  13.798  0.1939 -0.2087  0.2974
17311TIP3   OH273347   0.548   5.666   0.058 -0.0468  0.2658  0.0180
17311TIP3    H173348   0.623   5.706   0.015 -0.0297  1.2304  0.9103
17311TIP3    H273349   0.517   5.599  -0.004 -1.4119  3.0247 -2.5458
17312TIP3   OH273350   4.978   2.419  12.442  0.0264  0.1748  0.9485
17312TIP3    H173351   4.949   2.405  12.352 -0.4196 -0.0093  1.1204
17312TIP3    H273352   5.018   2.336  12.467 -0.0282  0.1620  0.9909
17313TIP3   OH273353   5.765   5.898  14.570 -0.3317 -0.2581 -0.2452
17313TIP3    H173354   5.803   5.972  14.523  1.7447 -0.0941  1.5514
17313TIP3    H273355   5.687   5.934  14.612  0.3765  0.8183  0.1942
17314TIP3   OH273356   6.487   4.395   0.953  0.2852  0.6066  0.0030
17314TIP3    H173357   6.460   4.486   0.962 -0.3957  0.4548 -0.3957
17314TIP3    H273358   6.581   4.399   0.937  0.4302  1.1823  0.9689
17315TIP3   OH273359   0.854   5.154  11.245 -0.0169 -0.4294 -0.2023
17315TIP3    H173360   0.878   5.111  11.163  0.4699  0.1589 -0.3752
17315TIP3    H273361   0.937   5.183  11.282 -0.4209  1.6100 -0.7961
17316TIP3   OH273362   5.158   6.555   1.659 -0.1289  0.1237 -0.4701
17316TIP3    H173363   5.124   6.517   1.577 -0.3611 -2.3688  0.6902
17316TIP3    H273364   5.244   6.591   1.635 -0.1622 -0.6050 -1.7861
17317TIP3   OH273365   1.679   3.877   2.031 -0.0390 -0.5000 -0.2393
17317TIP3    H173366   1.669   3.783   2.041  0.6229 -0.6521 -0.9030
17317TIP3    H273367   1.639   3.914   2.109 -0.9303 -1.2932 -0.3095
17318TIP3   OH273368   1.185   4.625   3.580 -0.0752 -0.4083  0.3187
17318TIP3    H173369   1.247   4.626   3.653  1.5802 -0.5928 -1.0112
17318TIP3    H273370   1.099   4.632   3.621  0.8853  2.0472  2.1364
17319TIP3   OH273371   5.063   0.854  15.819  0.3124  0.0197  0.4290
17319TIP3    H173372   5.056   0.933  15.765  3.4269  0.0118 -0.1735
17319TIP3    H273373   5.127   0.799  15.774 -0.0909 -1.8698  2.0086
17320TIP3   OH273374   5.983   5.684   4.792  0.0670  0.5194  0.8037
17320TIP3    H173375   5.896   5.668   4.830 -0.3154 -0.1385 -0.3268
17320TIP3    H273376   6.030   5.729   4.862 -0.4912 -0.9915  2.2218
17321TIP3   OH273377   1.424   3.561  12.289 -0.2400 -0.1588 -0.2859
17321TIP3    H173378   1.431   3.642  12.339  1.0743 -0.7093  0.4487
17321TIP3    H273379   1.482   3.574  12.214 -1.1360  0.1160 -0.9604
17322TIP3   OH273380   0.730   2.596  11.260 -0.6112  0.0727 -0.0240
17322TIP3    H173381   0.716   2.504  11.236 -0.7370 -0.1707  0.9121
17322TIP3    H273382   0.779   2.591  11.343  0.6035  0.8744 -0.6690
17323TIP3   OH273383   5.226   1.143   3.984  0.6764 -0.3762 -0.4548
17323TIP3    H173384   5.131   1.150   3.989  0.4927 -1.3835 -1.8961
17323TIP3    H273385   5.251   1.100   4.066 -0.0573  0.1353  0.0546
17324TIP3   OH273386   4.020   1.307   2.888  0.1495  0.1439 -0.5069
17324TIP3    H173387   3.987   1.320   2.977  3.3488  0.0836  0.8150
17324TIP3    H273388   4.071   1.227   2.892 -1.5244 -1.2048 -3.0968
17325TIP3   OH273389   2.186   5.441  13.291 -0.6306 -0.0398  0.2475
17325TIP3    H173390   2.230   5.355  13.287  1.2481  0.5854  3.4948
17325TIP3    H273391   2.100   5.422  13.329 -0.1191 -0.5274  1.2155
17326TIP3   OH273392   3.974   6.072   3.259  0.2391 -0.4412  0.2454
17326TIP3    H173393   3.884   6.046   3.279  0.5760 -1.0819  0.9839
17326TIP3    H273394   4.022   5.989   3.250  0.8155 -0.1041  0.1244
17327TIP3   OH273395   4.443   1.709   4.828 -0.1383 -0.0875  0.2738
17327TIP3    H173396   4.387   1.749   4.895 -1.7285 -0.6712 -0.6439
17327TIP3    H273397   4.524   1.687   4.875 -0.7162  0.6607  1.6969
17328TIP3   OH273398   2.369   4.723   3.440  0.9464  0.3600  0.0649
17328TIP3    H173399   2.383   4.776   3.518  0.5148 -1.2380  1.2640
17328TIP3    H273400   2.423   4.645   3.453  1.0007  0.1295 -1.3182
17329TIP3   OH273401   1.994   4.200   0.469 -0.5978 -0.1299  0.2282
17329TIP3    H173402   2.086   4.224   0.456  0.0325 -2.7539 -0.6987
17329TIP3    H273403   1.949   4.237   0.394 -0.3577  1.2819  0.7492
17330TIP3   OH273404   6.610   4.985  15.766 -0.3883 -0.8879  0.7454
17330TIP3    H173405   6.643   4.989  15.676  0.9811 -0.3475  1.2377
17330TIP3    H273406   6.651   5.060  15.809 -0.3889 -1.5924  2.0125
17331TIP3   OH273407   4.202   2.659   4.307 -0.5722  0.2377 -0.3252
17331TIP3    H173408   4.183   2.733   4.366  1.4454 -0.1477  0.9131
17331TIP3    H273409   4.160   2.584   4.349  1.3422 -0.1455  1.0362
17332TIP3   OH273410   4.049   0.260  14.255  0.3939  0.2714  0.0369
17332TIP3    H173411   3.971   0.266  14.200 -1.1119  0.9724  2.1330
17332TIP3    H273412   4.096   0.342  14.237  0.5647 -0.0516 -1.0709
17333TIP3   OH273413   2.529   6.320   4.138 -0.4367  0.0695  0.3082
17333TIP3    H173414   2.539   6.265   4.060 -0.1038  0.1917  0.2636
17333TIP3    H273415   2.467   6.273   4.193  1.5581 -1.5174  1.3069
17334TIP3   OH273416   0.174   2.467  12.002  0.1078 -0.8220  0.4716
17334TIP3    H173417   0.124   2.410  11.943  0.1413 -0.1189 -0.2538
17334TIP3    H273418   0.147   2.555  11.979  2.4017 -0.3251 -0.6945
17335TIP3   OH273419   3.870   0.681  12.060 -0.4833  0.3972  0.3417
17335TIP3    H173420   3.919   0.685  11.978 -2.5354  0.6724 -0.9333
17335TIP3    H273421   3.887   0.593  12.094  0.2632  0.2159 -0.4630
17336TIP3   OH273422   4.255   5.437  16.851  0.5248  0.4283 -0.2940
17336TIP3    H173423   4.234   5.508  16.911  2.3876  0.7658  0.0366
17336TIP3    H273424   4.346   5.414  16.872  0.9821  0.0194 -2.4421
17337TIP3   OH273425   5.324   4.723   0.194 -0.4613 -0.0303 -0.3834
17337TIP3    H173426   5.260   4.773   0.245 -1.2137  0.2587 -1.5781
17337TIP3    H273427   5.360   4.659   0.257 -0.0881  1.4177  0.9545
17338TIP3   OH273428   2.917   4.979   5.413  0.1283  0.5818  0.4918
17338TIP3    H173429   2.870   4.896   5.400  1.4531 -0.3168  1.2212
17338TIP3    H273430   2.914   5.021   5.327 -0.2893 -0.3732  0.0184
17339TIP3   OH273431   4.704   6.261  15.785 -0.9168  0.1617 -0.7040
17339TIP3    H173432   4.668   6.320  15.719 -0.7104  0.2706 -0.7197
17339TIP3    H273433   4.694   6.174  15.748 -1.3462  0.1740 -0.6248
17340TIP3   OH273434   5.246   5.259  14.512  0.0070  0.4538 -0.5859
17340TIP3    H173435   5.211   5.191  14.455 -0.5352  0.5876 -0.4169
17340TIP3    H273436   5.173   5.284  14.568  0.6832 -0.0768  0.5652
17341TIP3   OH273437   6.598   5.880  16.999 -0.1227 -0.0568 -0.2553
17341TIP3    H173438   6.502   5.887  16.999 -0.1396 -0.2451 -0.4435
17341TIP3    H273439   6.614   5.788  17.021  0.0390  0.1860  0.6849
17342TIP3   OH273440   6.032   5.922  10.468  0.3780  0.5838 -0.0137
17342TIP3    H173441   6.091   5.896  10.539  1.4770  1.5570 -0.5323
17342TIP3    H273442   5.953   5.870  10.482  1.4622 -0.9755  0.5291
17343TIP3   OH273443   1.204   3.469  15.596 -0.4602  0.2210  0.1398
17343TIP3    H173444   1.212   3.382  15.634 -0.8762  0.5314  0.9488
17343TIP3    H273445   1.166   3.523  15.665 -0.6426  0.9411 -0.5027
17344TIP3   OH273446   4.490   3.916   3.920  0.0194 -0.2424  0.0108
17344TIP3    H173447   4.563   3.872   3.963 -0.4895 -0.8136  0.3152
17344TIP3    H273448   4.459   3.980   3.985 -0.2161 -0.5198  0.1756
17345TIP3   OH273449   1.450   5.315   6.512  0.0213  0.0654 -0.3658
17345TIP3    H173450   1.391   5.254   6.557  0.0049  0.1949 -0.2093
17345TIP3    H273451   1.530   5.265   6.499  0.4577  0.3969  0.8935
17346TIP3   OH273452   5.816   6.358   2.292  0.1185  0.2002  0.0547
17346TIP3    H173453   5.802   6.376   2.385  1.1393  0.0327  0.2501
17346TIP3    H273454   5.911   6.353   2.282  0.0338  0.3955 -1.0347
17347TIP3   OH273455   5.786   3.050  13.587 -0.2393 -0.0739 -0.3270
17347TIP3    H173456   5.824   3.119  13.533 -3.2140  1.2287 -0.9521
17347TIP3    H273457   5.798   2.970  13.535  0.3688  0.5070 -1.1092
17348TIP3   OH273458   0.131   6.628   5.529  0.2043 -0.4458  0.1059
17348TIP3    H173459   0.074   6.705   5.529  1.0450  0.2192  1.4298
17348TIP3    H273460   0.219   6.665   5.536  0.5947 -1.5400  1.1204
17349TIP3   OH273461   1.962   0.892  15.560 -0.2661 -0.2115  0.8449
17349TIP3    H173462   2.052   0.861  15.551  0.0289  0.1014  2.4420
17349TIP3    H273463   1.970   0.987  15.570 -0.8629 -0.0539 -0.0720
17350TIP3   OH273464   5.008   1.080  12.803  0.0081 -0.2454  0.0318
17350TIP3    H173465   4.990   1.171  12.782  0.9505  0.1710  0.9009
17350TIP3    H273466   5.027   1.038  12.719 -2.3989 -0.1506 -0.6210
17351TIP3   OH273467   4.996   5.172   2.329  0.4985  0.5093 -0.5552
17351TIP3    H173468   5.077   5.211   2.362 -0.8473  1.9704  1.2392
17351TIP3    H273469   5.004   5.079   2.351  1.7391  0.5889 -0.5819
17352TIP3   OH273470   1.589   0.518   3.350  0.0988  0.0809  0.6147
17352TIP3    H173471   1.636   0.581   3.405  1.3933 -0.3779  0.0633
17352TIP3    H273472   1.566   0.446   3.410  0.7330 -0.0218  0.7351
17353TIP3   OH273473   3.695   1.047   2.932  0.0774 -0.0383 -0.3549
17353TIP3    H173474   3.627   1.072   2.870 -1.6312 -1.5380  0.8288
17353TIP3    H273475   3.705   1.124   2.989 -1.1151 -0.0152 -0.1497
17354TIP3   OH273476   2.366   1.636  14.621  0.0857  0.6139  0.3045
17354TIP3    H173477   2.306   1.566  14.597 -0.9547  1.0537  1.4942
17354TIP3    H273478   2.310   1.713  14.632  1.2200  1.7229 -1.1957
17355TIP3   OH273479   0.439   2.622   6.517 -0.0424  0.0047  0.0938
17355TIP3    H173480   0.526   2.603   6.484  0.2418 -0.0112  0.8290
17355TIP3    H273481   0.379   2.583   6.453  0.4999 -1.1676  0.2826
17356TIP3   OH273482   2.267   5.449   1.094 -0.7458 -0.5003  0.1207
17356TIP3    H173483   2.347   5.411   1.059  0.3623  0.5932  1.3303
17356TIP3    H273484   2.235   5.383   1.157 -0.8257 -0.9515 -0.3859
17357TIP3   OH273485   3.785   6.157   4.356 -0.6766 -0.3719 -0.0778
17357TIP3    H173486   3.860   6.160   4.296 -0.7997 -0.9363 -0.2672
17357TIP3    H273487   3.727   6.090   4.319 -1.3018  0.0956  0.0435
17358TIP3   OH273488   2.673   3.751   3.910 -0.2373 -0.1188  0.2597
17358TIP3    H173489   2.624   3.674   3.882  0.3565 -0.8323  1.1471
17358TIP3    H273490   2.754   3.748   3.860  0.0831 -0.4555  0.7911
17359TIP3   OH273491   4.504   0.512  15.324  0.1989  0.6620  0.0855
17359TIP3    H173492   4.433   0.565  15.286 -0.5848  0.1215  0.7737
17359TIP3    H273493   4.460   0.449  15.380  1.1767 -0.2489 -0.1311
17360TIP3   OH273494   2.870   5.483   3.352  0.3288 -0.6626  0.1982
17360TIP3    H173495   2.809   5.460   3.421 -0.0676  0.1872  0.1360
17360TIP3    H273496   2.930   5.546   3.393 -1.3477  1.7514 -0.8128
17361TIP3   OH273497   4.755   0.944  16.077  0.5807  0.3123  0.0691
17361TIP3    H173498   4.713   0.930  15.992 -0.8902  0.3692  0.7399
17361TIP3    H273499   4.768   0.856  16.113 -1.6361  0.3163  1.0474
17362TIP3   OH273500   3.558   4.640   5.410 -0.0738  0.6022  0.6394
17362TIP3    H173501   3.600   4.689   5.340  0.0330  0.1533  0.3851
17362TIP3    H273502   3.616   4.649   5.486 -1.3169  3.0395  1.3861
17363TIP3   OH273503   3.004   1.001   3.227 -1.0193  0.5397 -0.1306
17363TIP3    H173504   3.029   0.975   3.138  0.8529  0.0637  0.4713
17363TIP3    H273505   2.958   0.925   3.262  0.5383 -0.3194  0.1414
17364TIP3   OH273506   6.428   1.438   5.346  0.1140  0.6110 -0.0397
17364TIP3    H173507   6.445   1.530   5.324  1.2860 -0.2467 -3.2437
17364TIP3    H273508   6.333   1.433   5.356 -0.2637  1.7271 -2.5179
17365TIP3   OH273509   5.865   3.312   5.137 -0.6225  1.0075 -0.1409
17365TIP3    H173510   5.895   3.288   5.049 -1.8630  0.2586 -0.3778
17365TIP3    H273511   5.901   3.400   5.151  0.5209  0.6882 -0.9385
17366TIP3   OH273512   2.784   2.291  15.923 -0.0599  0.0414 -0.6960
17366TIP3    H173513   2.698   2.328  15.905 -0.6206 -0.9142 -0.0563
17366TIP3    H273514   2.795   2.222  15.857 -0.5566 -1.0122  0.2886
17367TIP3   OH273515   4.903   6.117  12.538 -0.1517  0.0508  0.1116
17367TIP3    H173516   4.979   6.069  12.504 -0.1462  0.5400 -0.6072
17367TIP3    H273517   4.887   6.184  12.472 -2.5950 -1.4182 -0.9209
17368TIP3   OH273518   4.141   2.697  14.511 -0.0008 -0.5097  0.5472
17368TIP3    H173519   4.227   2.692  14.469 -0.3873 -0.1366 -0.3013
17368TIP3    H273520   4.103   2.610  14.499 -0.8278  0.0706 -1.4787
17369TIP3   OH273521   4.600   6.005  15.717 -0.4272 -0.6786  0.3946
17369TIP3    H173522   4.574   5.945  15.787 -0.9869 -1.5018 -0.4970
17369TIP3    H273523   4.542   5.985  15.645 -0.3567  0.6771 -0.0774
17370TIP3   OH273524   0.586   5.139   0.534 -0.1477  0.1528 -0.6456
17370TIP3    H173525   0.511   5.145   0.474 -0.0114 -0.2943 -0.8684
17370TIP3    H273526   0.553   5.090   0.609  0.1550 -0.8554 -1.1450
17371TIP3   OH273527   0.307   2.714  11.675 -0.7489 -0.0049  0.6978
17371TIP3    H173528   0.321   2.808  11.678 -0.3535  0.1145 -2.1541
17371TIP3    H273529   0.373   2.678  11.734 -0.4214  1.4399  1.2548
17372TIP3   OH273530   6.062   4.070   1.182  0.1706  0.2975  0.4175
17372TIP3    H173531   6.138   4.128   1.186  0.9819 -0.4774 -1.9029
17372TIP3    H273532   6.100   3.982   1.188 -0.4006 -0.1297 -1.5797
17373TIP3   OH273533   3.952   5.082   0.173  0.2083  0.2605 -0.2776
17373TIP3    H173534   3.970   5.001   0.126  1.2163 -2.2462  3.8973
17373TIP3    H273535   4.036   5.104   0.214 -1.1568  0.6245  2.4950
17374TIP3   OH273536   2.548   0.186  15.788  0.6239 -0.2246  0.0814
17374TIP3    H173537   2.602   0.138  15.725 -0.6267 -2.0855  0.3465
17374TIP3    H273538   2.465   0.201  15.742  1.3261  2.8261 -0.4237
17375TIP3   OH273539   0.121   1.587   5.513 -0.1898  0.7111 -0.0648
17375TIP3    H173540   0.091   1.579   5.603 -1.0094  1.6991 -0.2309
17375TIP3    H273541   0.214   1.607   5.519 -0.0016 -0.2659  0.5179
17376TIP3   OH273542   0.662   2.666  14.634  0.2894 -0.1856 -0.2832
17376TIP3    H173543   0.603   2.735  14.663 -1.4971 -1.7123 -0.1129
17376TIP3    H273544   0.699   2.630  14.715 -0.2323 -0.6572 -0.2531
17377TIP3   OH273545   6.377   6.166   1.172  0.0679 -0.2653 -0.0329
17377TIP3    H173546   6.347   6.229   1.237 -0.2833 -1.1815  0.7224
17377TIP3    H273547   6.311   6.170   1.103 -0.7538 -0.8208  0.6850
17378TIP3   OH273548   2.663   1.467   4.150  0.6222  0.5165 -0.6762
17378TIP3    H173549   2.611   1.450   4.229  0.1326  0.9014 -0.9097
17378TIP3    H273550   2.748   1.494   4.183  0.6358  0.0221 -0.2849
17379TIP3   OH273551   4.149   1.541   5.297 -0.6161  0.1254 -0.2982
17379TIP3    H173552   4.142   1.633   5.271 -0.9008 -0.0276 -0.7863
17379TIP3    H273553   4.083   1.497   5.244 -1.9170 -0.0650  1.3999
17380TIP3   OH273554   6.720   3.073  11.799 -0.0278  0.4791  0.0859
17380TIP3    H173555   6.808   3.093  11.829 -1.3644  2.4615  3.1910
17380TIP3    H273556   6.713   3.115  11.713  3.2244 -3.4056 -2.4846
17381TIP3   OH273557   3.878   3.148  14.788 -0.5841  0.0621 -0.6243
17381TIP3    H173558   3.900   3.203  14.712 -1.9988  2.3040  0.4706
17381TIP3    H273559   3.812   3.199  14.836 -0.9481 -2.0184  1.2503
17382TIP3   OH273560   1.168   6.072  13.117 -0.0595 -0.2165  0.1387
17382TIP3    H173561   1.148   6.164  13.102  0.8999 -0.0898 -0.4595
17382TIP3    H273562   1.244   6.073  13.175 -0.2121 -0.6405  0.3539
17383TIP3   OH273563   5.855   1.013  13.200 -0.5195  0.6935  0.2321
17383TIP3    H173564   5.922   1.037  13.264 -1.2392 -0.2016  1.3551
17383TIP3    H273565   5.775   1.004  13.251 -1.0544 -0.3435 -0.7562
17384TIP3   OH273566   0.017   5.437   4.707 -0.2257 -0.2939  0.1453
17384TIP3    H173567   0.028   5.456   4.614  0.8371  0.0990  0.3408
17384TIP3    H273568  -0.078   5.441   4.721 -0.4200 -0.6048 -0.9621
17385TIP3   OH273569   3.915   6.500   3.961 -0.3235  0.0054  0.8279
17385TIP3    H173570   3.965   6.555   3.900  0.7099 -0.4375  1.2488
17385TIP3    H273571   3.958   6.414   3.955 -1.0853 -0.4072  1.1634
17386TIP3   OH273572   1.133   3.802  16.053 -0.6007 -0.0250  0.2894
17386TIP3    H173573   1.191   3.733  16.085  0.0801  0.1264 -0.6078
17386TIP3    H273574   1.078   3.759  15.987 -2.7152 -0.5961  2.2647
17387TIP3   OH273575   6.359   5.044  15.581  0.4069 -0.6268 -0.0629
17387TIP3    H173576   6.405   5.025  15.663  0.1137  2.6690  1.0194
17387TIP3    H273577   6.427   5.073  15.521  0.3596 -0.9494 -0.2756
17388TIP3   OH273578   2.844   0.190  15.341 -0.3748 -0.3408 -0.2134
17388TIP3    H173579   2.885   0.104  15.353 -1.5588 -0.9322 -0.1854
17388TIP3    H273580   2.863   0.237  15.422  1.4979 -0.0214 -0.7969
17389TIP3   OH273581   0.099   3.174   5.439 -0.0386  0.2399 -0.1211
17389TIP3    H173582   0.177   3.136   5.400  1.0427  0.7629  1.4340
17389TIP3    H273583   0.124   3.264   5.461 -1.3519  0.6908 -0.3590
17390TIP3   OH273584   5.792   5.946  13.808  0.0007  0.6330 -0.0525
17390TIP3    H173585   5.766   5.945  13.900  0.1889  1.8897  0.0246
17390TIP3    H273586   5.735   6.011  13.767  0.6102  0.8247 -0.6149
17391TIP3   OH273587   0.217   0.253  11.132  0.0835  0.0893 -0.3117
17391TIP3    H173588   0.171   0.206  11.063 -1.8783 -0.1992  1.1212
17391TIP3    H273589   0.161   0.329  11.150  1.3778  1.0302 -0.1088
17392TIP3   OH273590   1.340   0.045  12.643  0.1454 -0.2052  0.0740
17392TIP3    H173591   1.265   0.081  12.691  0.4349  2.0384 -1.0339
17392TIP3    H273592   1.416   0.082  12.686  0.6336 -1.8141  0.6681
17393TIP3   OH273593   2.730   6.770  16.411 -0.0853 -0.3476 -0.5404
17393TIP3    H173594   2.808   6.811  16.373 -0.0511 -1.2940 -1.5472
17393TIP3    H273595   2.738   6.785  16.505  0.6584  0.6636 -0.7449
17394TIP3   OH273596   4.716   1.177   1.483 -0.0219  0.0061  0.1265
17394TIP3    H173597   4.708   1.270   1.460  1.0596  0.4286  1.3593
17394TIP3    H273598   4.626   1.145   1.482 -0.5740  1.4309  1.0951
17395TIP3   OH273599   1.949   5.116  16.284 -0.3818  0.0568 -0.0317
17395TIP3    H173600   2.000   5.048  16.329 -2.1212 -0.7440  0.8241
17395TIP3    H273601   1.917   5.073  16.205 -0.8049  0.1337  0.0960
17396TIP3   OH273602   3.554   4.259   1.169  0.1472 -0.1955 -0.0867
17396TIP3    H173603   3.530   4.180   1.218  1.0025  0.5204  1.5764
17396TIP3    H273604   3.646   4.275   1.192  0.6651  0.0513 -2.1702
17397TIP3   OH273605   5.884   5.482   2.464 -0.0933  0.0209 -0.3350
17397TIP3    H173606   5.953   5.547   2.450 -1.5273  1.5450 -0.6351
17397TIP3    H273607   5.905   5.412   2.402  0.8267  0.7602 -0.8902
17398TIP3   OH273608   0.321   3.405  15.567 -0.9802  0.0514  0.6373
17398TIP3    H173609   0.347   3.490  15.531 -2.0781  0.4519  0.7613
17398TIP3    H273610   0.302   3.424  15.659  0.2349 -0.6438  1.0560
17399TIP3   OH273611   5.765   5.803  16.038  0.0359 -0.2248 -0.8047
17399TIP3    H173612   5.800   5.740  15.976 -0.4101 -2.0848  0.7463
17399TIP3    H273613   5.684   5.764  16.069  1.0538 -0.2283  2.1696
17400TIP3   OH273614   0.109   1.750  13.838 -0.2857  0.3508 -0.7067
17400TIP3    H173615   0.092   1.670  13.788 -0.6682 -0.0683  0.0713
17400TIP3    H273616   0.036   1.808  13.816 -1.6358 -0.6407  0.9853
17401TIP3   OH273617   4.968   6.287  14.841  0.2101  0.1220  0.2477
17401TIP3    H173618   4.887   6.269  14.793 -0.2297  0.2195  0.9401
17401TIP3    H273619   4.942   6.350  14.908  1.4506  2.3943 -1.3076
17402TIP3   OH273620   1.540   4.745   5.913  0.0091  0.2508 -0.4865
17402TIP3    H173621   1.447   4.734   5.896  0.4129 -2.4182 -1.3759
17402TIP3    H273622   1.544   4.803   5.989 -2.4560 -1.4104  1.0315
17403TIP3   OH273623   5.600   4.254   4.263  0.3818  0.2004 -0.1853
17403TIP3    H173624   5.556   4.293   4.187  2.1004 -0.4734 -1.5894
17403TIP3    H273625   5.583   4.161   4.256  0.1075  0.1867  0.5727
17404TIP3   OH273626   0.940   4.222  13.304  0.7127 -0.4970  0.2578
17404TIP3    H173627   1.019   4.167  13.301  1.8820  0.9598  2.2784
17404TIP3    H273628   0.944   4.266  13.389 -0.5698  2.1254 -0.9185
17405TIP3   OH273629   2.889   0.625  13.189 -0.1517  0.4332  0.5433
17405TIP3    H173630   2.967   0.573  13.167  0.1755  0.5105  1.4671
17405TIP3    H273631   2.819   0.585  13.138  0.5316  0.5043 -0.4842
17406TIP3   OH273632   1.377   6.719  11.973  0.3197 -0.1915  0.3273
17406TIP3    H173633   1.300   6.770  11.946  0.6849  0.8842  1.2499
17406TIP3    H273634   1.360   6.697  12.064  1.3972  0.6297  0.7418
17407TIP3   OH273635   0.224   6.399  12.243 -0.2969  0.6595 -0.1108
17407TIP3    H173636   0.198   6.415  12.334 -1.7044  0.6884 -0.4944
17407TIP3    H273637   0.271   6.316  12.246 -1.1252  0.1933  0.5378
17408TIP3   OH273638   5.403   0.481  15.787  0.2434  0.4865  0.1813
17408TIP3    H173639   5.396   0.513  15.877 -1.1042  1.8273 -0.3489
17408TIP3    H273640   5.358   0.397  15.788 -0.3672  0.8086  0.6326
17409TIP3   OH273641   1.897   6.152  14.300  0.8850  0.4573  0.0879
17409TIP3    H173642   1.940   6.235  14.277 -0.8716  1.2635 -0.4917
17409TIP3    H273643   1.913   6.143  14.394  0.7219  1.7091  0.2551
17410TIP3   OH273644   1.955   1.471  11.952  0.4523  0.0434 -0.1940
17410TIP3    H173645   1.901   1.392  11.956  1.1918 -0.4712 -0.2272
17410TIP3    H273646   2.041   1.440  11.924  1.1658  0.6331  1.2423
17411TIP3   OH273647   1.084   1.632   1.746  0.0573 -0.4762 -0.4679
17411TIP3    H173648   1.154   1.603   1.687  0.2387 -1.3765  0.1651
17411TIP3    H273649   1.129   1.683   1.813  0.0770 -0.8207 -0.2152
17412TIP3   OH273650   0.738   1.389  16.153  0.1837  0.1957 -0.1185
17412TIP3    H173651   0.689   1.440  16.088 -0.0201 -1.6840 -1.5510
17412TIP3    H273652   0.829   1.395  16.125  0.1145 -0.4898 -0.5253
17413TIP3   OH273653   5.328   2.594   5.337 -0.6882  0.0867 -0.2365
17413TIP3    H173654   5.389   2.526   5.306 -0.0241  0.3104  0.5523
17413TIP3    H273655   5.272   2.612   5.262  0.7226  0.4368 -1.2405
17414TIP3   OH273656   0.680   2.691   0.993  0.6405 -0.3075 -0.7896
17414TIP3    H173657   0.641   2.711   0.908 -1.4923 -1.2308 -0.0936
17414TIP3    H273658   0.607   2.693   1.055  2.0356 -0.2240  0.9536
17415TIP3   OH273659   4.178   5.022   2.220  0.7546 -0.3222  0.2535
17415TIP3    H173660   4.224   5.085   2.164 -0.7020 -0.8434 -1.5996
17415TIP3    H273661   4.239   4.949   2.229  0.1495 -1.3273 -2.7806
17416TIP3   OH273662   3.353   5.753   1.140 -0.0471  0.2777 -0.4166
17416TIP3    H173663   3.268   5.713   1.159 -0.2076  0.6409 -0.3740
17416TIP3    H273664   3.343   5.787   1.051  0.0145  0.4274 -0.3660
17417TIP3   OH273665   6.117   3.625   1.531  0.0603 -0.2404 -0.2449
17417TIP3    H173666   6.053   3.562   1.563  1.7114 -0.4905  3.0073
17417TIP3    H273667   6.069   3.708   1.525 -1.4181 -1.1627 -1.6814
17418TIP3   OH273668   5.736   1.086   5.506 -0.1419 -0.7512 -0.4820
17418TIP3    H173669   5.668   1.035   5.550 -0.7535 -1.2038 -1.9026
17418TIP3    H273670   5.794   1.115   5.577 -2.2091  0.2736  0.8668
17419TIP3   OH273671   2.627   0.231   2.555  0.7241  0.4328 -0.3987
17419TIP3    H173672   2.653   0.303   2.613 -2.3238  0.8605  0.5750
17419TIP3    H273673   2.562   0.182   2.605  0.4209 -1.1752 -2.2483
17420TIP3   OH273674   0.919   4.410  14.784 -0.1504 -0.2398  0.3587
17420TIP3    H173675   0.991   4.407  14.720  0.6367  0.1933  1.1981
17420TIP3    H273676   0.943   4.344  14.849 -1.2554 -1.1138 -0.0879
17421TIP3   OH273677   0.205   3.090  10.825 -0.5035 -0.0963  0.5826
17421TIP3    H173678   0.269   3.046  10.881  0.6676 -0.0364 -0.6386
17421TIP3    H273679   0.245   3.175  10.806 -0.4343 -0.4591 -1.0284
17422TIP3   OH273680   6.268   1.281   1.362 -0.3836  0.5642  0.0615
17422TIP3    H173681   6.245   1.327   1.443 -0.8827  1.5897 -0.6438
17422TIP3    H273682   6.363   1.271   1.366 -0.3467  1.0536  0.5386
17423TIP3   OH273683   2.765   6.385  15.953 -0.1664  0.9082 -0.2171
17423TIP3    H173684   2.846   6.405  15.999 -0.5989  2.4127 -0.0397
17423TIP3    H273685   2.710   6.463  15.967 -2.1410 -0.5757  0.7423
17424TIP3   OH273686   4.364   1.642  12.722 -0.5441 -0.1256  0.2112
17424TIP3    H173687   4.377   1.594  12.805 -0.2819  0.4768  0.5270
17424TIP3    H273688   4.428   1.603  12.663 -1.2435 -1.0775  0.0539
17425TIP3   OH273689   3.225   0.026   0.217 -0.1693  0.0581  0.1072
17425TIP3    H173690   3.217  -0.067   0.238 -0.3047 -0.1042 -0.6149
17425TIP3    H273691   3.310   0.052   0.253 -0.1810 -0.3223  0.4080
17426TIP3   OH273692   0.600   4.689  10.414  0.4434  0.6620  0.2372
17426TIP3    H173693   0.619   4.623  10.481 -2.2917 -0.3188  0.1736
17426TIP3    H273694   0.672   4.681  10.352 -0.1898 -2.9666 -0.2322
17427TIP3   OH273695   4.944   4.441   2.462  0.0685  0.2645  0.2689
17427TIP3    H173696   4.926   4.384   2.537 -2.0980  1.4148  0.6892
17427TIP3    H273697   4.896   4.402   2.389 -1.4477  1.4983  0.5632
17428TIP3   OH273698   6.662   2.356   1.902  0.3955 -0.5638 -0.2660
17428TIP3    H173699   6.583   2.389   1.859  1.3228  1.8327 -0.2517
17428TIP3    H273700   6.709   2.309   1.834 -1.0221 -2.1005 -0.2553
17429TIP3   OH273701   5.821   6.267  14.860 -0.5044  0.2665 -0.4125
17429TIP3    H173702   5.748   6.272  14.922 -0.2507 -1.8742  0.1619
17429TIP3    H273703   5.894   6.234  14.912 -0.1526 -1.1447 -1.7172
17430TIP3   OH273704   0.962   4.738  12.545  0.3254  0.1145  0.1347
17430TIP3    H173705   0.928   4.819  12.583 -0.7650  0.3571 -1.2728
17430TIP3    H273706   0.935   4.670  12.607 -0.8616  0.5668  0.1439
17431TIP3   OH273707   6.309   6.688  11.945 -0.3999 -0.1502  0.1727
17431TIP3    H173708   6.359   6.667  12.024 -1.7382 -0.1067  1.0580
17431TIP3    H273709   6.329   6.779  11.927 -0.8910  0.1497  1.0889
17432TIP3   OH273710   4.519   6.495   3.252  0.3542  0.0209  0.7239
17432TIP3    H173711   4.451   6.499   3.320  0.4491  0.6201  0.7885
17432TIP3    H273712   4.599   6.476   3.301 -0.0078 -2.4330  0.4749
17433TIP3   OH273713   3.544   3.332   4.711  0.1090 -0.4546 -0.0167
17433TIP3    H173714   3.469   3.370   4.755 -0.6989 -1.0590 -0.8341
17433TIP3    H273715   3.551   3.381   4.629  1.0073  0.0234  0.3309
17434TIP3   OH273716   2.840   4.360  13.770  0.7277 -0.1912 -0.2814
17434TIP3    H173717   2.885   4.432  13.726 -0.0628 -0.1613 -1.0785
17434TIP3    H273718   2.873   4.281  13.727 -0.0727 -0.1602 -0.9755
17435TIP3   OH273719   5.329   0.128  12.900 -0.0011  0.3711  0.3622
17435TIP3    H173720   5.348   0.193  12.967  0.8624  1.3299 -0.7821
17435TIP3    H273721   5.287   0.178  12.829 -0.6497 -0.5730  0.0568
17436TIP3   OH273722   0.902   4.017   2.915  0.5388  0.2963 -0.0290
17436TIP3    H173723   0.833   4.032   2.850  0.3389  1.4321  0.4311
17436TIP3    H273724   0.857   4.017   2.999  1.0822  0.8935  0.2639
17437TIP3   OH273725   2.515   2.284   4.742 -0.0840  0.5721  0.0932
17437TIP3    H173726   2.445   2.341   4.772 -1.1637  1.0308 -2.9244
17437TIP3    H273727   2.478   2.196   4.746  0.0866  0.5253  0.8091
17438TIP3   OH273728   6.421   6.383  15.203 -0.7961 -0.2200  0.1485
17438TIP3    H173729   6.440   6.474  15.180 -0.2094  0.0551  1.5716
17438TIP3    H273730   6.362   6.389  15.278  0.8107 -0.9321  1.5472
17439TIP3   OH273731   3.052   3.275  14.880 -0.1501 -0.2070 -0.3785
17439TIP3    H173732   3.002   3.304  14.957  0.8657 -1.9941  1.0581
17439TIP3    H273733   2.997   3.209  14.839 -0.8950  1.0715 -1.5281
17440TIP3   OH273734   3.531   2.193   5.485 -0.0632 -0.0266  0.3995
17440TIP3    H173735   3.481   2.148   5.417 -0.6767  1.9120 -0.5261
17440TIP3    H273736   3.467   2.210   5.554 -0.7634  2.2743 -0.6983
17441TIP3   OH273737   1.070   2.424   2.089 -0.3346 -0.4608 -0.3206
17441TIP3    H173738   0.991   2.438   2.141 -0.1295 -0.1533 -0.0909
17441TIP3    H273739   1.095   2.511   2.059  1.2960 -0.1917  1.6078
17442TIP3   OH273740   5.360   0.993  15.913 -0.2582 -0.2325  0.2151
17442TIP3    H173741   5.364   1.050  15.836 -1.2490  0.1341  0.4287
17442TIP3    H273742   5.390   1.048  15.985 -0.0683 -0.3481  0.2262
17443TIP3   OH273743   0.724   3.668  17.146  0.1090  0.2594 -0.0176
17443TIP3    H173744   0.817   3.674  17.168  0.1623  1.2137 -0.4670
17443TIP3    H273745   0.690   3.757  17.156 -1.2445 -0.4123  2.1772
17444TIP3   OH273746   5.064   2.483  13.741 -0.6360 -0.5490  0.2069
17444TIP3    H173747   5.154   2.450  13.747 -0.1811  0.6812  0.3288
17444TIP3    H273748   5.012   2.421  13.792  0.3215 -0.5913  1.1463
17445TIP3   OH273749   0.507   1.468  11.804  0.6204 -0.2297  0.0848
17445TIP3    H173750   0.538   1.528  11.872 -0.0857  0.1891  0.0568
17445TIP3    H273751   0.426   1.431  11.840  0.2755 -0.0541 -0.4835
17446TIP3   OH273752   2.296   1.787   3.606  0.2887  0.5812 -0.6383
17446TIP3    H173753   2.317   1.808   3.697 -0.8269 -2.1891  0.3667
17446TIP3    H273754   2.280   1.872   3.565  0.2816  1.8912  1.8882
17447TIP3   OH273755   0.837   0.996   2.176  0.6370  0.5650  0.5698
17447TIP3    H173756   0.851   0.921   2.119 -1.3382  0.1963  0.5130
17447TIP3    H273757   0.919   1.046   2.170  1.4191 -0.7831 -0.5606
17448TIP3   OH273758   5.730   1.507   2.993 -0.2749 -0.6476 -0.3054
17448TIP3    H173759   5.693   1.514   2.905 -0.6874 -0.8544 -0.1479
17448TIP3    H273760   5.673   1.447   3.039 -1.6932  1.5141  0.9426
17449TIP3   OH273761   2.810   3.192   5.866  0.3894  0.4386 -0.5958
17449TIP3    H173762   2.872   3.119   5.872 -0.5216 -0.3880 -1.0865
17449TIP3    H273763   2.865   3.270   5.877  1.3281 -0.3160  0.3552
17450TIP3   OH273764   3.557   0.489   3.677 -0.2305 -0.7436 -0.2704
17450TIP3    H173765   3.595   0.470   3.591 -0.0562 -0.7048 -0.2026
17450TIP3    H273766   3.633   0.496   3.735 -0.3449 -0.7045 -0.1269
17451TIP3   OH273767   4.450   2.750  11.910  0.3045 -0.2943  0.4255
17451TIP3    H173768   4.495   2.802  11.844 -1.0687  0.7523  0.2776
17451TIP3    H273769   4.437   2.809  11.984 -0.2593 -0.7544  0.7064
17452TIP3   OH273770   2.407   6.183  16.942 -0.0148  0.4322 -0.0980
17452TIP3    H173771   2.345   6.113  16.923 -0.6833  1.0892 -0.3867
17452TIP3    H273772   2.363   6.237  17.007 -0.5014  1.8548 -1.5281
17453TIP3   OH273773   2.520   1.678   2.200 -0.3162 -0.1434 -0.7694
17453TIP3    H173774   2.597   1.632   2.233 -1.2449  0.3858  2.5530
17453TIP3    H273775   2.550   1.722   2.122  2.2244 -1.4659 -0.6517
17454TIP3   OH273776   2.875   4.573   2.512 -0.2574  0.1431 -0.2238
17454TIP3    H173777   2.903   4.502   2.570  0.5697  0.5657 -0.0961
17454TIP3    H273778   2.915   4.552   2.427  1.1566  1.1742  0.1636
17455TIP3   OH273779   6.596   4.593   5.690 -0.0068 -0.0409 -0.0447
17455TIP3    H173780   6.535   4.637   5.631  0.4014 -0.5299 -0.8558
17455TIP3    H273781   6.582   4.634   5.775  1.3303  2.6697 -1.0361
17456TIP3   OH273782   5.809   1.588   1.205 -0.4928 -0.0679 -0.5687
17456TIP3    H173783   5.762   1.634   1.135 -1.3904 -1.4621 -0.9193
17456TIP3    H273784   5.755   1.602   1.283 -0.9718 -0.8259 -0.7571
17457TIP3   OH273785   5.613   5.496   2.504 -0.0600  0.2899  0.6731
17457TIP3    H173786   5.708   5.483   2.501 -0.1504 -1.0171  2.4319
17457TIP3    H273787   5.576   5.409   2.491 -1.0458  0.7794  0.0130
17458TIP3   OH273788   1.836   6.369  10.808 -0.1585  0.5246  0.3962
17458TIP3    H173789   1.821   6.407  10.722 -0.3822 -0.2301  0.1005
17458TIP3    H273790   1.752   6.331  10.833  0.3881 -0.9268  0.1149
17459TIP3   OH273791   0.266   6.718   2.247 -0.1172 -0.1450  0.9043
17459TIP3    H173792   0.190   6.748   2.297 -0.6038  1.0847 -0.4921
17459TIP3    H273793   0.330   6.789   2.256  0.1637 -0.3577  0.5930
17460TIP3   OH273794   1.030   2.867  15.778  0.1209  0.0203  0.3412
17460TIP3    H173795   1.048   2.778  15.747 -1.6062  0.0172 -0.8290
17460TIP3    H273796   1.109   2.916  15.755  1.4625 -1.3298  1.7658
17461TIP3   OH273797   1.632   0.022   4.197 -0.3472  0.4477  0.2010
17461TIP3    H173798   1.610  -0.072   4.195  2.0231 -0.1737  0.5058
17461TIP3    H273799   1.661   0.037   4.287  0.3255  1.2188 -0.1444
17462TIP3   OH273800   1.762   3.630   3.501  0.3137 -0.2314  0.2530
17462TIP3    H173801   1.844   3.600   3.540  0.2518 -0.9121 -0.1097
17462TIP3    H273802   1.698   3.621   3.571  0.3477 -0.7382  0.2258
17463TIP3   OH273803   1.930   4.070  12.566 -0.2603  0.6726 -0.0531
17463TIP3    H173804   1.979   4.131  12.621  1.0853  0.2651 -0.7569
17463TIP3    H273805   1.977   3.987  12.574  1.1446  1.0061 -3.1806
17464TIP3   OH273806   1.955   1.473  11.106 -0.2550  0.1040  0.9428
17464TIP3    H173807   1.863   1.494  11.087 -1.4140 -4.2167  0.7850
17464TIP3    H273808   1.999   1.478  11.021 -0.4166  1.6316  0.9232
17465TIP3   OH273809   5.891   5.328   2.693  0.1521  0.0924  0.2495
17465TIP3    H173810   5.959   5.263   2.712  0.1371  0.3650  1.2672
17465TIP3    H273811   5.916   5.365   2.609 -0.2672 -1.7903 -0.7731
17466TIP3   OH273812   5.091   1.549   5.143  0.0680  0.7523  0.0148
17466TIP3    H173813   5.022   1.612   5.123  1.6869  2.3540 -0.6953
17466TIP3    H273814   5.147   1.549   5.066  1.1560 -0.1434  0.7759
17467TIP3   OH273815   4.969   0.518   1.074 -0.1993 -0.0583 -0.0915
17467TIP3    H173816   4.934   0.444   1.025 -1.1731  1.5443 -1.9725
17467TIP3    H273817   4.894   0.575   1.089  0.5506  0.6608  1.1785
17468TIP3   OH273818   1.850   4.655   0.136  0.7038  0.1486  0.1181
17468TIP3    H173819   1.872   4.748   0.127 -0.4540  0.3201 -1.3621
17468TIP3    H273820   1.836   4.625   0.046  2.2459 -1.7997  0.4611
17469TIP3   OH273821   1.641   1.189  13.879 -0.2873  0.6203  0.5883
17469TIP3    H173822   1.691   1.194  13.961  1.9731  0.9502 -0.7202
17469TIP3    H273823   1.689   1.127  13.825 -3.1229 -1.5494  0.3226
17470TIP3   OH273824   2.667   5.094   1.029 -0.3748  0.4465 -0.1903
17470TIP3    H173825   2.703   5.059   1.110  0.8488  0.1893 -0.8192
17470TIP3    H273826   2.651   5.017   0.974  0.7879  0.7435 -0.9681
17471TIP3   OH273827   2.231   3.647  14.123 -0.1147  0.2473 -0.2515
17471TIP3    H173828   2.226   3.567  14.176 -0.6598  1.2226  1.2415
17471TIP3    H273829   2.325   3.660  14.109  0.0238 -0.2179  0.1819
17472TIP3   OH273830   3.214   5.010   3.778 -0.0827  0.2012 -0.0421
17472TIP3    H173831   3.236   4.941   3.840  2.1455 -0.0419 -1.0430
17472TIP3    H273832   3.209   4.967   3.693 -1.4035  0.8277 -0.3130
17473TIP3   OH273833   5.627   0.873   4.839  0.4415  0.4324  0.3038
17473TIP3    H173834   5.538   0.855   4.870  0.7855  0.5133  1.3733
17473TIP3    H273835   5.672   0.789   4.847  0.3934  0.3199 -0.5131
17474TIP3   OH273836   5.051   0.677  14.094  0.5327 -0.2216  0.3280
17474TIP3    H173837   5.134   0.699  14.052  0.7588 -2.5147 -0.6113
17474TIP3    H273838   5.055   0.582  14.106 -0.7900 -0.0214  2.9066
17475TIP3   OH273839   1.543   1.027   1.769  0.4037 -0.3115  0.2189
17475TIP3    H173840   1.601   1.102   1.784 -0.0353 -0.2122  1.5843
17475TIP3    H273841   1.594   0.951   1.796  1.5841 -0.7982 -3.0405
17476TIP3   OH273842   5.552   1.926  16.434  0.2020  0.0953 -0.4234
17476TIP3    H173843   5.556   1.918  16.530  1.5266  2.5794 -0.2134
17476TIP3    H273844   5.461   1.952  16.416 -0.2149 -0.9467  0.0624
17477TIP3   OH273845   6.645   4.313   1.991 -0.1615 -0.0151 -0.1307
17477TIP3    H173846   6.678   4.235   2.036  2.6948  0.7957 -0.5961
17477TIP3    H273847   6.626   4.284   1.902  0.0847 -0.3614 -0.0712
17478TIP3   OH273848   6.408   5.440   2.112  0.1730  0.1578  0.1464
17478TIP3    H173849   6.399   5.534   2.127  2.3282  0.6222 -1.0519
17478TIP3    H273850   6.476   5.412   2.173 -1.5950 -1.0566  1.7023
17479TIP3   OH273851   1.109   4.163  13.997  0.2479  0.2211 -0.2502
17479TIP3    H173852   1.038   4.210  14.041 -0.0174 -0.4804  0.0765
17479TIP3    H273853   1.129   4.089  14.054  0.9527  0.1683 -0.5530
17480TIP3   OH273854   6.079   2.242  14.432 -0.1439  0.0061 -0.4884
17480TIP3    H173855   6.022   2.170  14.459  0.6098  0.3142  2.2086
17480TIP3    H273856   6.102   2.286  14.514 -1.0927  3.7493 -2.0075
17481TIP3   OH273857   4.015   1.646  16.080 -0.4559  0.0687  0.1508
17481TIP3    H173858   4.098   1.599  16.090 -0.9778 -1.2312 -1.1887
17481TIP3    H273859   4.035   1.714  16.015  0.0460  1.1186  1.3568
17482TIP3   OH273860   4.690   4.861   2.410 -0.5548  0.7779 -0.3373
17482TIP3    H173861   4.743   4.790   2.375  1.0924 -0.6091  4.1987
17482TIP3    H273862   4.735   4.941   2.381  0.8314 -0.2197 -1.0462
17483TIP3   OH273863   3.776   4.735  15.691  0.1671 -0.1919  0.0987
17483TIP3    H173864   3.722   4.761  15.765 -0.3487 -0.3621 -0.2115
17483TIP3    H273865   3.799   4.818  15.648  1.7202  0.0441  1.2789
17484TIP3   OH273866   4.949   1.230   4.033  0.2742  0.1814 -0.3241
17484TIP3    H173867   4.940   1.284   4.112  3.2256  0.9948 -0.3968
17484TIP3    H273868   4.909   1.282   3.964 -3.4581 -1.0684  0.6830
17485TIP3   OH273869   1.090   6.622   4.966 -0.2383  0.1059 -0.3591
17485TIP3    H173870   1.121   6.698   4.918  1.1733 -0.8222 -0.9790
17485TIP3    H273871   1.097   6.647   5.058 -3.9274  2.2774 -0.4932
17486TIP3   OH273872   3.264   0.400  13.449 -0.2255  0.1999 -0.2650
17486TIP3    H173873   3.237   0.327  13.505 -3.4358  1.9581  0.7455
17486TIP3    H273874   3.301   0.465  13.509  1.6932 -0.0948 -1.0309
17487TIP3   OH273875   3.662   3.303  11.508  0.3295  0.5555  0.0543
17487TIP3    H173876   3.583   3.253  11.528  3.1692 -3.7788  1.8431
17487TIP3    H273877   3.684   3.278  11.418  0.3000  0.9068 -0.0538
17488TIP3   OH273878   3.531   4.706  13.436  0.1167 -0.0028 -0.1334
17488TIP3    H173879   3.544   4.801  13.436  0.6126 -0.0691  0.7174
17488TIP3    H273880   3.619   4.669  13.434 -0.0147 -0.4394  1.1748
17489TIP3   OH273881   4.341   2.696   0.273 -0.3751 -0.9366 -0.1718
17489TIP3    H173882   4.356   2.708   0.179 -0.3286  0.4992 -0.0077
17489TIP3    H273883   4.385   2.614   0.295  1.2182 -0.3547 -1.0541
17490TIP3   OH273884   4.313   1.726   3.952 -0.2017 -0.1302 -0.0583
17490TIP3    H173885   4.340   1.729   3.860  0.4411  3.4882  0.1070
17490TIP3    H273886   4.392   1.695   3.998 -0.9310 -3.2816 -0.7090
17491TIP3   OH273887   1.665   3.893   3.433 -0.3906 -0.4637  0.4618
17491TIP3    H173888   1.753   3.859   3.449 -0.3149 -1.5231 -1.8289
17491TIP3    H273889   1.678   3.985   3.412  0.1330 -0.5132  0.5536
17492TIP3   OH273890   5.320   2.562  14.895  0.6065  0.0644  0.3671
17492TIP3    H173891   5.241   2.586  14.847  0.2919 -1.7901 -0.1138
17492TIP3    H273892   5.290   2.499  14.961  1.5451  0.0739  0.8200
17493TIP3   OH273893   2.647   2.805  14.157 -0.4394  0.1473  0.2154
17493TIP3    H173894   2.599   2.730  14.121  0.3504  0.5756 -1.8607
17493TIP3    H273895   2.650   2.868  14.085  0.3670  1.4887  1.3843
17494TIP3   OH273896   5.661   4.143  12.485 -0.3080  0.1664  0.2837
17494TIP3    H173897   5.724   4.200  12.442 -0.2433  1.0675  1.5517
17494TIP3    H273898   5.576   4.172  12.452 -0.1315 -0.7586 -1.0813
17495TIP3   OH273899   5.583   2.563  14.920  0.9031  0.4756 -0.1839
17495TIP3    H173900   5.490   2.578  14.902  1.3623  3.5710 -0.6659
17495TIP3    H273901   5.613   2.507  14.848 -1.0925 -3.2398  1.6369
17496TIP3   OH273902   2.243   5.542   1.639 -0.0954 -0.2491 -0.3928
17496TIP3    H173903   2.275   5.626   1.607  1.5639 -0.8749 -0.4478
17496TIP3    H273904   2.260   5.543   1.733 -0.5249 -0.3377 -0.3101
17497TIP3   OH273905   3.481   2.023  15.367 -0.2156  0.0402 -0.0000
17497TIP3    H173906   3.534   1.987  15.295 -0.3621  2.1606 -1.2590
17497TIP3    H273907   3.394   2.032  15.330 -0.9813 -1.3550  1.3651
17498TIP3   OH273908   3.926   6.605   5.657  0.2749 -0.1226  0.0586
17498TIP3    H173909   3.910   6.581   5.566  2.6396 -0.0167 -0.4557
17498TIP3    H273910   3.840   6.602   5.699 -0.6881 -1.3341 -1.8913
17499TIP3   OH273911   0.821   0.105   5.040  0.3649 -0.7728 -0.1294
17499TIP3    H173912   0.805   0.012   5.053 -0.2444 -0.8072 -1.0594
17499TIP3    H273913   0.798   0.145   5.124 -0.1261 -1.3686  0.0240
17500TIP3   OH273914   2.857   3.651   6.775  0.7748  0.3193 -0.7730
17500TIP3    H173915   2.799   3.725   6.789  0.1591 -0.0668 -1.2203
17500TIP3    H273916   2.899   3.669   6.691  0.8380  0.3014 -0.7453
17501TIP3   OH273917   3.370   0.783   1.400  0.0341 -0.3640 -0.2185
17501TIP3    H173918   3.419   0.825   1.470 -0.1512 -1.7125  0.7586
17501TIP3    H273919   3.314   0.852   1.364  0.7915  0.5561  0.3511
17502TIP3   OH273920   2.902   1.928  12.322  0.0343 -0.1407  0.0839
17502TIP3    H173921   2.962   1.990  12.365 -0.4390 -0.2224  0.8869
17502TIP3    H273922   2.929   1.927  12.230 -0.0580  1.3800  0.0263
17503TIP3   OH273923   3.550   3.472   4.448 -0.2393 -0.2828  0.0224
17503TIP3    H173924   3.611   3.480   4.375 -0.9813 -0.4078 -0.6257
17503TIP3    H273925   3.556   3.556   4.494 -0.4859  0.1657 -0.7557
17504TIP3   OH273926   1.580   0.148  11.892  0.1185  0.2818  0.6028
17504TIP3    H173927   1.663   0.103  11.879 -0.2639 -0.6095  1.1112
17504TIP3    H273928   1.525   0.084  11.938 -1.4891  0.1306 -1.3732
17505TIP3   OH273929   3.866   2.154   2.136 -0.0579 -0.6870  0.1332
17505TIP3    H173930   3.934   2.171   2.070  0.3078 -1.2365  0.3615
17505TIP3    H273931   3.842   2.241   2.167  1.2889 -0.5199  0.7833
17506TIP3   OH273932   1.166   6.678  11.512  0.3669 -0.7694 -0.4059
17506TIP3    H173933   1.072   6.693  11.528 -0.2216 -0.5761 -3.4417
17506TIP3    H273934   1.209   6.758  11.542 -0.3606 -0.9107  1.1568
17507TIP3   OH273935   0.984   2.414  15.234 -0.6795  0.6126 -0.2023
17507TIP3    H173936   0.925   2.483  15.205 -0.7468  0.2889 -0.8463
17507TIP3    H273937   1.040   2.396  15.158  0.3269  0.9903  0.4326
17508TIP3   OH273938   4.820   4.213  14.257  0.1001  0.0439  0.2498
17508TIP3    H173939   4.893   4.192  14.315  1.2868  1.5296 -0.6449
17508TIP3    H273940   4.848   4.182  14.171  1.1273  3.3611 -0.7445
17509TIP3   OH273941   6.201   4.838   0.391  0.8890  0.3532 -0.0316
17509TIP3    H173942   6.198   4.767   0.455  1.7992 -0.3299 -0.7259
17509TIP3    H273943   6.129   4.820   0.331 -1.5098  2.2768  2.0328
17510TIP3   OH273944   1.795   5.008  12.936  0.1212 -0.4382  0.0366
17510TIP3    H173945   1.773   5.024  12.844  2.0650 -0.7741 -0.5350
17510TIP3    H273946   1.786   5.093  12.979  0.7448  0.0672 -0.8177
17511TIP3   OH273947   5.664   4.773   2.394  0.4391 -0.1409  0.2197
17511TIP3    H173948   5.608   4.775   2.472  0.1860  0.5327  0.0285
17511TIP3    H273949   5.609   4.733   2.326  1.4840 -3.1324  0.9839
17512TIP3   OH273950   2.158   4.764  12.786 -0.5994  0.2101  0.1676
17512TIP3    H173951   2.147   4.839  12.727 -2.0440 -1.0963 -1.3105
17512TIP3    H273952   2.134   4.798  12.872 -1.7498  1.3459 -0.5612
17513TIP3   OH273953   2.167   2.306  11.200 -0.3492  0.3865  0.0415
17513TIP3    H173954   2.113   2.331  11.125 -1.3278  0.2295  0.6829
17513TIP3    H273955   2.105   2.273  11.265  0.6214 -0.8646  0.3742
17514TIP3   OH273956   2.323   0.890  13.988  0.0435 -0.3388  0.3881
17514TIP3    H173957   2.274   0.962  14.028 -1.5222  0.0764 -2.0112
17514TIP3    H273958   2.255   0.828  13.960  1.3387 -2.7679  2.2643
17515TIP3   OH273959   3.824   1.480  15.127  0.0003 -0.1560 -0.3900
17515TIP3    H173960   3.915   1.511  15.128  0.1088 -0.4733  0.1045
17515TIP3    H273961   3.809   1.454  15.037  0.6727 -0.8764 -0.3024
17516TIP3   OH273962   6.411   3.919  13.867  0.1604 -0.5823  0.5731
17516TIP3    H173963   6.440   3.982  13.800 -1.2529 -1.2837 -0.7508
17516TIP3    H273964   6.455   3.948  13.947 -1.3767  2.8434  0.3385
17517TIP3   OH273965   5.572   4.583   4.652  0.0570  0.1029  0.1897
17517TIP3    H173966   5.535   4.660   4.694  0.5701 -0.4731  1.7645
17517TIP3    H273967   5.657   4.570   4.695  1.1449  0.1201 -1.8194
17518TIP3   OH273968   3.977   3.374  13.205 -0.0646 -0.4127 -0.3580
17518TIP3    H173969   4.023   3.408  13.281  0.4239 -0.3103 -0.6908
17518TIP3    H273970   4.046   3.336  13.150 -0.3378  0.0181 -1.0098
17519TIP3   OH273971   5.451   2.537  12.961  0.0182  0.0207 -0.3197
17519TIP3    H173972   5.404   2.598  13.017 -1.3033  0.4876 -1.8801
17519TIP3    H273973   5.392   2.462  12.951  1.4989 -1.4581  1.3326
17520TIP3   OH273974   4.014   3.194   3.483 -0.3188  0.3017 -0.1057
17520TIP3    H173975   4.057   3.268   3.525  0.0606  0.0522 -0.0534
17520TIP3    H273976   4.014   3.217   3.390  0.1490  0.1900 -0.1342
17521TIP3   OH273977   0.951   5.057  12.153 -0.0352  0.4578 -0.2663
17521TIP3    H173978   0.869   5.009  12.154 -2.5453  4.3061  0.2722
17521TIP3    H273979   0.976   5.064  12.246 -0.1046  0.8327 -0.2744
17522TIP3   OH273980   3.244   0.379   4.885 -0.3884 -0.6028  0.0448
17522TIP3    H173981   3.202   0.307   4.932 -0.5230 -0.4641  0.1380
17522TIP3    H273982   3.223   0.363   4.793  0.6250 -1.3732 -0.0672
17523TIP3   OH273983   3.781   1.565  11.156 -0.0651  0.0877 -0.3983
17523TIP3    H173984   3.769   1.566  11.251  0.6021 -0.5054 -0.3003
17523TIP3    H273985   3.703   1.519  11.123 -0.1939  0.1005 -0.1184
17524TIP3   OH273986   2.732   0.000   1.167 -0.4484  0.7564 -0.5432
17524TIP3    H173987   2.700  -0.090   1.164 -1.9210  1.2089  0.0922
17524TIP3    H273988   2.818  -0.003   1.126  1.0641 -1.5519  2.4354
17525TIP3   OH273989   6.439   0.306   3.414 -0.6196 -0.6218 -0.3999
17525TIP3    H173990   6.524   0.264   3.402  0.1130  0.3593  0.9904
17525TIP3    H273991   6.424   0.302   3.509 -1.7556 -0.0859 -0.5412
17526TIP3   OH273992   2.651   3.021   3.797 -0.2780 -1.2629 -0.2375
17526TIP3    H173993   2.620   3.043   3.709 -0.6698  0.3794  0.2710
17526TIP3    H273994   2.655   2.926   3.798 -0.1328 -1.3097 -2.0747
17527TIP3   OH273995   6.539   2.216   2.114 -0.0580 -0.3721 -0.0343
17527TIP3    H173996   6.578   2.229   2.028 -0.4442 -0.7734 -0.2741
17527TIP3    H273997   6.609   2.176   2.166  0.5949  1.0660  0.2260
17528TIP3   OH273998   5.925   3.018  12.022 -0.2289 -0.4987  0.3407
17528TIP3    H173999   5.843   2.991  11.980  0.8780 -1.5069 -1.3246
17528TIP3    H274000   5.959   2.937  12.061  0.6487 -0.4268 -0.2411
17529TIP3   OH274001   2.447   0.621  13.927 -0.6955 -0.4182  0.2645
17529TIP3    H174002   2.443   0.671  13.845 -0.7241  1.1139  1.1562
17529TIP3    H274003   2.455   0.688  13.995  0.8891 -1.7113  1.4170
17530TIP3   OH274004   2.506   1.567   2.792  0.6022 -0.3319 -0.3231
17530TIP3    H174005   2.533   1.484   2.832 -0.2696 -0.2591  0.4418
17530TIP3    H274006   2.493   1.545   2.700 -1.4664 -1.5495  0.1880
17531TIP3   OH274007   5.323   1.297  13.550  0.5581 -0.0922  0.3092
17531TIP3    H174008   5.263   1.334  13.615  1.2413  1.1402  0.2654
17531TIP3    H274009   5.389   1.251  13.602  0.2490 -0.4279  0.4090
17532TIP3   OH274010   3.098   2.670  13.817 -0.5273 -0.0925  0.7773
17532TIP3    H174011   3.050   2.587  13.815  1.1967 -1.2080 -2.5095
17532TIP3    H274012   3.161   2.659  13.888 -1.0668 -1.1259  1.1317
17533TIP3   OH274013   1.798   6.076   2.300 -0.1953 -0.0037  0.4617
17533TIP3    H174014   1.834   6.095   2.213 -3.3907  0.0086 -1.0240
17533TIP3    H274015   1.794   6.161   2.344 -2.8119  0.9288 -1.2994
17534TIP3   OH274016   5.751   5.219   6.475  0.5250  0.3577 -0.2042
17534TIP3    H174017   5.698   5.145   6.504  0.6735  0.7896  1.2893
17534TIP3    H274018   5.840   5.185   6.472  0.3386 -0.0610 -1.5870
17535TIP3   OH274019   3.995   3.480  14.376 -0.3716  0.4859 -0.4001
17535TIP3    H174020   4.076   3.458  14.330  0.2338  1.8119 -0.0245
17535TIP3    H274021   3.929   3.486  14.306  0.3052  1.4100 -0.9796
17536TIP3   OH274022   6.169   0.939  11.482 -0.1276 -0.0763 -0.4124
17536TIP3    H174023   6.139   0.971  11.567 -1.7306 -0.3775 -0.8427
17536TIP3    H274024   6.107   0.975  11.419  0.7191 -0.3042 -1.4024
17537TIP3   OH274025   2.628   4.252  16.421 -0.1901  0.7193  0.4775
17537TIP3    H174026   2.702   4.200  16.452 -1.3933 -1.7113 -0.4046
17537TIP3    H274027   2.667   4.325  16.374  1.7098 -1.0613 -0.9031
17538TIP3   OH274028   6.236   5.741  11.507 -0.2055 -0.5403 -0.0788
17538TIP3    H174029   6.278   5.722  11.591  0.6734  3.0420  0.4332
17538TIP3    H274030   6.306   5.734  11.443 -0.2952 -0.7046 -0.1616
17539TIP3   OH274031   0.143   4.212  16.804 -0.0298 -0.0124 -0.7064
17539TIP3    H174032   0.197   4.170  16.872 -1.1940 -0.7623 -0.2043
17539TIP3    H274033   0.141   4.148  16.733 -1.8761 -0.9282  0.0915
17540TIP3   OH274034   0.946   5.911   4.406 -0.2237 -0.1364 -0.3862
17540TIP3    H174035   1.001   5.857   4.349 -1.2990 -0.0312 -1.5670
17540TIP3    H274036   0.989   5.907   4.492 -0.3040 -2.8845 -0.4135
17541TIP3   OH274037   0.387   0.293   1.761  0.0656 -0.1310 -0.4154
17541TIP3    H174038   0.453   0.224   1.759  0.1862 -0.1362  1.5535
17541TIP3    H274039   0.384   0.320   1.853  0.4007  2.8712 -1.1838
17542TIP3   OH274040   5.991   1.222   3.290  0.5335 -0.0024 -0.2846
17542TIP3    H174041   6.029   1.143   3.253  1.2144 -0.3799  1.1811
17542TIP3    H274042   5.904   1.228   3.249  0.6800 -1.2077 -0.8015
17543TIP3   OH274043   3.249   0.576  11.928  0.5037 -0.3609  0.5669
17543TIP3    H174044   3.248   0.510  11.997 -0.3344 -0.0050  0.9040
17543TIP3    H274045   3.308   0.540  11.862  0.5435 -1.1629  1.0258
17544TIP3   OH274046   5.110   2.503  15.721 -0.0602  0.3933 -0.0486
17544TIP3    H174047   5.038   2.452  15.685  0.4366 -0.6822  0.4459
17544TIP3    H274048   5.072   2.544  15.799 -0.9337  2.1664 -1.3380
17545TIP3   OH274049   6.284   5.306  12.096 -0.3655  0.3712 -0.2433
17545TIP3    H174050   6.233   5.232  12.063 -0.2407  0.1758  0.0003
17545TIP3    H274051   6.357   5.265  12.143 -0.6572  0.6443  0.4596
17546TIP3   OH274052   6.052   4.868   4.935  0.5353 -0.6411  0.6716
17546TIP3    H174053   6.072   4.808   5.007  0.3960 -0.8808  0.5115
17546TIP3    H274054   5.957   4.861   4.923  0.6980 -1.4471 -0.2675
17547TIP3   OH274055   0.280   3.379  10.846 -0.2390  0.1867  0.2423
17547TIP3    H174056   0.326   3.458  10.818 -1.9169  0.9009 -0.5986
17547TIP3    H274057   0.277   3.386  10.942  3.9229 -1.3723  0.7103
17548TIP3   OH274058   0.676   5.636   6.297 -0.5142 -0.1140  0.1397
17548TIP3    H174059   0.604   5.574   6.289  0.0295 -0.9544  1.3518
17548TIP3    H274060   0.753   5.581   6.313  0.4852  0.7349 -1.4786
17549TIP3   OH274061   0.232   0.258  15.896  0.3362 -0.0750  0.3008
17549TIP3    H174062   0.199   0.216  15.817 -3.6533  1.8835  0.6709
17549TIP3    H274063   0.226   0.191  15.964 -0.8535 -0.4404 -0.1491
17550TIP3   OH274064   5.436   2.627   2.444 -0.2692  0.0066 -0.5601
17550TIP3    H174065   5.514   2.572   2.443  0.2180  0.4989  2.0912
17550TIP3    H274066   5.368   2.573   2.483 -0.7723  0.1434 -1.2372
17551TIP3   OH274067   5.719   0.906  11.562  0.3180 -0.3842 -0.3668
17551TIP3    H174068   5.778   0.884  11.490  1.4803 -1.0624  0.7616
17551TIP3    H274069   5.763   0.976  11.609  0.7677 -1.5658  1.0678
17552TIP3   OH274070   0.733   6.506  14.674 -0.1865  0.7098  0.0981
17552TIP3    H174071   0.794   6.540  14.610  0.8464  1.1625  1.2752
17552TIP3    H274072   0.783   6.439  14.722 -0.5591  1.1564  1.1464
17553TIP3   OH274073   6.234   1.810  16.569  0.9267  0.8907 -0.1046
17553TIP3    H174074   6.274   1.885  16.526 -0.3309  1.2442 -0.7166
17553TIP3    H274075   6.141   1.832  16.572  0.7540  0.1016  1.2494
17554TIP3   OH274076   1.912   6.374   4.038  0.5568 -0.1861 -0.0870
17554TIP3    H174077   1.879   6.334   3.957  0.8934 -1.4549  0.3807
17554TIP3    H274078   1.878   6.319   4.108  0.2140  0.9368  0.6709
17555TIP3   OH274079   0.299   5.159  10.973  0.2988  0.1310 -0.5463
17555TIP3    H174080   0.386   5.120  10.983 -0.1243 -0.9456 -0.9246
17555TIP3    H274081   0.239   5.085  10.976 -0.4422  0.5859 -2.5886
17556TIP3   OH274082   3.062   0.621   5.107 -0.1768  0.5639  0.7701
17556TIP3    H174083   2.970   0.642   5.116 -0.8839 -2.0878  0.6110
17556TIP3    H274084   3.080   0.559   5.178  0.9998 -0.2918 -0.2091
17557TIP3   OH274085   1.977   4.193  14.230  0.6657  0.0686 -0.0749
17557TIP3    H174086   2.073   4.186  14.231  0.5617 -2.3300 -1.5890
17557TIP3    H274087   1.950   4.155  14.147 -1.6891 -0.2177  0.7442
17558TIP3   OH274088   6.573   6.303  11.553  0.3548 -0.0843  0.5218
17558TIP3    H174089   6.627   6.345  11.485  2.2528 -0.2877  1.8221
17558TIP3    H274090   6.603   6.212  11.555  0.5819  0.0063  1.8594
17559TIP3   OH274091   1.459   2.189   3.867  0.0417 -0.3649 -0.0490
17559TIP3    H174092   1.455   2.205   3.961 -1.5488  0.2933 -0.1967
17559TIP3    H274093   1.441   2.095   3.858  0.4005 -0.4695  0.3094
17560TIP3   OH274094   4.405   1.066  11.030  0.0668  0.3494  0.4856
17560TIP3    H174095   4.375   1.068  10.939 -0.5400 -0.0675  0.6710
17560TIP3    H274096   4.430   0.975  11.046  0.3906  0.4669  0.6694
17561TIP3   OH274097   4.453   4.641   4.107  0.4647  0.3347 -0.2961
17561TIP3    H174098   4.363   4.634   4.076  0.2186 -1.4934  0.6846
17561TIP3    H274099   4.450   4.707   4.176 -0.0785  0.4072 -0.3884
17562TIP3   OH274100   3.203   1.409  14.012  0.5006  0.2124 -0.7013
17562TIP3    H174101   3.225   1.439  14.100 -1.2197  0.4382 -0.3192
17562TIP3    H274102   3.174   1.488  13.967 -2.8919 -0.5423 -0.0633
17563TIP3   OH274103   3.333   0.807  12.479  0.2836 -0.7292 -0.3689
17563TIP3    H174104   3.353   0.855  12.560 -0.9486  0.4868 -0.7493
17563TIP3    H274105   3.242   0.781  12.489 -0.6226  1.3699 -2.2397
17564TIP3   OH274106   3.053   0.674   2.679  0.2546  0.4438 -0.0595
17564TIP3    H174107   3.046   0.760   2.637  1.2225 -0.6397 -2.6442
17564TIP3    H274108   3.036   0.612   2.608 -0.7602 -1.5293  1.8169
17565TIP3   OH274109   6.191   5.286  15.169  0.2000  0.0171 -0.3257
17565TIP3    H174110   6.118   5.302  15.230  0.4522  2.7044 -0.6057
17565TIP3    H274111   6.247   5.223  15.215 -0.5414  0.5698  1.4498
17566TIP3   OH274112   1.338   2.588  11.625 -0.5572 -0.0350 -0.8489
17566TIP3    H174113   1.323   2.584  11.719 -0.2687  1.3960 -0.7256
17566TIP3    H274114   1.432   2.607  11.616 -0.3492 -1.2280 -1.4631
17567TIP3   OH274115   6.180   1.118  13.771  0.5461 -0.4996 -0.5148
17567TIP3    H174116   6.117   1.092  13.838 -1.7488  0.9073 -2.0043
17567TIP3    H274117   6.203   1.208  13.794  1.7497 -0.8474 -0.2447
17568TIP3   OH274118   2.953   6.099  15.450 -0.4227 -0.1759  0.2155
17568TIP3    H174119   3.044   6.129  15.450 -1.1426  2.2135  0.2879
17568TIP3    H274120   2.938   6.066  15.362  0.1880  0.4511 -0.1268
17569TIP3   OH274121   3.844   5.859  13.423 -0.5984  0.0182  0.4826
17569TIP3    H174122   3.868   5.853  13.331 -0.3044 -0.4195  0.5837
17569TIP3    H274123   3.832   5.952  13.440 -0.8909  0.0819 -0.0573
17570TIP3   OH274124   2.715   1.189  12.067 -0.0664  0.1960  0.2261
17570TIP3    H174125   2.729   1.154  11.979 -1.7567  0.2571 -0.0952
17570TIP3    H274126   2.711   1.284  12.054 -2.2348  0.1394  0.0027
17571TIP3   OH274127   5.629   5.619   0.423  0.1075  0.2842  0.4350
17571TIP3    H174128   5.694   5.554   0.395  0.9854  1.8312 -1.3578
17571TIP3    H274129   5.572   5.631   0.347 -0.1810  1.4099  0.8043
17572TIP3   OH274130   4.565   2.204   5.634  0.2557  0.1638 -0.6084
17572TIP3    H174131   4.609   2.193   5.719 -0.0184 -0.2766 -0.5187
17572TIP3    H274132   4.621   2.158   5.572  0.3901  0.3784 -0.6490
17573TIP3   OH274133   5.285   0.348  13.277 -0.8236  0.6816 -0.1606
17573TIP3    H174134   5.305   0.418  13.339 -1.5498  1.2444 -0.5428
17573TIP3    H274135   5.288   0.390  13.191 -2.6293  0.5961 -0.3071
17574TIP3   OH274136   2.155   1.892   0.384  0.5231  0.1608  0.0055
17574TIP3    H174137   2.224   1.917   0.322 -0.1311  3.0618  0.2687
17574TIP3    H274138   2.201   1.875   0.466  1.2267 -1.9498 -0.7679
17575TIP3   OH274139   5.963   3.423  11.957  0.4637  0.0608  0.0436
17575TIP3    H174140   6.044   3.469  11.974  0.6076 -0.1728 -0.0013
17575TIP3    H274141   5.895   3.477  11.997  0.4550  1.1112 -1.3325
17576TIP3   OH274142   3.950   0.330   1.827 -0.3142 -0.4339  0.2415
17576TIP3    H174143   3.994   0.261   1.777 -0.6241 -0.7249  0.3797
17576TIP3    H274144   3.968   0.310   1.918 -0.6819 -0.5145  0.2961
17577TIP3   OH274145   5.496   0.987  15.213 -0.5333 -0.9337  0.1552
17577TIP3    H174146   5.476   1.061  15.156 -0.8265 -1.0749  0.0763
17577TIP3    H274147   5.588   0.967  15.194 -0.1148  0.1273  0.9989
17578TIP3   OH274148   2.563   2.194  14.359 -0.0473  0.2182  0.5446
17578TIP3    H174149   2.554   2.289  14.361 -2.5254  0.0531  2.7682
17578TIP3    H274150   2.590   2.170  14.448 -0.2169 -1.2058  0.2349
17579TIP3   OH274151   3.000   5.668   0.588 -0.1044  0.1741 -0.5022
17579TIP3    H174152   2.925   5.609   0.589  0.3514 -0.4036  0.7898
17579TIP3    H274153   2.964   5.751   0.554 -0.9764 -0.5091 -1.3211
17580TIP3   OH274154   2.642   2.963   5.415 -0.0390 -0.0365  0.3461
17580TIP3    H174155   2.561   2.938   5.460  0.3245 -0.5989  0.7064
17580TIP3    H274156   2.707   2.898   5.445  0.2901 -0.2447 -0.7611
17581TIP3   OH274157   0.271   3.679   1.979 -1.2215  0.0222  0.5526
17581TIP3    H174158   0.334   3.727   2.032 -1.1645  0.5139  0.0422
17581TIP3    H274159   0.200   3.741   1.964 -0.9741  0.0881 -0.4351
17582TIP3   OH274160   4.608   3.816  11.349 -0.3040  0.0118 -0.2312
17582TIP3    H174161   4.548   3.751  11.314  0.9690 -1.5712  0.4066
17582TIP3    H274162   4.693   3.792  11.312  0.4193  0.4926  1.0627
17583TIP3   OH274163   4.646   0.129  15.461  0.2360 -0.5200 -0.1566
17583TIP3    H174164   4.699   0.154  15.386 -0.9913  1.0396 -0.5556
17583TIP3    H274165   4.657   0.200  15.523  0.1033 -1.1108  0.5608
17584TIP3   OH274166   0.805   1.946   0.373 -0.1224 -0.1340 -0.0066
17584TIP3    H174167   0.749   2.008   0.325  0.4533 -0.1733 -0.7350
17584TIP3    H274168   0.765   1.941   0.460 -1.0479  0.1139 -0.4036
17585TIP3   OH274169   2.163   4.323   5.263 -0.0909 -0.5139 -0.1556
17585TIP3    H174170   2.241   4.267   5.264  1.5661  1.6125  1.8693
17585TIP3    H274171   2.190   4.401   5.215 -1.8301 -0.7352 -1.5699
17586TIP3   OH274172   0.112   0.425  17.164 -0.4630  0.4897  0.2943
17586TIP3    H174173   0.083   0.507  17.205 -0.3822  0.3741  0.5882
17586TIP3    H274174   0.200   0.443  17.131  0.2565  0.0400  1.8605
17587TIP3   OH274175   3.924   3.855   1.523  0.4607  0.1601 -0.3688
17587TIP3    H174176   3.868   3.826   1.451  0.6665 -0.6686 -0.2102
17587TIP3    H274177   3.997   3.793   1.523  1.3889  1.2266 -0.5773
17588TIP3   OH274178   2.514   2.581   2.262 -0.3160  0.2578  0.5740
17588TIP3    H174179   2.591   2.618   2.304 -0.1735  2.7065 -1.6207
17588TIP3    H274180   2.440   2.631   2.298 -0.2942  1.6056 -1.1392
17589TIP3   OH274181   5.410   6.055   3.916 -0.1910 -0.0535 -0.5261
17589TIP3    H174182   5.424   5.961   3.927 -0.7920  0.0093  0.9944
17589TIP3    H274183   5.472   6.081   3.848 -0.3309 -1.6246 -1.2937
17590TIP3   OH274184   6.303   1.183   0.630 -0.5503 -0.1612  0.1765
17590TIP3    H174185   6.263   1.258   0.673 -0.0295 -1.5841  3.4643
17590TIP3    H274186   6.230   1.137   0.588 -0.9747  1.6887 -1.2207
17591TIP3   OH274187   3.756   1.612  13.359  0.4897 -0.2746  0.0904
17591TIP3    H174188   3.689   1.556  13.398  1.3277 -1.1419  0.3008
17591TIP3    H274189   3.709   1.659  13.289 -0.5718 -0.0955  0.8839
17592TIP3   OH274190   2.242   3.580   3.681  0.0431  0.1927  0.3683
17592TIP3    H174191   2.281   3.522   3.616 -1.4396 -0.2482 -0.1807
17592TIP3    H274192   2.176   3.629   3.632 -0.6013  0.3688  1.3922
17593TIP3   OH274193   1.984   4.895   4.904  0.2120 -0.1929  0.0637
17593TIP3    H174194   1.938   4.959   4.849  0.3901 -0.1302 -0.0115
17593TIP3    H274195   2.076   4.909   4.885  0.2092 -1.1780 -0.7266
17594TIP3   OH274196   3.119   3.097  15.439  0.1449 -0.0457  0.5933
17594TIP3    H174197   3.199   3.131  15.479  0.9160  1.0983 -1.7329
17594TIP3    H274198   3.147   3.017  15.394 -0.7008 -1.2967  2.1692
17595TIP3   OH274199   0.156   3.973  15.215 -0.3730 -0.2562  0.5303
17595TIP3    H174200   0.174   4.054  15.167  0.5602 -0.4433  0.5368
17595TIP3    H274201   0.201   3.985  15.299 -0.5422 -0.6330  0.6754
17596TIP3   OH274202   5.266   1.052  15.336 -0.6213 -0.1369 -0.7854
17596TIP3    H174203   5.263   0.985  15.405  0.9003  0.3353 -0.2180
17596TIP3    H274204   5.353   1.044  15.299 -0.3130  1.6838 -0.5441
17597TIP3   OH274205   1.687   1.914  13.874 -0.2948  0.2635  0.2046
17597TIP3    H174206   1.773   1.879  13.849 -0.0946 -0.5432  1.8620
17597TIP3    H274207   1.630   1.890  13.801  0.8388  0.6776 -0.8559
17598TIP3   OH274208   2.725   0.472  13.886  0.6284 -0.1808 -0.5074
17598TIP3    H174209   2.807   0.500  13.928 -0.2529  1.4390  0.2252
17598TIP3    H274210   2.722   0.522  13.804 -0.0766  0.5035 -0.0729
17599TIP3   OH274211   6.741   5.918  12.089  0.0681  0.3498  0.4288
17599TIP3    H174212   6.829   5.925  12.127  0.4391  1.8489 -0.5912
17599TIP3    H274213   6.757   5.915  11.995 -1.0008  1.6357  0.1822
17600TIP3   OH274214   0.134   0.856   3.480  0.6868  1.0860 -0.0126
17600TIP3    H174215   0.092   0.941   3.489 -1.3879  0.2346 -0.9502
17600TIP3    H274216   0.065   0.793   3.499  1.4900 -0.4140 -1.7226
17601TIP3   OH274217   2.701   6.647   1.816  0.4175  0.0673 -0.0582
17601TIP3    H174218   2.691   6.633   1.910 -3.0752 -0.9531 -0.4226
17601TIP3    H274219   2.753   6.727   1.809 -0.4271  0.9915  2.8045
17602TIP3   OH274220   2.623   2.052  14.617 -0.5144  0.1078  0.3206
17602TIP3    H174221   2.542   2.018  14.581 -0.3411 -0.7716  0.7117
17602TIP3    H274222   2.597   2.093  14.699 -1.1282  3.4240 -1.3884
17603TIP3   OH274223   5.026   1.151  11.581 -0.0718  0.3160  0.3093
17603TIP3    H174224   4.958   1.211  11.548 -2.5819 -2.1178  0.6799
17603TIP3    H274225   5.034   1.084  11.514 -1.1678 -1.6573  2.0219
17604TIP3   OH274226   2.683   3.895  14.944  0.5586  0.2454  0.0103
17604TIP3    H174227   2.680   3.987  14.970  0.4259  0.5089 -0.9123
17604TIP3    H274228   2.601   3.880  14.898 -0.3378 -0.8840  1.8547
17605TIP3   OH274229   4.586   5.397  11.084  0.1060 -0.3082  0.1439
17605TIP3    H174230   4.570   5.303  11.072 -1.5985 -0.0153 -0.1210
17605TIP3    H274231   4.584   5.434  10.996 -1.7063  0.2964  0.3900
17606TIP3   OH274232   2.231   0.613   1.530  0.3372  0.4379  0.2358
17606TIP3    H174233   2.163   0.668   1.490 -0.6170 -0.4016  0.6506
17606TIP3    H274234   2.182   0.543   1.573  1.4840 -0.1967  0.5343
17607TIP3   OH274235   2.752   3.190   4.798  0.1869  0.2940  0.0421
17607TIP3    H174236   2.826   3.134   4.773 -0.5439 -0.5483 -0.2636
17607TIP3    H274237   2.726   3.160   4.885  1.6065  2.0782  1.1641
17608TIP3   OH274238   4.607   3.157   3.396 -0.5992 -0.0975  0.0507
17608TIP3    H174239   4.632   3.075   3.354 -0.0357 -0.1713  0.5208
17608TIP3    H274240   4.519   3.140   3.431 -1.1970  0.0549 -1.3095
17609TIP3   OH274241   5.612   1.214   2.758 -0.5719  0.1713  0.2937
17609TIP3    H174242   5.675   1.177   2.696  2.1078 -0.5821  3.1701
17609TIP3    H274243   5.589   1.299   2.720 -0.2348 -0.8153 -2.3551
17610TIP3   OH274244   1.571   0.689   5.845 -0.2647 -0.5865 -0.0276
17610TIP3    H174245   1.534   0.705   5.758 -0.3284 -1.1307 -0.0994
17610TIP3    H274246   1.659   0.728   5.841  1.0413 -3.3903 -1.4212
17611TIP3   OH274247   4.591   0.720  13.967 -0.6677 -0.0439 -0.0874
17611TIP3    H174248   4.682   0.744  13.947 -0.7234 -0.0160 -0.3104
17611TIP3    H274249   4.592   0.624  13.967  0.2731 -0.2163  3.9635
17612TIP3   OH274250   2.840   0.127   1.789  0.0682 -0.6887  0.1575
17612TIP3    H174251   2.920   0.112   1.737  0.5477  0.0934  0.6530
17612TIP3    H274252   2.793   0.195   1.742 -0.1554 -0.9225  0.0399
17613TIP3   OH274253   6.298   1.347  12.286  0.1104  0.2417 -0.4117
17613TIP3    H174254   6.390   1.348  12.260 -0.0706  0.2552 -1.0582
17613TIP3    H274255   6.256   1.410  12.228 -0.3266  0.1495 -0.1943
17614TIP3   OH274256   3.400   5.706  17.159 -0.2667  0.4280  0.5441
17614TIP3    H174257   3.471   5.724  17.221  1.4764  2.4094 -1.7939
17614TIP3    H274258   3.320   5.730  17.205  0.9309  1.7016  2.0739
17615TIP3   OH274259   1.731   1.761  16.112  0.2056 -0.6373  0.0555
17615TIP3    H174260   1.810   1.779  16.060  0.4247  0.2925  0.6891
17615TIP3    H274261   1.676   1.838  16.099 -0.0684 -0.7400  0.5941
17616TIP3   OH274262   0.869   2.016  13.433  0.0876 -0.7278  0.4385
17616TIP3    H174263   0.809   2.046  13.501  0.1597 -0.5515  0.4234
17616TIP3    H274264   0.812   1.974  13.368 -0.1694  0.5475 -0.1956
17617TIP3   OH274265   2.131   5.988   2.029 -0.0288  0.8993 -0.3266
17617TIP3    H174266   2.082   5.959   1.952  0.1222 -3.3584  0.9128
17617TIP3    H274267   2.221   5.998   1.998 -0.4792  2.3135 -1.2684
17618TIP3   OH274268   4.410   4.946  12.677 -0.4694  0.5154 -0.1340
17618TIP3    H174269   4.497   4.914  12.652 -0.3240  0.0131  0.9362
17618TIP3    H274270   4.349   4.881  12.643 -0.2679 -0.2155  0.8245
17619TIP3   OH274271   0.753   5.537  14.144 -0.4029 -0.0667  0.6122
17619TIP3    H174272   0.690   5.482  14.098  0.5515 -0.7340  0.0696
17619TIP3    H274273   0.814   5.476  14.184  0.0339  0.5739  0.9471
17620TIP3   OH274274   2.476   3.760  12.517  0.1944  0.1618  0.2590
17620TIP3    H174275   2.452   3.746  12.426 -3.1159 -1.9016  1.2882
17620TIP3    H274276   2.417   3.831  12.546  0.5390  0.1388  1.0295
17621TIP3   OH274277   3.544   3.879  13.520 -0.4581 -0.8968 -0.4048
17621TIP3    H174278   3.528   3.895  13.613 -0.4376  0.0945 -0.5557
17621TIP3    H274279   3.630   3.838  13.517  0.1985  0.4149 -0.0729
17622TIP3   OH274280   2.636   0.671   3.015  0.3635 -0.3978  0.0533
17622TIP3    H174281   2.730   0.654   3.012  0.6973  1.3411 -1.0828
17622TIP3    H274282   2.597   0.591   3.048  2.3916 -0.5394  2.2734
17623TIP3   OH274283   1.565   5.033   3.117  0.0216  0.0422  0.1959
17623TIP3    H174284   1.553   5.084   3.037  0.6395  1.4665  0.9711
17623TIP3    H274285   1.477   5.005   3.141 -0.1341 -0.6937 -1.1479
17624TIP3   OH274286   1.814   0.157  11.488  0.1536 -0.6735 -0.2787
17624TIP3    H174287   1.778   0.225  11.431 -0.0105 -0.9146 -0.4654
17624TIP3    H274288   1.905   0.183  11.502 -0.1430  0.0727  0.3944
17625TIP3   OH274289   5.435   5.989   5.262  0.5382  0.1275  0.0456
17625TIP3    H174290   5.462   6.072   5.224  1.1921 -0.2515 -0.3458
17625TIP3    H274291   5.342   5.999   5.280  0.2613  0.3971 -1.4640
17626TIP3   OH274292   2.031   4.550   3.898  0.4176 -0.1027 -0.1662
17626TIP3    H174293   1.961   4.545   3.833 -0.5132  1.5619  0.6219
17626TIP3    H274294   2.060   4.641   3.893  1.1716 -0.2756  0.8929
17627TIP3   OH274295   1.544   3.657  16.715 -0.3017 -1.0730  0.2493
17627TIP3    H174296   1.502   3.633  16.633  0.9697 -2.3944 -0.0523
17627TIP3    H274297   1.556   3.574  16.762  0.3410 -0.5207  1.0984
17628TIP3   OH274298   3.486   4.123  16.990  0.1245 -0.3307 -0.4161
17628TIP3    H174299   3.473   4.211  17.025 -1.0013 -0.7842  0.3478
17628TIP3    H274300   3.571   4.127  16.946 -0.1728  1.2998 -0.9035
17629TIP3   OH274301   0.258   2.932  14.003  0.4183 -0.0930  0.3069
17629TIP3    H174302   0.287   3.023  14.015  0.2828  0.0754 -0.6015
17629TIP3    H274303   0.174   2.928  14.050 -0.0895  0.5508 -0.4994
17630TIP3   OH274304   5.070   4.809   1.233 -0.6943 -0.1818  0.2655
17630TIP3    H174305   5.037   4.875   1.171 -1.4512  0.5478  1.4132
17630TIP3    H274306   5.067   4.852   1.318 -1.0581 -1.6460  1.0261
17631TIP3   OH274307   1.260   5.885  11.650 -0.4103 -0.2618  0.7766
17631TIP3    H174308   1.342   5.843  11.674  1.1761  1.2787 -1.5239
17631TIP3    H274309   1.259   5.967  11.698  0.3533  0.5558 -0.5416
17632TIP3   OH274310   0.003   5.575  13.525  0.1357 -0.1418  0.1060
17632TIP3    H174311  -0.012   5.583  13.619 -0.9302 -0.4582 -0.0258
17632TIP3    H274312   0.094   5.547  13.518  0.2984  0.1289  1.0350
17633TIP3   OH274313   4.950   1.382   6.489  0.0627 -0.2470 -0.4483
17633TIP3    H174314   5.037   1.403   6.523 -0.6896  1.2827  0.6636
17633TIP3    H274315   4.902   1.465   6.493 -1.0409 -0.7289 -2.3492
17634TIP3   OH274316   4.745   6.506   1.908  0.0182 -0.0710  0.0508
17634TIP3    H174317   4.781   6.458   1.833  0.7220  0.8434 -0.2070
17634TIP3    H274318   4.821   6.536   1.957 -0.4332 -0.2669  0.8991
17635TIP3   OH274319   0.690   1.607  17.188  0.2185 -0.1942 -0.5186
17635TIP3    H174320   0.604   1.623  17.149  0.1468  1.0330  0.0822
17635TIP3    H274321   0.750   1.605  17.113 -0.1863  0.0512 -0.8554
17636TIP3   OH274322   1.840   0.736  12.078 -0.4391 -0.3206  0.4713
17636TIP3    H174323   1.773   0.735  12.010 -0.5606 -0.4849  0.5920
17636TIP3    H274324   1.796   0.773  12.154 -0.4452 -0.6055  0.6056
17637TIP3   OH274325   4.768   5.988   3.074 -0.3971  0.1517 -0.3717
17637TIP3    H174326   4.676   5.960   3.073 -0.1763 -0.7824  1.7260
17637TIP3    H274327   4.817   5.910   3.099  1.0172  0.6103 -1.5488
17638TIP3   OH274328   0.471   4.265  15.433 -0.3712 -0.1654 -0.1174
17638TIP3    H174329   0.384   4.265  15.392 -0.1975  2.1820 -0.6573
17638TIP3    H274330   0.453   4.253  15.526 -1.1630 -0.9653 -0.3644
17639TIP3   OH274331   5.941   5.854   4.556  0.6903  0.4314 -0.2792
17639TIP3    H174332   5.927   5.811   4.641  2.9691  0.7559  0.3426
17639TIP3    H274333   5.906   5.942   4.567  2.7113  1.1360  1.0801
17640TIP3   OH274334   2.517   1.582   1.184  0.0185 -0.1247 -0.1152
17640TIP3    H174335   2.603   1.549   1.162 -0.1311 -0.0599 -0.8213
17640TIP3    H274336   2.533   1.652   1.248  0.3385 -1.4412  1.2874
17641TIP3   OH274337   5.882   2.308   3.547 -0.3073  0.1191 -0.0548
17641TIP3    H174338   5.795   2.338   3.520 -0.0473 -1.0247 -2.3887
17641TIP3    H274339   5.935   2.388   3.549 -0.6878  0.4448 -1.7470
17642TIP3   OH274340   5.593   5.946   2.112 -0.6908  0.2499 -0.1636
17642TIP3    H174341   5.500   5.946   2.135 -1.0353  0.3310 -1.4720
17642TIP3    H274342   5.633   6.007   2.174 -1.7320  1.2007 -0.3902
17643TIP3   OH274343   4.013   6.222  14.253 -0.5397  0.0952  0.6841
17643TIP3    H174344   4.066   6.142  14.261 -0.2342  0.1297 -0.6647
17643TIP3    H274345   4.077   6.293  14.256 -0.5858  0.1790 -0.0635
17644TIP3   OH274346   0.628   1.239   2.019 -0.0945 -0.1310  0.6197
17644TIP3    H174347   0.550   1.224   2.071  0.3438  1.2424  1.7392
17644TIP3    H274348   0.697   1.255   2.083  0.9348 -0.4807 -0.3599
17645TIP3   OH274349   4.102   3.378   1.020 -0.1758 -0.2036  0.0374
17645TIP3    H174350   4.044   3.450   1.042  1.0967  0.6878  0.6181
17645TIP3    H274351   4.169   3.379   1.088  1.4009 -0.1788 -1.4267
17646TIP3   OH274352   4.799   6.152  13.723 -0.1583  0.4081 -0.5047
17646TIP3    H174353   4.851   6.134  13.644  0.6664 -1.3239  0.3760
17646TIP3    H274354   4.741   6.076  13.730 -0.2729  0.5806  0.5086
17647TIP3   OH274355   2.328   0.413   3.353 -0.9460 -0.2077  0.2725
17647TIP3    H174356   2.375   0.342   3.395  0.7437  1.5583  1.4870
17647TIP3    H274357   2.353   0.407   3.260 -0.8653 -1.1965  0.3507
17648TIP3   OH274358   2.896   2.203  16.355 -0.6815 -0.7762  0.7795
17648TIP3    H174359   2.917   2.295  16.367  0.0094 -0.9326  0.7983
17648TIP3    H274360   2.819   2.203  16.298  0.7343 -0.2307 -1.2307
17649TIP3   OH274361   1.231   3.991  14.176  0.2512 -0.5942  0.2113
17649TIP3    H174362   1.176   3.947  14.241 -0.6819  0.0542 -0.1228
17649TIP3    H274363   1.319   3.957  14.192  0.0576 -0.3705  1.8831
17650TIP3   OH274364   5.669   2.859   2.017  0.1409 -0.0912  0.1895
17650TIP3    H174365   5.635   2.774   1.991 -0.2663  0.5411 -1.5559
17650TIP3    H274366   5.679   2.906   1.934  1.9892  0.9625  0.9526
17651TIP3   OH274367   2.000   2.525   0.336 -0.4445  0.1996 -0.1184
17651TIP3    H174368   1.939   2.548   0.406  1.1572  0.8265  1.1341
17651TIP3    H274369   2.076   2.488   0.381 -0.3872 -1.8388 -1.7117
17652TIP3   OH274370   6.566   4.860  16.091 -0.2910  0.7966 -0.0672
17652TIP3    H174371   6.647   4.840  16.139 -1.1736 -1.4721  0.6174
17652TIP3    H274372   6.569   4.803  16.015 -2.5540 -1.7082  1.5241
17653TIP3   OH274373   3.387   6.652  12.616 -0.0160 -0.2707 -0.6606
17653TIP3    H174374   3.457   6.712  12.640 -1.1922  0.4237  1.3103
17653TIP3    H274375   3.431   6.571  12.594  1.4025  0.0368  0.8634
17654TIP3   OH274376   0.959   2.381  14.316 -0.6596 -0.0359 -1.0166
17654TIP3    H174377   0.941   2.412  14.404 -0.9159  0.4719 -1.2449
17654TIP3    H274378   0.986   2.290  14.328 -0.7620  0.0074 -0.4239
17655TIP3   OH274379   1.828   3.256   0.363 -0.3792  0.5244 -0.2246
17655TIP3    H174380   1.868   3.169   0.363 -0.0513  0.6605  0.8876
17655TIP3    H274381   1.892   3.312   0.407 -1.3711  0.9280  0.7656
17656TIP3   OH274382   4.804   2.976   6.026  0.6298 -0.0922 -0.0186
17656TIP3    H174383   4.817   2.882   6.035 -0.6335 -0.0768  2.9775
17656TIP3    H274384   4.710   2.989   6.037  0.9728  1.6275  1.4402
17657TIP3   OH274385   1.380   6.526  16.134 -0.4592 -0.0773  0.1462
17657TIP3    H174386   1.399   6.507  16.226  0.6387 -1.8191 -0.3939
17657TIP3    H274387   1.343   6.615  16.135 -0.4163 -0.0355  2.2434
17658TIP3   OH274388   5.240   0.783   2.816 -0.1328  0.4187  0.0311
17658TIP3    H174389   5.160   0.822   2.782 -0.1728  0.7032  0.4426
17658TIP3    H274390   5.211   0.712   2.872 -0.0654 -0.0800 -0.5586
17659TIP3   OH274391   5.997   6.230   1.944  0.0430 -0.0256 -0.2436
17659TIP3    H174392   5.930   6.289   1.907  2.3275  2.4130 -0.7955
17659TIP3    H274393   6.046   6.200   1.868  0.6941 -0.3199  0.2919
17660TIP3   OH274394   3.645   3.094  13.547  0.2416  0.5897 -0.5288
17660TIP3    H174395   3.689   3.016  13.580 -1.5503  0.0204  0.7136
17660TIP3    H274396   3.696   3.120  13.470  1.6439 -1.0259 -0.2137
17661TIP3   OH274397   0.116   5.704  13.835 -0.0963 -0.4821 -0.4476
17661TIP3    H174398   0.159   5.776  13.881 -0.3993 -0.0245 -0.8755
17661TIP3    H274399   0.113   5.633  13.900 -1.5393  0.5132  0.6617
17662TIP3   OH274400   6.540   1.732  15.730  0.3638 -0.4644  0.3791
17662TIP3    H174401   6.454   1.773  15.721 -0.2944 -1.5174  1.5923
17662TIP3    H274402   6.601   1.795  15.690 -0.9097  0.4714 -0.1436
17663TIP3   OH274403   1.743   0.885  11.469 -0.1921  0.6857 -0.3321
17663TIP3    H174404   1.693   0.905  11.390 -1.4019 -0.3620  0.1311
17663TIP3    H274405   1.677   0.860  11.534  0.8483  0.5431  0.7159
17664TIP3   OH274406   4.144   1.332  12.973  0.2306  0.3526  0.1392
17664TIP3    H174407   4.165   1.245  12.939  2.6126  0.4821  1.0507
17664TIP3    H274408   4.097   1.375  12.901  0.5907 -1.0756 -1.0077
17665TIP3   OH274409   6.189   2.171   1.598  0.5775  0.0256  0.4769
17665TIP3    H174410   6.201   2.199   1.507 -1.0695 -3.1897 -0.8903
17665TIP3    H274411   6.250   2.098   1.608  0.3683  0.0220  1.8086
17666TIP3   OH274412   5.602   6.680  16.782 -0.0633 -0.3225 -0.1633
17666TIP3    H174413   5.611   6.652  16.691  0.5790 -2.4159  0.4671
17666TIP3    H274414   5.595   6.775  16.778 -0.9244 -0.4083 -2.4449
17667TIP3   OH274415   5.575   3.798  15.727 -0.6092  0.1050  0.5424
17667TIP3    H174416   5.552   3.855  15.653 -0.2675  0.2218  0.5253
17667TIP3    H274417   5.506   3.731  15.728  0.0986 -0.6878 -0.7275
17668TIP3   OH274418   1.350   1.532  13.028  0.5277  0.2773 -0.1813
17668TIP3    H174419   1.398   1.504  13.106 -2.3443 -1.7411  0.9809
17668TIP3    H274420   1.337   1.626  13.041  1.4849  0.2772  0.9481
17669TIP3   OH274421   1.003   4.480  11.388  0.4308  0.1639 -0.1732
17669TIP3    H174422   0.960   4.464  11.304 -1.4739  4.0103 -0.1061
17669TIP3    H274423   0.942   4.444  11.453  0.7914 -0.7239 -0.3108
17670TIP3   OH274424   0.918   6.217   5.477 -0.3679  0.1242 -0.1668
17670TIP3    H174425   0.969   6.280   5.527 -0.2676 -0.7080  0.8098
17670TIP3    H274426   0.827   6.237   5.498 -0.3147 -0.4729  0.6938
17671TIP3   OH274427   5.241   2.544  16.691  0.3059 -0.6375 -0.0546
17671TIP3    H174428   5.214   2.599  16.764 -0.7358  0.9654 -1.5468
17671TIP3    H274429   5.335   2.534  16.701  0.6788  2.1105 -0.1029
17672TIP3   OH274430   2.634   3.887  13.471  0.0920 -0.0821 -0.0818
17672TIP3    H174431   2.641   3.968  13.420  1.1904 -0.0752  0.0421
17672TIP3    H274432   2.542   3.862  13.464 -0.3995  1.4726  0.3261
17673TIP3   OH274433   2.726   4.144  12.738  0.0897 -0.1775 -0.4021
17673TIP3    H174434   2.696   4.233  12.720 -0.4557 -0.5983 -1.7380
17673TIP3    H274435   2.804   4.133  12.685  1.1616  0.0347  1.0629
17674TIP3   OH274436   0.012   4.296   2.517  0.4343 -0.1697 -0.0913
17674TIP3    H174437   0.091   4.297   2.571 -0.2130 -1.8820  0.9897
17674TIP3    H274438  -0.009   4.203   2.509 -1.4655  0.2532 -0.3691
17675TIP3   OH274439   1.553   1.207  13.521  0.3802 -0.0169 -0.2549
17675TIP3    H174440   1.548   1.289  13.571 -0.6787  1.0582 -2.0472
17675TIP3    H274441   1.641   1.174  13.541  0.9911  1.7379  0.2443
17676TIP3   OH274442   6.257   2.569   1.482 -0.2103 -0.0264  0.2636
17676TIP3    H174443   6.221   2.628   1.415  0.6014  0.0260 -0.1398
17676TIP3    H274444   6.267   2.485   1.437 -1.0613 -0.3956  0.7470
17677TIP3   OH274445   2.538   5.631  15.935  0.1024  0.6594  0.3472
17677TIP3    H174446   2.593   5.553  15.937  0.6069  1.0061  0.3759
17677TIP3    H274447   2.550   5.667  15.847 -0.2510  0.6193  0.2830
17678TIP3   OH274448   1.723   3.069  15.746 -0.1176  0.5619 -0.4024
17678TIP3    H174449   1.799   3.095  15.798 -0.3441  0.8463 -0.2064
17678TIP3    H274450   1.648   3.083  15.805 -0.4154  1.2231 -0.9165
17679TIP3   OH274451   3.457   0.132   4.108  0.2823 -0.3930  0.3532
17679TIP3    H174452   3.486   0.211   4.153  0.1737 -0.7051  0.9823
17679TIP3    H274453   3.506   0.061   4.149  0.8686 -0.5893 -0.6557
17680TIP3   OH274454   4.209   0.464  17.232 -0.8400  0.6964 -0.0867
17680TIP3    H174455   4.301   0.488  17.228 -0.4523 -0.6252  0.3037
17680TIP3    H274456   4.207   0.372  17.205 -2.0239  0.6589  0.0651
17681TIP3   OH274457   6.297   1.942  13.371  0.7140 -0.0290 -0.3895
17681TIP3    H174458   6.241   1.952  13.448  0.5232 -1.8822 -0.2351
17681TIP3    H274459   6.336   2.028  13.358  2.4914 -0.1397  3.1118
17682TIP3   OH274460   3.795   6.336  11.540  0.0896 -0.3344  0.8602
17682TIP3    H174461   3.766   6.250  11.510  0.1449 -0.3368  0.8138
17682TIP3    H274462   3.723   6.368  11.594  0.2239 -0.5699  1.1842
17683TIP3   OH274463   0.739   3.679   4.709  0.2644 -0.4430  0.1465
17683TIP3    H174464   0.759   3.586   4.721 -0.5128 -0.3379  3.1666
17683TIP3    H274465   0.765   3.719   4.792 -2.4746  1.4610  0.1868
17684TIP3   OH274466   3.358   3.639   3.458  0.4026  0.0246  0.1735
17684TIP3    H174467   3.304   3.703   3.412 -0.4992 -0.6142  0.3160
17684TIP3    H274468   3.310   3.557   3.451  1.1941 -0.4959  0.6049
17685TIP3   OH274469   2.226   1.252  16.116 -0.4187  0.1038  0.1598
17685TIP3    H174470   2.172   1.188  16.069 -1.0405  0.2099  0.7094
17685TIP3    H274471   2.183   1.261  16.201  0.0125  0.7953  0.3082
17686TIP3   OH274472   2.336   1.666  13.428 -0.1873  0.1015  0.6472
17686TIP3    H174473   2.251   1.673  13.384  0.2686  0.5640 -0.1588
17686TIP3    H274474   2.322   1.708  13.513 -0.8514 -0.0994  0.6424
17687TIP3   OH274475   6.179   4.450   3.206  0.3917  0.2441  0.7289
17687TIP3    H174476   6.116   4.521   3.221 -1.4537 -0.0381 -4.0837
17687TIP3    H274477   6.238   4.483   3.139  0.8342 -1.9783 -0.0642
17688TIP3   OH274478   3.221   1.123   5.711 -0.4148 -0.4117 -0.3318
17688TIP3    H174479   3.311   1.153   5.719 -0.8062  0.8895 -0.5303
17688TIP3    H274480   3.227   1.040   5.665  0.6411 -0.0511 -0.8722
17689TIP3   OH274481   6.519   1.016  17.166 -0.0743  0.6504  0.9522
17689TIP3    H174482   6.576   1.007  17.090 -2.0086  0.7165 -0.5972
17689TIP3    H274483   6.476   0.931  17.174 -0.5807  0.9376  1.3800
17690TIP3   OH274484   4.110   2.820  12.346 -0.3142 -0.2291  0.1776
17690TIP3    H174485   4.092   2.830  12.253  0.9292 -0.6705 -0.1144
17690TIP3    H274486   4.149   2.904  12.372 -1.1844  0.1115  0.4529
17691TIP3   OH274487   5.851   5.006  11.658  0.2750 -0.6055  0.2843
17691TIP3    H174488   5.874   4.993  11.750  0.4177  0.0988  0.3486
17691TIP3    H274489   5.796   4.931  11.637  0.1191 -0.6924  0.9849
17692TIP3   OH274490   4.724   0.356   3.632 -0.3689 -0.1541  0.0471
17692TIP3    H174491   4.685   0.364   3.545 -0.2920  0.7796  0.0893
17692TIP3    H274492   4.802   0.412   3.629 -0.0982 -0.4910  0.5695
17693TIP3   OH274493   0.047   5.835   4.835  0.2078 -0.0937  0.0885
17693TIP3    H174494   0.011   5.767   4.891  0.1047  0.6959  1.0203
17693TIP3    H274495   0.133   5.804   4.810 -0.6748 -1.5442 -1.3228
17694TIP3   OH274496   3.499   3.741   5.803  0.0971  0.2008  0.7197
17694TIP3    H174497   3.539   3.766   5.720 -1.5681 -2.6461 -1.1089
17694TIP3    H274498   3.568   3.755   5.868  1.5547  2.2576 -1.1314
17695TIP3   OH274499   6.692   1.325  13.566 -0.0637  0.0466 -0.2094
17695TIP3    H174500   6.740   1.243  13.562 -2.6805 -1.5408 -2.4623
17695TIP3    H274501   6.734   1.374  13.637  2.1031 -2.8522  0.6944
17696TIP3   OH274502   4.638   4.148   0.205  0.0450 -0.0412 -0.1551
17696TIP3    H174503   4.595   4.123   0.286 -2.4196  1.7532 -0.8103
17696TIP3    H274504   4.675   4.066   0.171  1.3706 -0.8040  2.7918
17697TIP3   OH274505   4.017   1.896   4.220 -0.0926  0.2623 -0.2599
17697TIP3    H174506   3.982   1.935   4.140  0.1073 -0.0650 -0.5110
17697TIP3    H274507   3.947   1.906   4.284 -1.1297 -1.4396 -1.0732
17698TIP3   OH274508   4.695   0.992   1.849 -0.3159 -0.3409  0.5173
17698TIP3    H174509   4.772   0.988   1.906 -0.9119 -0.6494  1.3283
17698TIP3    H274510   4.650   1.072   1.875  0.1087  0.2323 -0.4723
17699TIP3   OH274511   0.670   3.788  15.382 -0.4383 -0.3824 -0.0956
17699TIP3    H174512   0.685   3.714  15.323 -1.2974 -0.3152 -0.4200
17699TIP3    H274513   0.711   3.762  15.464  1.3309 -0.2243 -0.8769
17700TIP3   OH274514   3.874   2.577   4.032 -0.1436 -0.0119  0.0838
17700TIP3    H174515   3.793   2.527   4.022 -0.4637  0.4736  0.2101
17700TIP3    H274516   3.864   2.622   4.116 -0.3575  1.1667 -0.5648
17701TIP3   OH274517   2.573   2.809   2.624 -0.5742  0.5811 -0.4562
17701TIP3    H174518   2.605   2.789   2.712  1.2037  1.4981 -0.8509
17701TIP3    H274519   2.547   2.901   2.628 -4.0164 -0.2675  0.0275
17702TIP3   OH274520   6.408   1.727   3.579 -0.0703  0.1206  0.0418
17702TIP3    H174521   6.332   1.735   3.522  0.0359  0.8364 -0.0183
17702TIP3    H274522   6.433   1.635   3.575 -0.7563 -0.0580 -0.1645
17703TIP3   OH274523   4.158   0.981  16.571 -0.2846 -0.3387 -0.2009
17703TIP3    H174524   4.092   0.918  16.541  0.6647 -1.3660 -0.2157
17703TIP3    H274525   4.121   1.017  16.652 -1.2009 -0.3279 -0.6161
17704TIP3   OH274526   4.881   2.248  11.540  0.0010  0.2680 -0.2013
17704TIP3    H174527   4.857   2.334  11.574 -1.1741 -0.0007 -0.3277
17704TIP3    H274528   4.872   2.256  11.445  0.1502  0.0772 -0.2326
17705TIP3   OH274529   4.991   2.579   2.109 -0.1852  0.5784 -0.4458
17705TIP3    H174530   5.003   2.667   2.073 -1.1441 -0.2527 -2.9668
17705TIP3    H274531   5.038   2.521   2.049 -0.6216 -0.7698  0.4571
17706TIP3   OH274532   3.239   6.504   3.786  0.3390 -0.0483 -0.0803
17706TIP3    H174533   3.151   6.542   3.785  0.4142  0.2043  1.3164
17706TIP3    H274534   3.263   6.496   3.693 -1.1638 -0.1543 -0.4802
17707TIP3   OH274535   4.676   5.048   5.407  0.6684  0.1628  0.1993
17707TIP3    H174536   4.658   5.142   5.405  1.9862  0.4246 -0.7519
17707TIP3    H274537   4.703   5.031   5.497 -1.7299  0.2186  0.9969
17708TIP3   OH274538   5.992   3.363  11.675  0.2661  0.3150  0.4609
17708TIP3    H174539   5.966   3.391  11.763  0.9996  2.0319  0.1865
17708TIP3    H274540   6.074   3.410  11.659  0.2718 -0.1703 -1.0359
17709TIP3   OH274541   0.992   1.933   0.794  0.1920 -0.1524  1.0088
17709TIP3    H174542   1.049   1.874   0.745 -0.8475  0.7128 -1.4028
17709TIP3    H274543   1.042   2.014   0.802  0.5205 -0.4221  1.8020
17710TIP3   OH274544   5.633   3.398  17.201  0.0794 -0.8957 -0.4015
17710TIP3    H174545   5.710   3.454  17.213  1.5715 -2.5837 -1.5337
17710TIP3    H274546   5.653   3.345  17.124 -0.9467 -3.4068  0.9358
17711TIP3   OH274547   1.729   1.186  15.787  0.1130  0.3090 -0.6494
17711TIP3    H174548   1.712   1.176  15.881 -1.0580 -1.2507 -0.9977
17711TIP3    H274549   1.659   1.137  15.744  1.8379 -0.8421 -2.3079
17712TIP3   OH274550   6.547   4.891   3.542 -0.1198  0.6263 -0.0969
17712TIP3    H174551   6.584   4.955   3.480 -0.7316  1.1800  0.1000
17712TIP3    H274552   6.531   4.942   3.621  2.3267 -0.4401  1.1756
17713TIP3   OH274553   0.926   6.768   1.110  0.2107 -0.4194  0.0520
17713TIP3    H174554   0.871   6.814   1.173 -0.1692  1.8797 -1.8209
17713TIP3    H274555   0.865   6.712   1.061  0.5430 -2.4105  1.7380
17714TIP3   OH274556   0.609   2.902   3.233 -0.2304  0.3651  0.0873
17714TIP3    H174557   0.593   2.838   3.301  1.0401 -3.4359 -2.8061
17714TIP3    H274558   0.525   2.946   3.220 -1.5484 -1.6233  1.4146
17715TIP3   OH274559   5.845   2.357   4.460 -0.2814 -0.1552  0.0924
17715TIP3    H174560   5.813   2.380   4.548  3.2221 -0.7416  1.6956
17715TIP3    H274561   5.824   2.264   4.451  2.0486 -0.9159  1.7504
17716TIP3   OH274562   3.269   6.001  16.244 -0.2411 -0.6372 -0.0260
17716TIP3    H174563   3.356   6.039  16.251  0.4503 -2.2115  0.3051
17716TIP3    H274564   3.253   5.993  16.150 -0.2596  0.1122 -0.0947
17717TIP3   OH274565   4.804   4.347   6.116 -0.2065  0.0438 -0.5733
17717TIP3    H174566   4.852   4.428   6.133  0.6361 -0.6335  0.4195
17717TIP3    H274567   4.871   4.278   6.117 -0.7475 -0.5827 -2.4031
17718TIP3   OH274568   2.681   0.810   2.608  0.8306 -0.0887  0.0674
17718TIP3    H174569   2.692   0.902   2.584  2.1817 -0.1866  0.2363
17718TIP3    H274570   2.701   0.807   2.701 -1.5648 -0.1920  0.6629
17719TIP3   OH274571   5.270   0.117  11.061  0.3369 -0.0425 -0.5453
17719TIP3    H174572   5.307   0.043  11.011  1.6612 -0.3807  0.8481
17719TIP3    H274573   5.312   0.194  11.023 -0.0222 -0.1213 -1.1173
17720TIP3   OH274574   1.446   2.635   4.836  0.1876 -0.2729 -0.3047
17720TIP3    H174575   1.529   2.593   4.814 -0.2619 -1.5578  0.3699
17720TIP3    H274576   1.383   2.563   4.841 -0.8673  0.6257 -0.3053
17721TIP3   OH274577   6.537   4.884  15.337 -0.4493  0.2489  0.1915
17721TIP3    H174578   6.527   4.793  15.365 -0.4494  0.2382  0.1565
17721TIP3    H274579   6.452   4.906  15.298 -0.3612  0.1775 -0.0459
17722TIP3   OH274580   3.636   0.436   0.945  0.0004 -0.1532 -0.3027
17722TIP3    H174581   3.701   0.466   1.008  0.4876  0.1580 -0.9435
17722TIP3    H274582   3.677   0.360   0.903 -1.6498 -2.5086  2.0803
17723TIP3   OH274583   5.076   0.695  12.151  0.0504  0.1529 -0.1341
17723TIP3    H174584   5.042   0.774  12.193  2.6464  1.1553  0.2297
17723TIP3    H274585   5.053   0.625  12.212 -0.3441  0.9421  0.6544
17724TIP3   OH274586   2.974   1.758   3.416 -0.5677 -0.8779  0.1169
17724TIP3    H174587   3.051   1.814   3.426 -0.7943 -0.4412 -0.5417
17724TIP3    H274588   3.008   1.677   3.378 -0.1286 -1.4900  1.7165
17725TIP3   OH274589   4.612   1.309   5.181  0.1258 -0.3032 -0.3046
17725TIP3    H174590   4.627   1.219   5.152 -0.8198  0.0761 -2.1307
17725TIP3    H274591   4.530   1.305   5.230  1.4544 -0.8532  2.0123
17726TIP3   OH274592   6.030   3.548   5.006  0.1027 -0.8603 -0.3675
17726TIP3    H174593   6.091   3.590   4.946  0.5424 -0.4372  0.3538
17726TIP3    H274594   5.985   3.621   5.049  0.2599 -1.1355  0.2806
17727TIP3   OH274595   6.367   0.886  11.683  0.4067 -0.1857  0.2863
17727TIP3    H174596   6.329   0.966  11.719  0.3466 -0.5364  1.0076
17727TIP3    H274597   6.335   0.883  11.593 -1.5198 -0.6117  0.9460
17728TIP3   OH274598   5.175   5.474   4.028 -0.4739 -0.7428  0.2888
17728TIP3    H174599   5.185   5.391   3.982 -0.2897  0.4869 -2.0066
17728TIP3    H274600   5.105   5.519   3.981 -0.6628  0.3693  1.5779
17729TIP3   OH274601   3.935   1.158   4.170  0.1927 -0.5375  0.0269
17729TIP3    H174602   3.845   1.190   4.161  0.2348 -0.6859 -1.1338
17729TIP3    H274603   3.936   1.077   4.120  1.4439  0.4449 -1.6610
17730TIP3   OH274604   3.938   5.094   3.801  0.5910 -0.4361 -0.3825
17730TIP3    H174605   3.948   5.149   3.879 -0.5224 -0.8694  0.0866
17730TIP3    H274606   3.987   5.014   3.822 -0.1372 -0.7712  0.1184
17731TIP3   OH274607   1.984   3.870   4.177 -0.5884  0.9663 -0.3005
17731TIP3    H174608   2.026   3.855   4.262 -0.4199  2.4195 -0.1004
17731TIP3    H274609   2.053   3.857   4.113 -0.9210 -1.0209 -0.3173
17732TIP3   OH274610   2.867   1.377  16.097 -0.5968 -0.0224  0.5186
17732TIP3    H174611   2.925   1.379  16.020 -1.2036 -3.3630 -0.1879
17732TIP3    H274612   2.919   1.332  16.164 -1.0629  0.3808  1.1602
17733TIP3   OH274613   3.105   4.145   3.639 -0.0725 -0.2150 -0.3717
17733TIP3    H174614   3.156   4.218   3.604  1.2936 -0.7032  0.4949
17733TIP3    H274615   3.072   4.177   3.723 -0.1576 -0.3164 -0.3670
17734TIP3   OH274616   5.879   0.794  11.379  0.1060 -0.2665  0.0624
17734TIP3    H174617   5.808   0.811  11.316 -0.1310 -0.2983  0.3171
17734TIP3    H274618   5.950   0.759  11.326 -0.2251 -0.6515 -0.1369
17735TIP3   OH274619   1.935   5.780  12.418  0.0242 -0.9865 -0.1940
17735TIP3    H174620   1.888   5.852  12.460  1.4166  0.6345 -1.2577
17735TIP3    H274621   1.904   5.702  12.463 -0.7201  0.3700  1.8209
17736TIP3   OH274622   0.642   1.851  14.371 -0.5282 -0.2363 -0.0244
17736TIP3    H174623   0.596   1.929  14.338  0.6001  0.4049 -0.1054
17736TIP3    H274624   0.592   1.778  14.335 -0.1278  0.4343 -2.0946
17737TIP3   OH274625   0.695   1.294  11.142  0.0491 -0.4188 -0.3508
17737TIP3    H174626   0.707   1.288  11.237  2.0638  0.7420 -0.4735
17737TIP3    H274627   0.718   1.207  11.110  2.7994  0.0826 -0.0009
17738TIP3   OH274628   2.682   2.189  16.562 -0.3320 -0.5751 -0.2117
17738TIP3    H174629   2.629   2.223  16.634 -1.5676 -1.5758 -0.6025
17738TIP3    H274630   2.701   2.266  16.508 -1.0911 -0.1270  0.1400
17739TIP3   OH274631   6.205   3.773  10.883  0.9760  0.5797 -0.1619
17739TIP3    H174632   6.122   3.755  10.839  1.2549  0.0327 -0.4728
17739TIP3    H274633   6.271   3.769  10.813  1.4471 -0.4773  0.3177
17740TIP3   OH274634   0.673   4.253   6.400 -0.4434 -0.3558  0.5385
17740TIP3    H174635   0.746   4.297   6.444 -0.9473 -0.7831  1.8580
17740TIP3    H274636   0.639   4.318   6.339  0.7693 -0.0066  0.2023
17741TIP3   OH274637   5.994   2.187   0.860 -0.6446 -0.0480  0.2673
17741TIP3    H174638   6.009   2.281   0.849  0.8384  0.1578  3.0817
17741TIP3    H274639   6.076   2.146   0.833  0.0297 -0.1763  2.3814
17742TIP3   OH274640   2.329   6.474   2.486 -0.1694  0.5555  0.2271
17742TIP3    H174641   2.311   6.503   2.576 -2.0510  0.5105 -0.0812
17742TIP3    H274642   2.275   6.396   2.475  0.6459  0.0960 -0.7096
17743TIP3   OH274643   4.382   1.880   4.590  0.2983  0.0578  0.4556
17743TIP3    H174644   4.338   1.894   4.506  0.8890 -1.6269 -0.1759
17743TIP3    H274645   4.442   1.807   4.574  2.4791  1.4841  1.5973
17744TIP3   OH274646   3.788   4.138   4.486 -0.1558  0.2094  0.0919
17744TIP3    H174647   3.872   4.148   4.441  0.1807 -0.2715  0.6089
17744TIP3    H274648   3.794   4.195   4.562  0.0215 -0.4280  0.5679
17745TIP3   OH274649   5.043   6.260   6.206 -0.1134  0.0166  0.4701
17745TIP3    H174650   5.012   6.199   6.274  0.1775 -1.0939 -0.3711
17745TIP3    H274651   5.015   6.346   6.237 -1.5437 -0.6557  1.1396
17746TIP3   OH274652   3.548   3.309   2.790  0.3255  0.0557 -0.2594
17746TIP3    H174653   3.622   3.253   2.767 -0.6606 -1.1061 -0.7527
17746TIP3    H274654   3.586   3.396   2.802  1.5234 -0.1335 -2.1881
17747TIP3   OH274655   4.315   4.502  12.221  0.1465  0.2402  0.4622
17747TIP3    H174656   4.313   4.458  12.306  2.1443 -1.2161 -0.1659
17747TIP3    H274657   4.304   4.432  12.157 -1.2744  1.3128 -0.5279
17748TIP3   OH274658   1.270   4.123  13.779  0.1186 -0.3400  0.2185
17748TIP3    H174659   1.208   4.146  13.848 -0.0724  0.3545 -0.1774
17748TIP3    H274660   1.265   4.027  13.772 -0.2661 -0.3615  0.7819
17749TIP3   OH274661   4.814   4.602  10.614 -0.0374  0.6536 -0.2940
17749TIP3    H174662   4.847   4.610  10.704  0.7600  1.0885 -0.6136
17749TIP3    H274663   4.770   4.685  10.597  0.0965  0.6975 -0.4223
17750TIP3   OH274664   6.219   6.095  12.621  0.3317  0.3501  0.2258
17750TIP3    H174665   6.150   6.161  12.611 -1.5285 -1.5800 -0.3629
17750TIP3    H274666   6.286   6.121  12.558 -1.1632  0.7245 -1.2767
17751TIP3   OH274667   5.541   4.026  14.506 -0.2090 -0.2734 -0.4395
17751TIP3    H174668   5.623   4.048  14.461 -0.8961 -1.0820 -2.1651
17751TIP3    H274669   5.568   4.005  14.595  0.8491  4.8249  0.7935
17752TIP3   OH274670   2.609   0.888   4.439 -0.1804 -0.2782 -0.7618
17752TIP3    H174671   2.599   0.957   4.374  3.3241 -0.8337 -2.1088
17752TIP3    H274672   2.607   0.933   4.523 -1.5617  0.9028 -1.3882
17753TIP3   OH274673   5.704   4.160   2.466  0.4462 -0.1208  0.1893
17753TIP3    H174674   5.647   4.138   2.540  0.4367 -0.0541  0.2016
17753TIP3    H274675   5.710   4.079   2.416  0.6217 -0.2242  0.3758
17754TIP3   OH274676   4.931   5.685  12.245  0.5735 -0.0032 -0.0939
17754TIP3    H174677   4.842   5.721  12.238  0.3607 -0.5087 -0.0314
17754TIP3    H274678   4.958   5.673  12.154  0.8538  0.8124 -0.1241
17755TIP3   OH274679   4.563   1.366  10.929 -0.0846  0.7790 -0.1938
17755TIP3    H174680   4.585   1.459  10.935 -0.0670  0.7118  1.0415
17755TIP3    H274681   4.480   1.358  10.976 -0.8540  0.3987 -1.5505
17756TIP3   OH274682   5.993   6.446   0.883 -0.1334 -0.4232  0.1057
17756TIP3    H174683   6.057   6.478   0.821  0.7033 -0.6912  0.8126
17756TIP3    H274684   5.938   6.386   0.832 -1.0025  1.2114 -0.9384
17757TIP3   OH274685   4.251   6.693  12.626 -0.5791 -0.0878  0.0852
17757TIP3    H174686   4.252   6.761  12.559  0.7399  0.7998  0.9458
17757TIP3    H274687   4.200   6.730  12.698 -0.7940 -0.4503  0.1185
17758TIP3   OH274688   2.557   2.338  11.571 -0.2630  0.1301 -0.0030
17758TIP3    H174689   2.499   2.393  11.518 -0.9729 -0.8679 -0.2771
17758TIP3    H274690   2.550   2.374  11.660 -0.8181  0.4001 -0.1542
17759TIP3   OH274691   2.611   0.163  11.146 -0.1105  0.8586  0.3643
17759TIP3    H174692   2.694   0.174  11.100  1.2329  0.0787  2.4727
17759TIP3    H274693   2.546   0.200  11.087  1.5919  0.6065 -1.7904
17760TIP3   OH274694   5.741   3.751   3.728  0.2415 -0.2714 -0.3658
17760TIP3    H174695   5.719   3.689   3.796 -0.9153  0.4347 -0.0641
17760TIP3    H274696   5.728   3.837   3.768  1.1816  0.1723 -0.9633
17761TIP3   OH274697   4.703   2.893  11.353  0.1278  0.5278  0.1488
17761TIP3    H174698   4.746   2.812  11.322  1.0267  0.2762  1.8991
17761TIP3    H274699   4.610   2.874  11.349  0.3137 -0.4093 -0.0111
17762TIP3   OH274700   4.886   0.102   3.469 -0.1740 -1.0677  0.2997
17762TIP3    H174701   4.906   0.059   3.552  0.2015 -3.1506 -0.8121
17762TIP3    H274702   4.897   0.195   3.487  0.3908 -1.5010  2.4408
17763TIP3   OH274703   1.460   0.732   0.476  0.5756  0.0354  0.1455
17763TIP3    H174704   1.532   0.737   0.414  0.1898  0.5492 -0.2680
17763TIP3    H274705   1.385   0.702   0.424  0.7819 -1.8022  0.8287
17764TIP3   OH274706   0.115   5.156  15.274 -0.3065  0.4321 -0.2369
17764TIP3    H174707   0.045   5.213  15.305 -1.0095 -0.2873 -0.4927
17764TIP3    H274708   0.192   5.213  15.272 -1.1021  1.5302 -0.9829
17765TIP3   OH274709   1.392   1.321  11.328 -0.1859  0.2548  0.1254
17765TIP3    H174710   1.359   1.235  11.302 -0.5045  0.2274  0.5973
17765TIP3    H274711   1.396   1.371  11.247  0.4320 -0.3434 -0.2140
17766TIP3   OH274712   1.727   1.461   0.077 -0.0854  0.2774  0.1604
17766TIP3    H174713   1.723   1.366   0.085 -1.1769  0.3785  1.1113
17766TIP3    H274714   1.728   1.493   0.167 -1.7176  1.1982 -0.0958
17767TIP3   OH274715   5.455   4.497  16.613  0.4119  0.0057 -0.6014
17767TIP3    H174716   5.414   4.552  16.546 -0.2706 -2.2444 -2.1439
17767TIP3    H274717   5.525   4.451  16.566  1.0405 -0.3618  0.6679
17768TIP3   OH274718   6.499   0.330  15.473  0.5203 -0.4096 -0.6876
17768TIP3    H174719   6.525   0.415  15.438 -2.0415  0.5479 -0.4343
17768TIP3    H274720   6.525   0.333  15.565  1.8354 -0.5537 -1.0337
17769TIP3   OH274721   5.143   0.872   2.323  0.0224 -0.2333 -0.0143
17769TIP3    H174722   5.119   0.948   2.270  0.1118 -1.5679 -2.0698
17769TIP3    H274723   5.094   0.800   2.285 -0.8119 -1.1093  2.4834
17770TIP3   OH274724   2.007   5.961  11.774  0.1766  0.1595  0.0148
17770TIP3    H174725   2.052   6.034  11.817 -0.1977  0.3975  0.0076
17770TIP3    H274726   2.069   5.888  11.780  0.0763  0.1418  1.1029
17771TIP3   OH274727   3.676   4.675   6.142  0.3579  0.3428  0.3025
17771TIP3    H174728   3.755   4.698   6.191  0.2780 -0.2837  0.7386
17771TIP3    H274729   3.606   4.725   6.183  0.7882  2.3834 -1.2754
17772TIP3   OH274730   3.937   0.762  15.206  0.0235 -0.1568 -0.1476
17772TIP3    H174731   4.010   0.820  15.227  0.7379 -1.1543  0.1657
17772TIP3    H274732   3.892   0.749  15.289 -0.7292  0.7153 -0.3963
17773TIP3   OH274733   0.451   5.177  16.571  0.6764  0.2527 -0.5236
17773TIP3    H174734   0.381   5.134  16.523  1.9244  0.1752 -2.3809
17773TIP3    H274735   0.434   5.156  16.663 -1.0240 -0.7566 -1.0268
17774TIP3   OH274736   2.958   0.792  17.217 -1.0299 -0.7903  0.1363
17774TIP3    H174737   2.885   0.731  17.203 -1.3510 -0.5465  0.6850
17774TIP3    H274738   3.020   0.744  17.271 -0.7848 -0.9909 -0.3152
17775TIP3   OH274739   1.942   1.270   1.058 -0.4944  0.4339  0.0304
17775TIP3    H174740   1.956   1.198   0.996  4.2883  0.9066  0.1559
17775TIP3    H274741   1.955   1.230   1.144  0.9543  1.1476  0.1687
17776TIP3   OH274742   1.658   5.366  12.174 -0.1361 -0.0848 -0.5234
17776TIP3    H174743   1.632   5.454  12.205  2.9936  0.2055  1.7932
17776TIP3    H274744   1.691   5.381  12.086 -0.7924  0.8387 -0.6336
17777TIP3   OH274745   1.733   6.482   0.191  0.4731 -0.2477  0.5538
17777TIP3    H174746   1.703   6.416   0.129 -0.5995  0.9005 -0.1858
17777TIP3    H274747   1.654   6.510   0.237  0.9158  0.4788  0.8944
17778TIP3   OH274748   2.188   1.100   5.720 -0.0163  0.1801  0.0404
17778TIP3    H174749   2.279   1.104   5.751  0.7249 -0.1328 -1.9854
17778TIP3    H274750   2.143   1.048   5.787  1.8749 -1.8922 -0.1413
17779TIP3   OH274751   2.407   0.319  16.460 -0.1459  0.0676 -0.1428
17779TIP3    H174752   2.376   0.248  16.516  1.8049  0.2884  1.3227
17779TIP3    H274753   2.362   0.397  16.492  0.9498  0.1884  1.1423
17780TIP3   OH274754   0.157   1.831   3.001 -0.0689  0.0562 -0.3082
17780TIP3    H174755   0.099   1.866   3.070 -0.4483 -3.1195  1.1488
17780TIP3    H274756   0.224   1.781   3.049  1.5848  0.3804 -2.1605
17781TIP3   OH274757   0.350   6.438   5.696 -0.0003  0.5699  0.3152
17781TIP3    H174758   0.362   6.505   5.629 -1.3200  1.1394  0.6357
17781TIP3    H274759   0.285   6.474   5.755 -1.1208 -1.1968  0.2206
17782TIP3   OH274760   0.477   2.002  16.692  0.6145  0.0638 -0.4733
17782TIP3    H174761   0.391   2.014  16.731  0.2619  0.3882 -1.3136
17782TIP3    H274762   0.534   2.063  16.738  0.2305  0.3733 -0.4053
17783TIP3   OH274763   4.793   5.414  12.074  0.1528  0.6338  0.2847
17783TIP3    H174764   4.793   5.499  12.031 -1.5063  0.8370  0.6439
17783TIP3    H274765   4.780   5.351  12.003 -1.7464  0.9133  0.3516
17784TIP3   OH274766   6.015   3.959  14.464  0.0080  0.4484 -0.2025
17784TIP3    H174767   5.999   4.032  14.524 -0.0700 -0.1190  0.4794
17784TIP3    H274768   6.110   3.953  14.459  0.0143  1.0390 -0.8084
17785TIP3   OH274769   1.003   4.497   3.024  0.0889 -0.1362  0.1291
17785TIP3    H174770   0.997   4.436   3.098 -2.0676  1.0512  1.0137
17785TIP3    H274771   1.022   4.441   2.948  0.7434 -1.5683  1.3028
17786TIP3   OH274772   2.079   5.603   0.079 -0.1181 -0.0688 -0.1556
17786TIP3    H174773   2.021   5.677   0.100  0.0715  0.1001 -0.2141
17786TIP3    H274774   2.053   5.577  -0.009 -0.7563 -0.6235  0.1933
17787TIP3   OH274775   4.780   5.060  17.096 -0.1600 -0.5940 -0.3888
17787TIP3    H174776   4.838   5.072  17.171 -0.9282  1.9274 -0.0951
17787TIP3    H274777   4.781   5.145  17.051 -1.3443 -1.3989 -2.0227
17788TIP3   OH274778   3.528   6.460  13.000 -0.0324  0.4530  0.5844
17788TIP3    H174779   3.486   6.413  12.928  0.3039  1.7456 -0.5116
17788TIP3    H274780   3.571   6.393  13.052 -1.1383 -0.6173  0.1545
17789TIP3   OH274781   1.338   4.013   2.004  0.3521  0.3893  0.1367
17789TIP3    H174782   1.395   4.020   1.928 -0.1554 -0.5078 -0.3400
17789TIP3    H274783   1.392   3.971   2.071  0.0308 -1.2126 -0.5735
17790TIP3   OH274784   0.781   0.147  12.111 -0.1044  0.3938  0.1044
17790TIP3    H174785   0.743   0.138  12.199  0.9524 -2.2305  0.4012
17790TIP3    H274786   0.876   0.139  12.125  0.0679 -0.3397 -1.2611
17791TIP3   OH274787   0.407   4.002   5.931 -0.6485 -0.0591 -0.2561
17791TIP3    H174788   0.366   3.972   5.850  1.3506 -0.0487 -1.3438
17791TIP3    H274789   0.346   4.066   5.967 -2.8458 -1.9926 -0.3045
17792TIP3   OH274790   2.520   0.984   4.161  0.3228 -0.1719 -0.1685
17792TIP3    H174791   2.510   0.953   4.071  2.9149  0.3493 -0.7374
17792TIP3    H274792   2.601   1.035   4.159  0.3548 -0.0070  2.4243
17793TIP3   OH274793   5.803   2.287   0.406  0.1624  0.8656 -0.4824
17793TIP3    H174794   5.839   2.203   0.436  0.0139  0.3033 -1.8196
17793TIP3    H274795   5.708   2.273   0.407  0.1500  0.9232 -0.9742
17794TIP3   OH274796   5.351   1.101   2.335  0.9143  0.3636 -0.5537
17794TIP3    H174797   5.281   1.111   2.270  1.7850 -1.8358 -1.9704
17794TIP3    H274798   5.428   1.141   2.295  1.8698 -2.3931 -1.7757
17795TIP3   OH274799   1.770   1.638   5.875  0.2956 -0.5334  0.1227
17795TIP3    H174800   1.776   1.659   5.968 -0.8229 -3.9892  1.1407
17795TIP3    H274801   1.682   1.667   5.850 -0.2807 -1.5919  0.8220
17796TIP3   OH274802   2.439   2.389  13.593  0.5000  0.1556 -0.1018
17796TIP3    H174803   2.508   2.451  13.614  0.7254 -0.1308  0.0053
17796TIP3    H274804   2.427   2.338  13.674  0.0930  0.2727 -0.0850
17797TIP3   OH274805   4.124   5.487   2.735 -0.4497  0.6958  0.2087
17797TIP3    H174806   4.144   5.434   2.813  1.0374 -0.9261 -1.1863
17797TIP3    H274807   4.113   5.576   2.769 -2.1073 -0.3031  2.5327
17798TIP3   OH274808   3.871   4.817  11.121  0.0642  0.6601 -0.2491
17798TIP3    H174809   3.939   4.754  11.097 -2.8430 -2.6992 -0.6318
17798TIP3    H274810   3.882   4.829  11.215  1.1331  0.0935 -0.2830
17799TIP3   OH274811   1.471   1.759  16.632 -0.1887  0.2340  0.0432
17799TIP3    H174812   1.486   1.811  16.553 -1.8931 -0.1357 -0.5666
17799TIP3    H274813   1.465   1.824  16.702  0.4230  0.6403 -0.2692
17800TIP3   OH274814   5.745   0.837   1.210 -0.8639 -0.1315  0.2949
17800TIP3    H174815   5.701   0.769   1.260 -1.8215 -0.3685 -0.8433
17800TIP3    H274816   5.818   0.865   1.267  1.1305 -3.7836 -0.1874
17801TIP3   OH274817   6.386   0.468   3.968 -0.4758 -0.4625 -0.3281
17801TIP3    H174818   6.372   0.563   3.962 -1.2768 -0.6287 -1.6527
17801TIP3    H274819   6.320   0.438   4.030 -0.3391 -0.1669 -0.0413
17802TIP3   OH274820   5.180   1.526  13.425 -0.5383  0.3610 -0.5082
17802TIP3    H174821   5.251   1.464  13.409  2.1496  2.6957  1.3373
17802TIP3    H274822   5.191   1.593  13.358  0.9413  2.1738  1.4107
17803TIP3   OH274823   4.366   0.612   2.624  0.1453  0.4453 -0.6344
17803TIP3    H174824   4.346   0.687   2.681  1.9308 -1.5882  3.0120
17803TIP3    H274825   4.287   0.559   2.625 -0.6537  1.5205 -2.1371
17804TIP3   OH274826   5.590   1.334   5.735 -0.6072  0.2289  0.0930
17804TIP3    H174827   5.680   1.337   5.765 -0.1019 -1.0354 -1.1825
17804TIP3    H274828   5.551   1.259   5.780 -1.2346  1.1480  1.1278
17805TIP3   OH274829   5.422   6.395   6.061 -0.6225 -0.3037  0.2441
17805TIP3    H174830   5.409   6.304   6.088 -0.3686 -1.0251 -1.8416
17805TIP3    H274831   5.516   6.404   6.049 -0.7088 -0.0079 -0.2779
17806TIP3   OH274832   5.079   3.997  13.381 -0.6948  0.0016  0.0486
17806TIP3    H174833   4.993   3.972  13.347 -1.2006  0.1944  1.1302
17806TIP3    H274834   5.106   4.070  13.326 -1.6555  0.5324  0.2573
17807TIP3   OH274835   4.292   6.131  14.502  0.4837 -0.5771 -0.4458
17807TIP3    H174836   4.317   6.041  14.522 -0.7774 -0.7615  0.4645
17807TIP3    H274837   4.217   6.123  14.444 -0.5453 -0.1791  0.7759
17808TIP3   OH274838   2.616   6.133   4.331 -0.0313 -0.0275 -0.5398
17808TIP3    H174839   2.699   6.172   4.359  0.6070 -0.1948 -2.0834
17808TIP3    H274840   2.641   6.074   4.259 -1.3238 -1.1300 -0.1262
17809TIP3   OH274841   0.141   2.930  14.906  0.0030  0.3249 -0.0959
17809TIP3    H174842   0.050   2.954  14.888  0.1870  0.5399 -0.7683
17809TIP3    H274843   0.191   2.965  14.832  0.6759  0.4707  0.4099
17810TIP3   OH274844   2.675   0.256   4.033 -0.0453  0.0384  0.2994
17810TIP3    H174845   2.592   0.235   4.076 -0.6163  0.2676 -0.6586
17810TIP3    H274846   2.742   0.233   4.097 -0.7954 -1.3467  0.6413
17811TIP3   OH274847   1.821   0.340  15.218  0.1717  0.4240  0.4086
17811TIP3    H174848   1.855   0.429  15.220  0.8782  0.1660  2.3096
17811TIP3    H274849   1.836   0.307  15.307 -1.5134 -1.0499  0.2096
17812TIP3   OH274850   2.747   0.423   0.932 -0.4374 -0.4817 -0.4729
17812TIP3    H174851   2.717   0.452   1.018 -0.1998 -0.9355 -0.2357
17812TIP3    H274852   2.723   0.331   0.927  0.8280 -0.8456 -0.3025
17813TIP3   OH274853   1.824   2.036  16.445 -0.3311  0.1661 -0.9572
17813TIP3    H174854   1.890   1.982  16.490  1.2034  0.6828 -2.4454
17813TIP3    H274855   1.749   1.978  16.434  1.0632 -1.5548 -1.9899
17814TIP3   OH274856   0.469   3.838  10.971  0.5665 -0.1049  0.4960
17814TIP3    H174857   0.505   3.880  10.893 -0.9501  1.0173  0.3701
17814TIP3    H274858   0.533   3.858  11.040  1.6303 -0.6344 -0.2938
17815TIP3   OH274859   3.917   6.268  16.355 -0.3868  0.0287  0.7270
17815TIP3    H174860   3.859   6.213  16.407  0.4316  0.3019  1.9696
17815TIP3    H274861   3.986   6.294  16.416 -0.5982  2.2074  0.1088
17816TIP3   OH274862   4.141   6.191   2.660 -0.0657 -0.2343  0.2536
17816TIP3    H174863   4.130   6.171   2.753 -0.8038 -0.4407  0.1231
17816TIP3    H274864   4.235   6.176   2.644 -0.0030 -0.5623  0.8762
17817TIP3   OH274865   4.785   4.604  12.295  0.4465  0.8168  0.0076
17817TIP3    H174866   4.819   4.678  12.244 -0.3863  0.2886 -1.3698
17817TIP3    H274867   4.814   4.526  12.247 -0.2945  0.3036  0.3625
17818TIP3   OH274868   0.992   5.630   5.140 -0.1778  0.3991  0.2266
17818TIP3    H174869   0.992   5.564   5.071  1.0431  0.8926 -0.2840
17818TIP3    H274870   1.040   5.704   5.102 -0.4724  1.1163  1.2090
17819TIP3   OH274871   4.565   4.328  11.463 -0.4330 -0.0537  0.2809
17819TIP3    H174872   4.551   4.237  11.439  1.2790 -1.3580  3.5730
17819TIP3    H274873   4.651   4.350  11.425 -0.0034 -0.4611  0.9960
17820TIP3   OH274874   4.368   5.270  13.188  0.4029 -0.5125  0.1208
17820TIP3    H174875   4.435   5.307  13.130 -0.0182  1.5580  0.8459
17820TIP3    H274876   4.291   5.261  13.132  1.0052 -2.0682 -0.5029
17821TIP3   OH274877   2.004   3.923   5.201  0.3764 -0.0977 -0.0285
17821TIP3    H174878   2.086   3.921   5.152  0.3728  1.8528 -0.1925
17821TIP3    H274879   1.973   3.832   5.200  1.0531 -0.3850 -2.5142
17822TIP3   OH274880   0.956   6.278   0.405 -0.1165  0.0347 -0.2381
17822TIP3    H174881   1.041   6.264   0.365 -0.2590  2.5152 -1.6546
17822TIP3    H274882   0.936   6.370   0.388 -1.5385  0.5124  3.1210
17823TIP3   OH274883   4.810   1.984  15.938  0.7618 -0.1374  0.5188
17823TIP3    H174884   4.835   1.946  15.854 -1.7779  0.3218 -0.5256
17823TIP3    H274885   4.733   1.934  15.966  1.5381 -0.2602  2.5988
17824TIP3   OH274886   1.338   5.610  12.686  0.3349  0.1895  0.2590
17824TIP3    H174887   1.340   5.525  12.642 -0.7282  0.3305 -0.0857
17824TIP3    H274888   1.249   5.643  12.671  0.6470  1.2390  0.6209
17825TIP3   OH274889   2.843   6.740   3.067  0.4251 -0.0446 -0.2322
17825TIP3    H174890   2.787   6.712   3.140  0.1297  0.9372 -0.0745
17825TIP3    H274891   2.828   6.674   3.000 -0.5201 -0.0957  0.0078
17826TIP3   OH274892   1.141   1.405  15.127  0.6028 -0.0968  0.2151
17826TIP3    H174893   1.163   1.449  15.209  1.7196 -0.3764  0.0919
17826TIP3    H274894   1.208   1.336  15.119 -0.5252 -1.1975 -0.0663
17827TIP3   OH274895   5.524   5.043   3.235 -0.4779  0.5987  0.2629
17827TIP3    H174896   5.587   5.081   3.174 -0.5355 -0.0361 -0.2092
17827TIP3    H274897   5.566   5.051   3.320 -0.0241  0.7423  0.0329
17828TIP3   OH274898   5.952   4.547  14.254  0.2430  0.1743 -0.2768
17828TIP3    H174899   6.017   4.542  14.324 -0.0908  0.0007  0.0275
17828TIP3    H274900   5.986   4.491  14.185  1.1627  1.2810 -0.7497
17829TIP3   OH274901   6.068   4.488   1.628  0.7333 -0.8883 -0.8812
17829TIP3    H174902   6.112   4.423   1.683  0.1489 -0.1974  0.4674
17829TIP3    H274903   6.117   4.569   1.642 -0.0034 -0.4783 -0.5949
17830TIP3   OH274904   6.029   1.045  13.512 -0.1314 -0.0828 -0.2347
17830TIP3    H174905   6.092   1.059  13.583  0.4054  5.0328 -1.3072
17830TIP3    H274906   6.082   1.049  13.432 -1.3400  0.2961 -1.0474
17831TIP3   OH274907   4.881   2.184   0.118  0.2202  0.0512  0.2324
17831TIP3    H174908   4.829   2.241   0.175 -0.4335 -1.2167  0.9475
17831TIP3    H274909   4.821   2.160   0.048  0.1740 -0.5629  0.4807
17832TIP3   OH274910   3.992   4.852   1.533  0.2381 -0.0448 -0.0194
17832TIP3    H174911   3.938   4.775   1.515  0.3803 -0.0964 -0.2217
17832TIP3    H274912   4.007   4.892   1.447  0.8691 -0.2636 -0.0221
17833TIP3   OH274913   5.660   1.972   1.140  0.0257  0.4735  0.5169
17833TIP3    H174914   5.606   2.051   1.150 -3.2361 -1.3956 -0.8805
17833TIP3    H274915   5.717   1.992   1.066 -0.6275  1.5644  0.2841
17834TIP3   OH274916   5.169   5.576  13.449  0.0887  0.4928 -0.3058
17834TIP3    H174917   5.260   5.570  13.478  0.2278  0.2572 -0.7825
17834TIP3    H274918   5.133   5.651  13.496  0.7899  1.1443 -0.8104
17835TIP3   OH274919   0.941   2.475   6.416 -0.3132 -0.2923 -0.4673
17835TIP3    H174920   0.877   2.451   6.350  0.5966 -1.7593 -0.8747
17835TIP3    H274921   0.931   2.409   6.485 -1.0872  1.0736  0.7724
17836TIP3   OH274922   0.738   4.327  16.121  0.1289  0.0888  0.1161
17836TIP3    H174923   0.699   4.403  16.164 -0.6355  0.5602 -1.3668
17836TIP3    H274924   0.792   4.364  16.052 -1.0483 -0.7242 -1.2792
17837TIP3   OH274925   6.174   5.237  10.525 -0.1192 -0.3025 -0.2310
17837TIP3    H174926   6.171   5.292  10.447  1.9090 -0.5996 -0.5517
17837TIP3    H274927   6.153   5.149  10.494  0.4484 -0.3771 -0.4161
17838TIP3   OH274928   0.605   4.110  13.503  0.2294 -0.1892  0.5350
17838TIP3    H174929   0.624   4.096  13.596 -0.6059  1.6838  1.0287
17838TIP3    H274930   0.688   4.093  13.459  1.4422  1.6573  1.9535
17839TIP3   OH274931   0.129   4.767   3.704 -0.3579 -0.0966  0.3297
17839TIP3    H174932   0.187   4.793   3.633 -1.0953  0.5625 -0.0483
17839TIP3    H274933   0.102   4.849   3.745 -0.3074 -0.4455  1.0770
17840TIP3   OH274934   1.497   4.567   4.636 -0.2198  0.6175  0.5315
17840TIP3    H174935   1.483   4.478   4.668  0.6728  0.2865  0.0370
17840TIP3    H274936   1.563   4.604   4.695  1.9850 -0.2436 -1.2603
17841TIP3   OH274937   1.382   1.474   0.973  0.3250 -0.5408 -0.0912
17841TIP3    H174938   1.390   1.566   0.948 -0.5253  0.0117  1.4894
17841TIP3    H274939   1.443   1.464   1.046 -0.0469 -1.0481  0.1557
17842TIP3   OH274940   2.999   4.507  12.850  0.2198  0.0384 -0.4135
17842TIP3    H174941   2.985   4.433  12.791 -4.0846  0.9729 -0.8412
17842TIP3    H274942   3.013   4.582  12.793  1.4636  0.1268 -0.0348
17843TIP3   OH274943   0.581   0.791  17.251  0.2688  0.2536  0.1207
17843TIP3    H174944   0.491   0.822  17.247  0.3068  0.3081 -0.2898
17843TIP3    H274945   0.611   0.817  17.338 -0.0585  0.3727  0.1993
17844TIP3   OH274946   0.307   5.947  12.830  0.0783 -0.4930  0.2322
17844TIP3    H174947   0.319   6.027  12.882 -1.9011 -0.6461  1.0245
17844TIP3    H274948   0.249   5.892  12.883 -1.0315 -1.1832 -1.5771
17845TIP3   OH274949   6.112   3.860  14.002  0.2497 -0.3028 -0.0220
17845TIP3    H174950   6.034   3.806  13.992 -0.1539 -0.1239  1.8436
17845TIP3    H274951   6.162   3.817  14.072  0.8802  0.6557  0.1350
17846TIP3   OH274952   6.574   3.518   1.170 -0.2229  0.3077 -0.2163
17846TIP3    H174953   6.495   3.469   1.193 -1.4287  2.5173  0.7656
17846TIP3    H274954   6.636   3.452   1.139 -1.8303 -1.7282  0.6583
17847TIP3   OH274955   4.989   1.377  17.252 -0.5289  0.3899 -0.0948
17847TIP3    H174956   4.920   1.432  17.213 -0.0816 -0.3050 -1.9864
17847TIP3    H274957   5.023   1.327  17.178 -1.1912 -2.7629  1.5816
17848TIP3   OH274958   5.958   0.522   5.738 -0.2129  0.0024 -0.2340
17848TIP3    H174959   6.013   0.570   5.676  1.5274 -0.6838  0.6997
17848TIP3    H274960   5.877   0.573   5.742  1.1446  2.3017 -0.0845
17849TIP3   OH274961   4.087   0.278  16.501  0.4052  0.9726  0.4505
17849TIP3    H174962   4.105   0.368  16.475 -0.2815  1.1721  0.6608
17849TIP3    H274963   3.992   0.269  16.494  0.4985  0.1500  0.0561
17850TIP3   OH274964   1.899   5.355  16.421  0.1051  0.1556  0.7069
17850TIP3    H174965   1.876   5.266  16.394 -2.1457  1.1387 -1.0337
17850TIP3    H274966   1.862   5.363  16.509 -0.5494 -0.3624  0.4950
17851TIP3   OH274967   2.976   1.240  13.472  0.4056 -0.2329 -0.1331
17851TIP3    H174968   3.023   1.248  13.555 -0.7209 -0.0864  0.5119
17851TIP3    H274969   2.935   1.153  13.476 -2.0287  0.8619  0.7972
17852TIP3   OH274970   3.151   5.654   3.379 -0.4391  0.1437 -0.1735
17852TIP3    H174971   3.152   5.603   3.459  1.2225  0.4686  0.0634
17852TIP3    H274972   3.226   5.621   3.329  0.0913  1.6517 -0.4376
17853TIP3   OH274973   1.527   0.265   0.845  0.1357  0.1910  0.2438
17853TIP3    H174974   1.520   0.221   0.930  0.7634 -0.3968  0.0043
17853TIP3    H274975   1.459   0.223   0.791  0.7082 -0.4858  0.0273
17854TIP3   OH274976   3.355   3.060  15.792  0.1357  0.4590 -0.1031
17854TIP3    H174977   3.408   3.007  15.733  1.7068  0.6870  1.0562
17854TIP3    H274978   3.335   3.139  15.742 -0.8615 -0.4921 -1.2672
17855TIP3   OH274979   6.099   5.400  10.311  0.1961  0.4515  0.1353
17855TIP3    H174980   6.005   5.414  10.314  0.0509 -0.5113  0.4616
17855TIP3    H274981   6.137   5.488  10.316 -0.6584  0.7864  0.8695
17856TIP3   OH274982   4.857   3.110  11.420 -0.0452  0.0518  0.3926
17856TIP3    H174983   4.914   3.083  11.349 -2.1049 -2.1489 -0.5833
17856TIP3    H274984   4.830   3.028  11.462 -1.4319  1.0787  1.6341
17857TIP3   OH274985   1.355   0.094   3.592 -0.0477  0.5451 -0.5618
17857TIP3    H174986   1.265   0.091   3.559  0.0156  0.2280 -0.7190
17857TIP3    H274987   1.346   0.103   3.687 -0.3074 -1.8918 -0.2839
17858TIP3   OH274988   0.791   0.619   0.924  0.3194  0.5225 -0.1800
17858TIP3    H174989   0.812   0.672   1.002  0.7779  0.1621 -0.0539
17858TIP3    H274990   0.795   0.529   0.955 -2.7413  0.4073  0.1875
17859TIP3   OH274991   4.629   3.735   3.573 -0.8868 -0.3453 -0.1051
17859TIP3    H174992   4.670   3.775   3.496  0.3733 -1.4288 -0.0279
17859TIP3    H274993   4.548   3.696   3.539 -1.3957  0.9537 -0.4516
17860TIP3   OH274994   4.192   4.930   4.176  0.1387 -0.4345 -0.8058
17860TIP3    H174995   4.165   4.879   4.100 -1.6708  0.3810 -0.7668
17860TIP3    H274996   4.109   4.955   4.219  1.0883 -0.4121  1.1242
17861TIP3   OH274997   3.829   1.203   6.021 -0.3120  0.2939 -0.1596
17861TIP3    H174998   3.892   1.265   6.058 -1.1041  0.8805  0.2539
17861TIP3    H274999   3.831   1.128   6.082 -1.5426  1.2177  1.0825
17862TIP3   OH275000   4.909   0.126   4.673 -0.5217  0.0950 -0.4514
17862TIP3    H175001   4.988   0.176   4.694 -0.5803  0.3028 -0.7255
17862TIP3    H275002   4.940   0.054   4.618  0.0915 -2.0991  2.4910
17863TIP3   OH275003   4.953   1.291  10.985  0.6967  0.7644  0.3597
17863TIP3    H175004   4.996   1.250  11.060 -0.4773 -1.6992 -0.2313
17863TIP3    H275005   4.880   1.233  10.964 -0.6140  2.7902 -1.0610
17864TIP3   OH275006   1.055   4.578  16.106 -0.0257 -0.4498  0.1567
17864TIP3    H175007   1.149   4.560  16.097 -0.1987 -0.6502 -1.4958
17864TIP3    H275008   1.046   4.612  16.195  1.7828  0.5682  0.0074
17865TIP3   OH275009   5.486   0.344  12.593 -0.1353  0.0541  0.1730
17865TIP3    H175010   5.414   0.293  12.630  0.2348 -0.2313  0.5055
17865TIP3    H275011   5.473   0.338  12.498  0.7431 -1.9263  0.1221
17866TIP3   OH275012   2.053   6.684   2.027 -0.1547 -0.0801  0.2867
17866TIP3    H175013   2.094   6.769   2.034  0.2445 -0.2436 -0.0511
17866TIP3    H275014   1.982   6.686   2.091 -0.9296  0.9451 -0.5781
17867TIP3   OH275015   1.042   5.255   1.939  0.1103  0.6088 -0.4278
17867TIP3    H175016   1.108   5.186   1.937  0.2740  0.7293  0.3593
17867TIP3    H275017   1.030   5.280   1.848  0.9280  0.3711 -0.6059
17868TIP3   OH275018   4.111   2.136  11.001  0.0584  0.4253 -0.2130
17868TIP3    H175019   4.117   2.138  10.906 -1.2712  2.4135 -0.2931
17868TIP3    H275020   4.028   2.092  11.019 -0.0041  0.6328  0.0136
17869TIP3   OH275021   5.026   2.042  15.564  0.1889  0.1069 -0.2771
17869TIP3    H175022   5.022   2.123  15.615 -0.8094 -0.0865 -0.0228
17869TIP3    H275023   5.117   2.038  15.533  0.8293  0.2378  1.4676
17870TIP3   OH275024   4.870   2.475  11.714  0.5254 -0.6746 -0.1784
17870TIP3    H175025   4.953   2.521  11.718  1.3427 -1.9289 -1.6552
17870TIP3    H275026   4.813   2.533  11.663  0.5074  0.1452  0.7564
17871TIP3   OH275027   5.253   3.863  13.909  0.2171  0.3402 -0.0250
17871TIP3    H175028   5.300   3.938  13.946 -0.8219  0.3229  1.4336
17871TIP3    H275029   5.188   3.841  13.976  0.5218 -1.9082 -0.4097
17872TIP3   OH275030   2.282   1.487   0.567 -0.1483  0.5005  0.5289
17872TIP3    H175031   2.336   1.565   0.575 -2.4691  2.1737  0.9132
17872TIP3    H275032   2.261   1.463   0.657 -0.2097 -0.0154  0.3798
17873TIP3   OH275033   2.915   1.575   4.189 -0.7416 -0.2027  0.8201
17873TIP3    H175034   2.949   1.507   4.247 -0.2517 -0.2975  0.4288
17873TIP3    H275035   2.940   1.657   4.231 -0.4770 -0.2702  0.7961
17874TIP3   OH275036   2.707   3.263   1.673  0.7769 -0.1656 -0.3315
17874TIP3    H175037   2.683   3.280   1.764  1.4137  0.8541 -0.3408
17874TIP3    H275038   2.763   3.185   1.678  0.6315 -0.2479  0.1222
17875TIP3   OH275039   3.782   1.362   3.629  0.0245  0.3007  0.4291
17875TIP3    H175040   3.708   1.314   3.664 -0.3385 -0.5268 -1.3682
17875TIP3    H275041   3.763   1.454   3.648 -0.7498 -0.0114  1.2205
17876TIP3   OH275042   6.653   4.149  14.020  0.6107 -0.0446 -0.0211
17876TIP3    H175043   6.669   4.128  13.928 -1.5027 -0.7994 -0.2738
17876TIP3    H275044   6.694   4.077  14.068 -0.4887 -1.0505 -0.5396
17877TIP3   OH275045   1.388   0.940   2.258 -0.2773  0.1138 -0.5912
17877TIP3    H175046   1.476   0.978   2.256 -0.0512 -0.3470  0.2112
17877TIP3    H275047   1.372   0.913   2.168 -0.6195  2.4760 -1.3097
17878TIP3   OH275048   0.770   0.307   3.393  0.5425 -0.4355 -0.6527
17878TIP3    H175049   0.751   0.214   3.404 -1.5557 -0.1688 -1.6231
17878TIP3    H275050   0.779   0.319   3.298 -2.0685  0.8053 -0.8091
17879TIP3   OH275051   4.116   0.148   0.018  0.6760 -0.1737 -0.1206
17879TIP3    H175052   4.165   0.203  -0.043 -0.9452 -0.0555 -1.3975
17879TIP3    H275053   4.120   0.061  -0.021  2.1504 -0.7646  1.2290
17880TIP3   OH275054   2.938   2.922  13.839  0.0901 -0.1398  0.4214
17880TIP3    H175055   3.005   2.860  13.813 -0.0101 -0.6773  1.4100
17880TIP3    H275056   2.976   2.970  13.912  0.4040  1.4114 -0.7027
17881TIP3   OH275057   2.387   4.888   1.006  0.1752  0.0551  0.1706
17881TIP3    H175058   2.307   4.839   1.024  0.5718  0.0701  2.2571
17881TIP3    H275059   2.435   4.835   0.943 -2.1072  0.7752 -2.3473
17882TIP3   OH275060   5.473   1.793   2.692 -0.5660  0.3664 -0.0737
17882TIP3    H175061   5.390   1.775   2.648 -0.4220  0.1524 -0.2572
17882TIP3    H275062   5.454   1.867   2.750 -0.4237  1.5897 -1.5280
17883TIP3   OH275063   5.002   0.879  13.145  0.3382  0.1946 -0.3353
17883TIP3    H175064   4.983   0.902  13.236 -2.7709 -2.3247 -0.1722
17883TIP3    H275065   5.046   0.794  13.150  0.0625 -0.0057 -1.1861
17884TIP3   OH275066   3.124   4.916   1.906  0.2363 -0.2484  0.2054
17884TIP3    H175067   3.216   4.891   1.908  0.1800 -0.4334  0.6851
17884TIP3    H275068   3.115   4.980   1.976  0.0446 -0.0726  0.0221
17885TIP3   OH275069   6.000   3.514  16.234  0.2798  0.6639 -0.3977
17885TIP3    H175070   5.939   3.583  16.207 -1.6442 -0.6492  0.3875
17885TIP3    H275071   6.032   3.544  16.320  0.1450  0.9931 -0.4600
17886TIP3   OH275072   0.710   4.624  13.425 -0.3472 -0.1415 -0.0248
17886TIP3    H175073   0.701   4.699  13.367 -1.3882  0.1332  0.4619
17886TIP3    H275074   0.804   4.612  13.435 -0.1496  1.8867  0.8971
17887TIP3   OH275075   0.662   6.013  13.018 -0.1416  0.4205 -0.1370
17887TIP3    H175076   0.683   6.027  12.925 -0.7751 -1.9542 -0.6883
17887TIP3    H275077   0.568   6.028  13.024 -0.1986  0.0173 -0.0055
17888TIP3   OH275078   6.715   4.418  12.664 -0.2311  0.4614  0.4744
17888TIP3    H175079   6.653   4.486  12.690  0.2290  0.9882  0.2182
17888TIP3    H275080   6.664   4.337  12.666 -0.7329  0.7849  0.9787
17889TIP3   OH275081   1.988   5.535  17.109 -0.9252 -0.4547 -0.1036
17889TIP3    H175082   1.896   5.513  17.094 -1.2614  0.2354  0.9295
17889TIP3    H275083   2.012   5.587  17.032 -1.4143 -0.5684 -0.3425
17890TIP3   OH275084   1.565   4.180  13.761 -0.6184 -0.1224  0.1164
17890TIP3    H175085   1.484   4.130  13.770 -0.5921  0.1296  2.3191
17890TIP3    H275086   1.537   4.269  13.738 -0.7844 -0.6177 -1.6940
17891TIP3   OH275087   4.093   6.051  13.119 -0.3580  0.2346 -0.3845
17891TIP3    H175088   4.159   6.103  13.074  3.3979 -1.4151  2.6110
17891TIP3    H275089   4.049   6.112  13.177  1.2139  0.8433  0.2275
17892TIP3   OH275090   5.419   5.342   5.001 -0.0173 -0.1819 -0.4785
17892TIP3    H175091   5.402   5.390   5.082 -1.9527 -0.3394 -0.7414
17892TIP3    H275092   5.424   5.410   4.934 -1.4388 -0.2113 -0.6490
17893TIP3   OH275093   4.152   6.383  14.547 -0.3768  0.1762  0.2691
17893TIP3    H175094   4.217   6.432  14.597 -0.8715 -1.2833  2.4567
17893TIP3    H275095   4.195   6.299  14.529  0.0814  0.8846 -2.5521
17894TIP3   OH275096   1.287   0.692  11.917  0.3803 -0.0721 -0.0713
17894TIP3    H175097   1.247   0.765  11.870  0.3653 -0.8702 -1.3353
17894TIP3    H275098   1.298   0.624  11.851  0.0922 -1.3438  1.1449
17895TIP3   OH275099   2.243   0.739  14.583 -0.2035 -0.0625 -0.0571
17895TIP3    H175100   2.159   0.711  14.619 -0.0455  0.8162  1.0590
17895TIP3    H275101   2.277   0.801  14.647  0.8810  0.2909 -0.9395
17896TIP3   OH275102   4.185   3.964  11.105 -0.0405 -0.5128  0.1338
17896TIP3    H175103   4.195   4.059  11.113 -1.1639 -0.3168 -0.5313
17896TIP3    H275104   4.130   3.953  11.028  1.1564 -1.7724 -0.5896
17897TIP3   OH275105   5.915   1.911   0.170  0.2412 -0.1666  0.2109
17897TIP3    H175106   6.001   1.876   0.148  0.4004  1.1009 -1.4270
17897TIP3    H275107   5.910   1.993   0.120 -1.4753  0.3335  1.1497
17898TIP3   OH275108   5.089   6.463  16.686  0.7008 -0.2027 -0.5782
17898TIP3    H175109   5.019   6.495  16.629  0.3829  0.1724  0.0060
17898TIP3    H275110   5.170   6.480  16.638  0.3928 -0.6797 -1.2828
17899TIP3   OH275111   1.403   6.090  12.222  0.3095  0.0657  0.0895
17899TIP3    H175112   1.442   6.095  12.134 -0.2280 -0.2061 -0.1647
17899TIP3    H275113   1.385   6.181  12.245 -1.4133  0.0270 -0.9299
17900TIP3   OH275114   3.002   2.642   4.649  0.1177 -0.0309  0.1593
17900TIP3    H175115   2.959   2.566   4.609 -0.8594 -0.3681  1.7572
17900TIP3    H275116   3.081   2.655   4.597 -0.9259 -0.6194 -1.6626
17901TIP3   OH275117   3.321   4.273   5.239  0.0797  0.1359 -0.0206
17901TIP3    H175118   3.403   4.322   5.229 -0.6290  1.4178  0.2947
17901TIP3    H275119   3.324   4.239   5.328  1.6660 -2.5220 -0.9618
17902TIP3   OH275120   2.038   0.539  16.044  0.6730 -0.5882 -0.0085
17902TIP3    H175121   2.097   0.569  16.112  1.1601 -0.1134 -0.6250
17902TIP3    H275122   2.062   0.447  16.031  1.6539 -0.2684 -0.6125
17903TIP3   OH275123   3.439   2.020   4.867  0.5191  0.0794 -0.1846
17903TIP3    H175124   3.474   1.937   4.898  1.6968  0.3125 -0.8244
17903TIP3    H275125   3.345   2.015   4.884  0.8769 -0.4811  1.7764
17904TIP3   OH275126   2.405   5.638  11.431 -0.2611 -0.0177  0.0788
17904TIP3    H175127   2.473   5.667  11.370 -0.5963  0.2604 -0.1698
17904TIP3    H275128   2.323   5.662  11.388 -0.4969  1.4756  1.2556
17905TIP3   OH275129   4.880   4.003  14.966 -0.2729 -0.2585  0.4303
17905TIP3    H175130   4.842   3.924  15.006 -0.0952 -0.0032  1.1191
17905TIP3    H275131   4.950   3.969  14.909 -0.6598 -0.6397  0.1725
17906TIP3   OH275132   1.110   0.409  11.396  0.4021 -0.6086 -0.0538
17906TIP3    H175133   1.056   0.376  11.468  0.0270 -1.5761 -0.7724
17906TIP3    H275134   1.100   0.345  11.326  1.6801 -0.2748 -0.5722
17907TIP3   OH275135   0.932   1.533   2.886  0.4340  0.7300 -0.2015
17907TIP3    H175136   1.013   1.563   2.844  1.4711 -1.4863  0.0439
17907TIP3    H275137   0.862   1.576   2.837  1.7162  1.2564 -1.6532
17908TIP3   OH275138   2.282   3.465   3.419 -0.3825 -0.3029 -0.0096
17908TIP3    H175139   2.351   3.530   3.404 -0.9383  0.4460  0.5931
17908TIP3    H275140   2.267   3.426   3.334  0.2873  0.0383 -0.2904
17909TIP3   OH275141   6.267   4.980  14.730 -0.2881  0.4689 -1.0406
17909TIP3    H175142   6.213   5.054  14.701 -1.3291 -0.5188 -1.7146
17909TIP3    H275143   6.337   5.020  14.781  1.0685  2.2540 -4.0540
17910TIP3   OH275144   3.556   3.219  14.147 -0.7900 -0.0091  0.6815
17910TIP3    H175145   3.516   3.137  14.174 -1.6345  0.3084  0.4226
17910TIP3    H275146   3.650   3.204  14.157 -0.8253 -1.5345 -0.7674
17911TIP3   OH275147   0.101   0.433   1.211  0.3050 -0.3330 -0.4007
17911TIP3    H175148   0.157   0.505   1.179 -0.0587  0.3539  0.4625
17911TIP3    H275149   0.012   0.459   1.187  0.2730 -1.1009 -1.1689
17912TIP3   OH275150   5.137   3.120   3.022 -0.2306 -0.0614 -0.4820
17912TIP3    H175151   5.122   3.026   3.015  0.7565 -0.2846  0.2430
17912TIP3    H275152   5.050   3.159   3.012 -0.6798 -1.0566 -0.5580
17913TIP3   OH275153   4.654   3.953   2.332  0.1385  0.2093 -0.6400
17913TIP3    H175154   4.672   3.877   2.387  0.8217  1.9698  1.6959
17913TIP3    H275155   4.599   4.010   2.385 -1.3658  0.8800 -2.7797
17914TIP3   OH275156   5.211   6.374   4.667  0.6253 -0.5569 -0.5953
17914TIP3    H175157   5.248   6.289   4.644  1.7791 -0.4659  0.7632
17914TIP3    H275158   5.131   6.353   4.715  1.0909 -0.9037  0.0450
17915TIP3   OH275159   0.559   3.836  16.481 -0.1695  0.1791 -0.0356
17915TIP3    H175160   0.535   3.870  16.567  0.5133  0.1876  0.1566
17915TIP3    H275161   0.546   3.742  16.488 -2.0832  0.3568 -0.5754
17916TIP3   OH275162   0.592   5.347  14.003 -0.2089  0.0316  0.3943
17916TIP3    H175163   0.664   5.291  14.029 -0.3264 -0.0452  0.5569
17916TIP3    H275164   0.518   5.318  14.058 -1.2291 -1.9854 -1.8719
17917TIP3   OH275165   5.355   2.044   0.868 -0.0530  0.3296  0.0509
17917TIP3    H175166   5.368   2.092   0.950 -0.3280  0.0542  0.2599
17917TIP3    H275167   5.260   2.045   0.856  0.0901  1.9839 -1.2336
17918TIP3   OH275168   2.027   3.759   3.281  0.1436 -0.2683  0.0326
17918TIP3    H175169   1.962   3.727   3.219  0.5739 -0.4106 -0.3472
17918TIP3    H275170   2.003   3.850   3.297 -1.8235 -1.0563  2.0452
17919TIP3   OH275171   2.182   1.123   0.904  0.2902  0.4703 -1.2995
17919TIP3    H175172   2.100   1.090   0.942  0.6898  1.2586  0.3407
17919TIP3    H275173   2.161   1.211   0.873  0.5612  0.7897 -0.6078
17920TIP3   OH275174   2.212   0.318  16.155 -0.0439 -0.3115 -0.1725
17920TIP3    H175175   2.290   0.364  16.126 -0.7040 -0.1405 -1.8110
17920TIP3    H275176   2.190   0.260  16.082 -1.0068 -0.9228  0.5730
17921TIP3   OH275177   1.690   6.325   1.836  0.2401  0.2073 -0.3184
17921TIP3    H175178   1.606   6.369   1.851  0.1599  0.5135 -1.5465
17921TIP3    H275179   1.741   6.343   1.915 -0.9045 -0.1333  0.5243
17922TIP3   OH275180   0.740   0.797   2.648  0.8155 -0.1356  0.6685
17922TIP3    H175181   0.720   0.869   2.589  0.8283 -1.9030 -1.6451
17922TIP3    H275182   0.835   0.798   2.657  0.7946  0.2701  0.8268
17923TIP3   OH275183   2.153   0.123   4.314  0.2481 -0.4238  0.1328
17923TIP3    H175184   2.168   0.069   4.236 -1.3824 -0.3140 -0.2919
17923TIP3    H275185   2.234   0.116   4.364  1.1571 -0.8747 -1.3479
17924TIP3   OH275186   0.098   2.657   3.361 -0.6525  0.2020  0.0742
17924TIP3    H175187   0.040   2.586   3.389 -0.3660 -0.3023 -0.5789
17924TIP3    H275188   0.138   2.688   3.442 -2.1027  0.8233  0.5914
17925TIP3   OH275189   3.721   1.510   2.602  0.3302 -0.1085  0.1226
17925TIP3    H175190   3.661   1.555   2.542  0.1333  0.6596  0.8708
17925TIP3    H275191   3.797   1.487   2.547 -0.2649 -0.3201 -0.6364
17926TIP3   OH275192   2.987   5.928  16.171  0.5756  0.0375 -0.2350
17926TIP3    H175193   2.997   5.833  16.169  1.5830  0.1439 -1.6202
17926TIP3    H275194   3.058   5.958  16.227  0.8867  0.0406 -0.6312
17927TIP3   OH275195   5.237   3.065   5.651  0.4706 -0.3925  0.1402
17927TIP3    H175196   5.156   3.103   5.617  0.0426 -0.7947  0.7048
17927TIP3    H275197   5.258   2.996   5.588 -0.0978 -0.8610  0.4537
17928TIP3   OH275198   0.230   4.278  17.101  0.1036 -0.0373  0.1517
17928TIP3    H175199   0.136   4.290  17.119  0.3405  2.0319  0.2361
17928TIP3    H275200   0.262   4.230  17.177 -0.2339  2.5202  2.0562
17929TIP3   OH275201   1.691   1.966   5.937  0.3282  0.0798  0.3684
17929TIP3    H175202   1.678   2.038   5.999 -0.4103 -0.4596  0.8561
17929TIP3    H275203   1.786   1.965   5.921  0.3721  1.0285  0.5030
17930TIP3   OH275204   0.656   5.942   4.576 -0.5054 -0.4325 -0.0427
17930TIP3    H175205   0.692   5.962   4.490 -0.2242  1.9233  0.5703
17930TIP3    H275206   0.720   5.882   4.615  0.2500 -0.1369 -0.8132
17931TIP3   OH275207   6.516   3.876   3.948 -0.4442  0.2900  0.3528
17931TIP3    H175208   6.596   3.892   3.899 -0.2471 -0.6424  0.3390
17931TIP3    H275209   6.542   3.878   4.039 -0.5512  0.7141  0.3749
17932TIP3   OH275210   4.245   2.978  14.672 -0.4108 -0.3988  0.1653
17932TIP3    H175211   4.197   2.911  14.719 -1.8535  0.6101  0.2027
17932TIP3    H275212   4.207   2.977  14.584  0.1975 -0.2559 -0.1053
17933TIP3   OH275213   2.168   3.927  16.191 -0.3017 -0.5878  0.7295
17933TIP3    H175214   2.105   3.996  16.209 -1.2002 -0.5822 -2.0367
17933TIP3    H275215   2.137   3.852  16.242 -1.9419 -0.2776  0.2293
17934TIP3   OH275216   0.299   3.728  14.728 -0.4859 -0.3259 -0.6050
17934TIP3    H175217   0.333   3.711  14.816 -1.8626  0.6510  0.1587
17934TIP3    H275218   0.232   3.661  14.714 -2.5838  1.3989  0.4925
17935TIP3   OH275219   2.027   6.101  16.960  0.1636  0.0688 -0.1182
17935TIP3    H175220   2.108   6.054  16.941  2.6031  3.6019  0.5956
17935TIP3    H275221   2.030   6.178  16.904 -2.8134  0.3015 -0.1240
17936TIP3   OH275222   3.108   4.273   3.130 -0.6760 -0.2275 -0.1464
17936TIP3    H175223   3.065   4.278   3.216 -0.2458  1.5860 -0.0141
17936TIP3    H275224   3.107   4.362   3.097  1.7248 -0.3725 -0.7781
17937TIP3   OH275225   1.958   1.207   1.315  0.4098  0.0047 -0.1390
17937TIP3    H175226   1.871   1.167   1.314  0.0966  0.6289  0.7899
17937TIP3    H275227   1.941   1.301   1.325  1.1923  0.1015  0.3552
17938TIP3   OH275228   2.476   5.443   0.393 -0.0704  0.1011 -0.3036
17938TIP3    H175229   2.430   5.434   0.477  2.0178  3.2733  1.3792
17938TIP3    H275230   2.551   5.384   0.400  0.1104  0.3747  0.0608
17939TIP3   OH275231   1.335   4.974   3.255  0.5028  0.7577 -0.2271
17939TIP3    H175232   1.240   4.968   3.268  0.2568  2.0149 -1.3182
17939TIP3    H275233   1.370   4.987   3.343 -0.2077 -0.8124  0.3366
17940TIP3   OH275234   0.822   5.219  15.116 -0.0419  0.4737 -0.2244
17940TIP3    H175235   0.822   5.251  15.026 -1.8309  0.4111 -0.2874
17940TIP3    H275236   0.901   5.256  15.155  2.1952 -1.5640 -2.4860
17941TIP3   OH275237   6.376   2.618  16.096  0.5852 -0.5015  0.5370
17941TIP3    H175238   6.438   2.685  16.069  0.1838 -0.4211 -0.2128
17941TIP3    H275239   6.291   2.663  16.101  0.5901 -0.5831  1.6623
17942TIP3   OH275240   4.948   0.346  13.713 -0.3843  0.2873  0.0922
17942TIP3    H175241   4.890   0.363  13.639 -0.3418 -0.3047 -0.0825
17942TIP3    H275242   4.929   0.255  13.738  0.5772  0.0256 -0.0672
17943TIP3   OH275243   6.676   1.851   2.395  0.2023 -0.0150  0.7293
17943TIP3    H175244   6.680   1.861   2.300  2.3846 -0.9889  0.6780
17943TIP3    H275245   6.583   1.834   2.413 -0.2057 -0.1082 -1.2357
17944TIP3   OH275246   6.231   0.514  15.697 -0.7880  0.7055  0.2607
17944TIP3    H175247   6.158   0.454  15.716 -2.2474  2.2774 -0.1716
17944TIP3    H275248   6.293   0.497  15.768 -1.7026 -0.4460  0.8439
17945TIP3   OH275249   2.253   2.049  14.973 -0.0354  0.0396  0.1752
17945TIP3    H175250   2.273   2.086  15.059  1.1829  0.2500 -0.1916
17945TIP3    H275251   2.158   2.060  14.964 -0.2984 -0.6696  1.8029
17946TIP3   OH275252   3.274   6.594   2.145  0.1610  0.3179 -0.1831
17946TIP3    H175253   3.226   6.512   2.153  0.0692  0.2406 -1.4108
17946TIP3    H275254   3.313   6.591   2.058  0.2482  1.5283 -0.1993
17947TIP3   OH275255   0.055   3.400  13.423 -0.1589  0.0143 -0.2085
17947TIP3    H175256   0.015   3.428  13.505 -0.2667 -0.0430 -0.2414
17947TIP3    H275257   0.148   3.392  13.443 -0.1488  0.2486 -0.1581
17948TIP3   OH275258   5.179   4.603   4.149  0.0588 -0.1606 -0.0395
17948TIP3    H175259   5.233   4.659   4.206 -1.5390 -1.3562  2.8604
17948TIP3    H275260   5.237   4.531   4.125  0.7080  0.2423  0.2873
17949TIP3   OH275261   3.810   4.670  16.797  0.2084  0.2951 -0.1391
17949TIP3    H175262   3.735   4.717  16.832  1.1608  1.4776  0.3700
17949TIP3    H275263   3.810   4.691  16.704 -0.7751 -0.7067 -0.3965
17950TIP3   OH275264   5.088   3.223   6.413  0.3742  0.2774  0.0217
17950TIP3    H175265   5.054   3.300   6.368  0.9363  1.2911  1.2929
17950TIP3    H275266   5.183   3.228   6.402  0.6233  1.1379  2.1826
17951TIP3   OH275267   1.022   6.348   3.982 -0.5295 -0.5169 -0.6633
17951TIP3    H175268   1.098   6.406   3.981 -1.5647  0.9072 -0.3521
17951TIP3    H275269   1.017   6.317   4.073  0.0511 -1.1350 -0.8402
17952TIP3   OH275270   3.699   5.920   1.659 -0.1041  0.8819  0.2031
17952TIP3    H175271   3.631   5.870   1.704  0.4676 -1.0347 -0.9461
17952TIP3    H275272   3.773   5.920   1.721  0.3093 -0.8073 -0.2371
17953TIP3   OH275273   6.672   5.641  11.784 -0.0773 -0.1314  0.3466
17953TIP3    H175274   6.722   5.708  11.830 -1.2904  0.5493  0.7236
17953TIP3    H275275   6.699   5.559  11.824 -2.7395  0.5477  4.0689
17954TIP3   OH275276   4.068   5.998  11.618  0.1295  0.2768  0.1405
17954TIP3    H175277   4.147   5.962  11.659  0.8612 -0.1158 -1.5134
17954TIP3    H275278   4.010   5.923  11.608 -0.1120  0.4017  0.5778
17955TIP3   OH275279   0.236   0.582  12.893 -0.4830  0.0641 -0.1191
17955TIP3    H175280   0.253   0.545  12.806 -1.0156  0.7320 -0.5125
17955TIP3    H275281   0.312   0.637  12.911  0.0406 -0.7433  0.2221
17956TIP3   OH275282   6.349   5.241   4.833  0.2631 -0.1412 -0.6048
17956TIP3    H175283   6.258   5.234   4.862  0.8442 -0.8662  1.1660
17956TIP3    H275284   6.349   5.204   4.745 -0.7645 -2.2980  0.2378
17957TIP3   OH275285   3.382   4.167   2.040 -0.5386  0.4865 -0.2932
17957TIP3    H175286   3.427   4.246   2.069  0.3379  0.7149 -2.1310
17957TIP3    H275287   3.417   4.098   2.096  0.0070  1.1102  0.1634
17958TIP3   OH275288   1.845   6.703  13.895 -0.1839  0.5081  0.3208
17958TIP3    H175289   1.878   6.791  13.911 -1.0631  1.0629 -0.7737
17958TIP3    H275290   1.897   6.671  13.821 -1.8677  1.2959 -1.2574
17959TIP3   OH275291   3.108   4.584  11.710  0.5090  0.9722 -0.2868
17959TIP3    H175292   3.068   4.670  11.723  0.3775  0.9558 -0.5771
17959TIP3    H275293   3.066   4.550  11.631 -0.7463 -0.0896  0.7630
17960TIP3   OH275294   0.527   5.766  15.215 -0.5684  0.1540  0.0121
17960TIP3    H175295   0.600   5.805  15.263  0.6777 -0.5020 -1.2967
17960TIP3    H275296   0.495   5.696  15.273  0.9914 -0.7096 -0.1353
17961TIP3   OH275297   5.180   1.297   2.032 -0.6066 -0.4892  0.3875
17961TIP3    H175298   5.155   1.289   1.940 -0.7822 -1.9080  0.5305
17961TIP3    H275299   5.220   1.383   2.039  5.5357 -2.5844 -2.4981
17962TIP3   OH275300   5.910   4.495   2.348 -0.4945 -0.0244  0.9177
17962TIP3    H175301   5.908   4.549   2.269  1.1708 -0.5147  0.5144
17962TIP3    H275302   5.893   4.406   2.317  0.5378 -0.2743  1.0395
17963TIP3   OH275303   6.613   0.107  11.755  0.3408  0.2691  0.2931
17963TIP3    H175304   6.661   0.025  11.770  0.5525  0.2800 -0.2709
17963TIP3    H275305   6.674   0.160  11.702 -0.2276  0.3500 -0.2890
17964TIP3   OH275306   0.687   1.097   3.151  0.7199 -0.3213 -0.1359
17964TIP3    H175307   0.683   1.056   3.237 -1.7592 -1.7479 -0.8076
17964TIP3    H275308   0.628   1.044   3.097  1.1201  1.3388 -2.3637
17965TIP3   OH275309   4.033   5.068   4.794  0.2236  0.2380  0.1494
17965TIP3    H175310   4.086   5.147   4.794  0.1847  0.2662  0.5200
17965TIP3    H275311   3.959   5.088   4.737  1.7434 -0.5828 -2.2635
17966TIP3   OH275312   1.880   4.237  16.594  0.8161 -0.0663  0.2645
17966TIP3    H175313   1.964   4.283  16.587  0.1702  1.0235 -0.7599
17966TIP3    H275314   1.849   4.231  16.504 -1.9356  2.9849  0.8160
17967TIP3   OH275315   6.422   2.989   0.465  0.3343  0.0958 -0.8651
17967TIP3    H175316   6.500   2.945   0.499 -0.0742  1.2020  1.7490
17967TIP3    H275317   6.352   2.963   0.525 -0.6486  1.5144 -1.3455
17968TIP3   OH275318   2.720   1.559   0.714  0.0157 -0.2460 -0.4321
17968TIP3    H175319   2.779   1.539   0.786 -0.0911 -0.6164 -0.4473
17968TIP3    H275320   2.640   1.589   0.756  0.4142  0.8537 -0.4167
17969TIP3   OH275321   4.819   1.250   0.910  0.3951  0.0477  0.1349
17969TIP3    H175322   4.780   1.334   0.935  1.1850  0.2093  0.9060
17969TIP3    H275323   4.753   1.185   0.936  0.5031  0.3278  1.1896
17970TIP3   OH275324   5.303   1.293   3.397  0.2356 -0.2653  0.7113
17970TIP3    H175325   5.293   1.212   3.347 -0.8741 -0.0137  0.4948
17970TIP3    H275326   5.354   1.269   3.473  2.3236 -0.5887 -0.7174
17971TIP3   OH275327   2.298   1.983  11.815 -0.5907 -0.0132 -0.1117
17971TIP3    H175328   2.268   2.038  11.887 -1.1954 -1.1381  0.5212
17971TIP3    H275329   2.274   1.894  11.840 -1.8087 -0.3468 -2.1819
17972TIP3   OH275330   0.332   5.423  14.821 -0.8450 -0.2622 -0.2112
17972TIP3    H175331   0.290   5.370  14.753  0.5893 -0.7020 -0.8057
17972TIP3    H275332   0.297   5.511  14.808 -1.0317 -0.4626 -1.1564
17973TIP3   OH275333   6.138   5.058   5.297 -0.1302  0.4021  0.3255
17973TIP3    H175334   6.134   5.105   5.213 -0.5384  1.1123  0.7378
17973TIP3    H275335   6.092   4.976   5.281  0.4095  0.2193 -0.3468
17974TIP3   OH275336   1.112   5.409   4.976  0.4994 -0.4371  0.6883
17974TIP3    H175337   1.108   5.339   4.911  0.2651  0.4725 -0.2925
17974TIP3    H275338   1.203   5.440   4.972  0.2842  0.1494  0.2127
17975TIP3   OH275339   1.589   6.241  15.465  0.5850 -0.3391  0.2224
17975TIP3    H175340   1.570   6.190  15.387  1.3764  2.6058 -2.1123
17975TIP3    H275341   1.683   6.256  15.462  0.3000  1.8419  0.2814
17976TIP3   OH275342   2.834   5.092   1.646  0.0832  0.0892  0.0378
17976TIP3    H175343   2.777   5.126   1.578  0.2597 -1.4351 -0.9223
17976TIP3    H275344   2.796   5.007   1.669  1.2878 -0.4304  0.2086
17977TIP3   OH275345   3.278   2.964  12.958 -0.1363 -0.5498 -0.2679
17977TIP3    H175346   3.197   2.934  12.916 -0.2750 -0.0212 -0.3963
17977TIP3    H275347   3.249   3.021  13.029  0.0850 -2.0253  1.0410
17978TIP3   OH275348   4.389   1.626  16.665  0.6076 -0.1730  0.1677
17978TIP3    H175349   4.434   1.577  16.595  0.9967 -0.6808  0.7610
17978TIP3    H275350   4.422   1.587  16.746 -0.2196  0.0689  0.6311
17979TIP3   OH275351   3.400   2.638  11.721 -0.0878 -0.2599 -0.5582
17979TIP3    H175352   3.393   2.733  11.715  1.7427 -0.1250 -1.2534
17979TIP3    H275353   3.481   2.617  11.675  0.1849 -2.0378  0.6221
17980TIP3   OH275354   2.410   6.226   3.536 -0.0853 -0.2238  0.1571
17980TIP3    H175355   2.450   6.281   3.469  0.3681  0.0093  0.6151
17980TIP3    H275356   2.369   6.288   3.597  0.3974 -0.3877  0.6553
17981TIP3   OH275357   4.302   3.136   3.064  0.1635  0.3959  0.1867
17981TIP3    H175358   4.340   3.211   3.109  0.2508 -0.4774  1.6365
17981TIP3    H275359   4.345   3.060   3.104 -1.6098 -0.5306  0.4442
17982TIP3   OH275360   5.760   0.566   2.138 -0.6818 -0.3593 -0.2723
17982TIP3    H175361   5.739   0.482   2.179 -0.5306 -0.6754 -0.8279
17982TIP3    H275362   5.750   0.630   2.208  0.4229 -0.9901  0.4955
17983TIP3   OH275363   6.739   3.257  12.305  0.8260 -0.0234 -0.2872
17983TIP3    H175364   6.771   3.323  12.244  2.2437 -1.1487 -0.8194
17983TIP3    H275365   6.813   3.197  12.317 -0.2737 -1.2962  0.4728
17984TIP3   OH275366   3.937   0.109   2.328 -0.1205  0.8718 -0.3673
17984TIP3    H175367   3.995   0.099   2.404  2.1153  1.0355 -1.9529
17984TIP3    H275368   3.849   0.113   2.366  0.7099 -1.0392  2.0651
17985TIP3   OH275369   4.925   2.373   0.686  0.5572  0.0753  0.3537
17985TIP3    H175370   4.975   2.322   0.750 -1.5330 -2.5209  0.1286
17985TIP3    H275371   4.902   2.453   0.732  0.0150 -1.2399  2.5564
17986TIP3   OH275372   6.433   2.878  15.009 -0.0162  0.0552 -0.4733
17986TIP3    H175373   6.369   2.838  14.950  0.9552  1.5213 -2.6406
17986TIP3    H275374   6.380   2.921  15.076 -1.2761  0.3183 -1.6004
17987TIP3   OH275375   2.010   0.307  14.979 -0.8308  0.4043  0.3092
17987TIP3    H175376   2.031   0.260  14.898 -0.6078 -0.9070  1.1020
17987TIP3    H275377   1.978   0.393  14.949  3.3207  1.7081 -1.0706
17988TIP3   OH275378   3.017   6.435  13.110 -0.3828  0.3139 -0.3291
17988TIP3    H175379   3.041   6.515  13.065  0.5784  2.0843  2.9594
17988TIP3    H275380   3.100   6.393  13.131 -0.5772  0.8691  1.8196
17989TIP3   OH275381   1.011   4.865  15.024  0.2741  0.3010  0.2973
17989TIP3    H175382   0.995   4.896  15.113 -2.6323 -0.7877  0.2863
17989TIP3    H275383   0.943   4.799  15.010  3.9791 -3.7449 -0.8383
17990TIP3   OH275384   1.102   6.333  16.989 -0.7403 -0.2168 -0.2947
17990TIP3    H175385   1.029   6.365  16.936 -0.4127 -0.7113 -1.0435
17990TIP3    H275386   1.060   6.283  17.060 -1.2115  1.0897  0.3819
17991TIP3   OH275387   0.237   1.432  14.360  0.6145 -0.3603 -0.4381
17991TIP3    H175388   0.224   1.519  14.399 -1.4056 -0.7780 -0.0859
17991TIP3    H275389   0.238   1.448  14.266 -2.1942 -0.1452 -0.5160
17992TIP3   OH275390   6.651   6.112   2.185 -0.1202  0.1194  0.2936
17992TIP3    H175391   6.708   6.035   2.180  1.2109  0.8560  2.6146
17992TIP3    H275392   6.622   6.126   2.095  0.9227 -2.0890 -0.4738
17993TIP3   OH275393   3.285   0.316  15.679 -0.6185 -0.5073  0.5692
17993TIP3    H175394   3.191   0.306  15.692 -0.8751  0.7739 -0.1413
17993TIP3    H275395   3.319   0.342  15.765 -0.5253 -3.2025  1.4195
17994TIP3   OH275396   3.049   2.804   4.316  0.5006  0.2044  0.5837
17994TIP3    H175397   3.136   2.835   4.290  0.4043 -0.4351 -0.5877
17994TIP3    H275398   3.030   2.734   4.254 -1.5080  1.3926 -0.2411
17995TIP3   OH275399   1.796   3.372   0.667  0.3147  0.7521  0.1987
17995TIP3    H175400   1.827   3.419   0.744 -0.8887  0.5384  0.8248
17995TIP3    H275401   1.851   3.294   0.663 -0.1866  0.3143  1.3704
17996TIP3   OH275402   0.148   0.088  12.733  0.3072  0.6829  0.1858
17996TIP3    H175403   0.206   0.126  12.799 -1.2096 -0.7175  2.4583
17996TIP3    H275404   0.066   0.137  12.742  0.1556  0.6361 -0.8535
17997TIP3   OH275405   0.627   6.694   4.568 -0.2441 -0.9338  0.1413
17997TIP3    H175406   0.661   6.623   4.624 -0.5685  0.2777  1.9647
17997TIP3    H275407   0.704   6.727   4.522  0.7347  0.2859  2.5056
17998TIP3   OH275408   0.196   5.244  17.153 -0.7864  0.5200 -0.0377
17998TIP3    H175409   0.271   5.207  17.200 -0.0647  0.6012 -1.0762
17998TIP3    H275410   0.196   5.199  17.069 -1.5408  0.9609 -0.2858
17999TIP3   OH275411   0.995   0.725  16.573 -0.1903  0.0890 -0.8308
17999TIP3    H175412   0.961   0.790  16.512 -0.7321  0.3130 -0.2998
17999TIP3    H275413   0.973   0.641  16.533 -2.3119  0.2018 -0.0270
18000TIP3   OH275414   4.700   0.590  11.204  0.7196 -0.4233  0.7982
18000TIP3    H175415   4.619   0.578  11.155  1.0620 -2.1949  0.5943
18000TIP3    H275416   4.752   0.649  11.151 -0.5758  1.0921  1.1414
18001TIP3   OH275417   1.690   4.343   4.944 -0.5538  0.2631  0.2467
18001TIP3    H175418   1.658   4.261   4.980 -1.9462  0.6782  0.0135
18001TIP3    H275419   1.718   4.320   4.855  0.9573 -0.3358  0.8361
18002TIP3   OH275420   5.002   0.444   5.313 -0.1915  0.2896 -0.2168
18002TIP3    H175421   5.026   0.376   5.377 -1.0779 -1.2314 -1.4360
18002TIP3    H275422   4.967   0.515   5.367 -0.3891 -0.7139  1.0405
18003TIP3   OH275423   3.525   0.660   0.763  0.4973  0.0517  0.0577
18003TIP3    H175424   3.608   0.633   0.725  0.1192 -1.2926  0.1626
18003TIP3    H275425   3.525   0.623   0.851 -0.8311 -1.2397 -0.4453
18004TIP3   OH275426   5.225   2.767   2.263  0.5761 -0.5986 -0.1503
18004TIP3    H175427   5.301   2.761   2.320  0.8222  0.3014 -0.3570
18004TIP3    H275428   5.168   2.695   2.290  0.7062 -0.2153  1.1931
18005TIP3   OH275429   1.042   5.576  16.545 -0.1363  0.3112  0.2270
18005TIP3    H175430   1.081   5.494  16.515  1.2517  0.6785  0.9321
18005TIP3    H275431   1.106   5.612  16.606 -1.4960  1.0819  1.2651
18006TIP3   OH275432   5.620   5.014  14.793 -0.7028  0.7909 -0.1224
18006TIP3    H175433   5.601   5.086  14.733  1.2207  1.0363 -0.5179
18006TIP3    H275434   5.715   5.002  14.787 -0.9479 -1.8986 -0.2028
18007TIP3   OH275435   1.819   6.427  17.114  0.6654  0.1019  0.2254
18007TIP3    H175436   1.742   6.401  17.165  0.3643  0.2905 -0.1341
18007TIP3    H275437   1.889   6.371  17.148  1.2974  2.3937  3.2177
18008TIP3   OH275438   4.251   5.702   4.838  0.2831  0.3256 -0.3595
18008TIP3    H175439   4.301   5.634   4.794  0.9589  0.3792  0.3128
18008TIP3    H275440   4.171   5.658   4.867 -0.3953  0.3895 -1.9989
18009TIP3   OH275441   4.364   5.459   6.360  0.2429 -0.7324  0.8270
18009TIP3    H175442   4.412   5.406   6.297  0.3866  0.0480  0.2680
18009TIP3    H275443   4.429   5.484   6.425 -0.1476 -2.5429  2.0012
18010TIP3   OH275444   6.332   5.481   3.342  0.4792 -0.4169  0.2538
18010TIP3    H175445   6.373   5.542   3.404  0.9923 -0.4839 -0.0134
18010TIP3    H275446   6.309   5.535   3.267  2.1957 -0.7698 -0.5720
18011TIP3   OH275447   0.567   4.943   6.803 -0.1915 -0.0759  0.0601
18011TIP3    H175448   0.646   4.989   6.833 -0.2887  0.6615 -0.8053
18011TIP3    H275449   0.511   5.011   6.766 -0.3926 -0.8628 -1.1324
18012TIP3   OH275450   3.458   6.073   1.591 -0.1331 -0.1530 -0.4338
18012TIP3    H175451   3.485   5.992   1.548 -2.0759 -1.1284  0.1172
18012TIP3    H275452   3.363   6.070   1.593 -0.3635  2.7552 -1.5206
18013TIP3   OH275453   1.143   4.898  12.714 -0.2369  0.2134 -0.0459
18013TIP3    H175454   1.137   4.838  12.788 -2.4813 -0.8957 -1.0029
18013TIP3    H275455   1.171   4.843  12.641  1.3863  1.1679 -0.1859
18014TIP3   OH275456   1.260   5.226   1.629 -0.9037 -0.0174 -0.6808
18014TIP3    H175457   1.255   5.171   1.707 -1.1976  0.5137 -0.3210
18014TIP3    H275458   1.192   5.192   1.571 -0.7986 -0.3046 -0.6373
18015TIP3   OH275459   6.095   1.812  15.974  0.4403 -0.7543 -0.3850
18015TIP3    H175460   6.007   1.833  16.005  1.1511  0.6235  0.8003
18015TIP3    H275461   6.090   1.720  15.948 -1.3983 -0.6360 -0.5816
18016TIP3   OH275462   2.315   3.927  16.909  0.0030  0.2114 -0.2080
18016TIP3    H175463   2.300   3.977  16.829 -1.1539  0.6992  0.3009
18016TIP3    H275464   2.401   3.887  16.896  0.3514  1.2398 -1.1840
18017TIP3   OH275465   1.816   5.081   5.968  0.1984 -0.0692  0.0010
18017TIP3    H175466   1.723   5.095   5.948  0.2436 -0.4614 -0.5203
18017TIP3    H275467   1.817   5.048   6.057 -0.3323 -1.9491 -0.6421
18018TIP3   OH275468   0.185   1.344   3.120 -0.3792  0.2067  1.4786
18018TIP3    H175469   0.200   1.376   3.209 -0.0302  0.0568  1.4765
18018TIP3    H275470   0.128   1.409   3.080  1.3806  1.5620  1.0435
18019TIP3   OH275471   3.815   0.923  13.901  0.3975  0.6619  0.0926
18019TIP3    H175472   3.788   0.919  13.993 -0.3937  0.6520 -0.1347
18019TIP3    H275473   3.755   0.864  13.856  2.5620 -1.6598 -0.0283
18020TIP3   OH275474   0.498   4.300  12.505 -0.1260  0.3220  0.7674
18020TIP3    H175475   0.482   4.343  12.589  0.4245  2.2530 -0.0568
18020TIP3    H275476   0.440   4.345  12.443  0.9575  0.3714 -0.2674
18021TIP3   OH275477   0.903   3.281  11.176 -0.5064 -0.2845 -0.9151
18021TIP3    H175478   0.932   3.193  11.153  1.5051 -1.1003  3.6152
18021TIP3    H275479   0.822   3.268  11.226  0.0236  0.3083  0.1551
18022TIP3   OH275480   5.934   3.371  14.955  0.2913  0.0450 -0.6438
18022TIP3    H175481   5.964   3.290  14.997  1.7231  1.3814  1.1038
18022TIP3    H275482   5.845   3.383  14.987  0.1022 -0.7781 -0.8451
18023TIP3   OH275483   3.403   3.234  13.356 -0.2466  0.1922 -0.3369
18023TIP3    H175484   3.308   3.246  13.352 -0.0070  2.2873 -0.9797
18023TIP3    H275485   3.417   3.143  13.330 -2.0550 -0.0483 -0.5894
18024TIP3   OH275486   2.000   2.151  14.879  0.1044 -0.5173  0.1500
18024TIP3    H175487   2.044   2.236  14.881 -0.8795  0.0554 -0.8560
18024TIP3    H275488   1.914   2.168  14.919  0.5258 -1.4699  1.5368
18025TIP3   OH275489   6.238   5.080  13.328 -0.4097 -0.2303 -0.4031
18025TIP3    H175490   6.247   5.030  13.248  1.9625 -1.2559  0.4256
18025TIP3    H275491   6.288   5.160  13.312 -1.3593  0.3551 -0.5224
18026TIP3   OH275492   1.224   3.619   4.137 -0.4723  0.1363 -0.3733
18026TIP3    H175493   1.236   3.534   4.095  0.9860 -0.8538  1.8356
18026TIP3    H275494   1.133   3.642   4.122 -0.5881 -1.2532 -1.9960
18027TIP3   OH275495   2.544   6.582   5.841  0.0620  0.1783 -0.0066
18027TIP3    H175496   2.609   6.512   5.846  1.0333  1.1556  1.5669
18027TIP3    H275497   2.500   6.580   5.926 -0.0536  1.3394 -0.0227
18028TIP3   OH275498   5.791   5.944   3.703 -0.1066  0.2443  0.8905
18028TIP3    H175499   5.756   6.030   3.727  1.6153  0.8289  1.4371
18028TIP3    H275500   5.765   5.886   3.774 -1.8828  0.1031  0.1823
18029TIP3   OH275501   2.726   0.502  15.219  0.3979 -0.3514 -0.1528
18029TIP3    H175502   2.797   0.526  15.159 -0.3518  0.3207 -0.8042
18029TIP3    H275503   2.730   0.569  15.288  1.6273 -1.4516  0.9213
18030TIP3   OH275504   1.701   0.751  10.800 -0.3726 -0.1902  0.2195
18030TIP3    H175505   1.606   0.742  10.804 -0.4354  0.7980  2.1018
18030TIP3    H275506   1.722   0.819  10.864  1.6848 -1.0204  0.5235
18031TIP3   OH275507   1.167   4.337   1.458  0.4694 -0.4129  0.4067
18031TIP3    H175508   1.142   4.326   1.366  0.9053  1.9307 -0.0522
18031TIP3    H275509   1.088   4.369   1.501  1.2650  2.5399 -0.0978
18032TIP3   OH275510   4.307   2.915   2.121 -0.1584  0.2454 -0.6147
18032TIP3    H175511   4.257   2.995   2.135  0.0395  0.2750 -0.0264
18032TIP3    H275512   4.386   2.943   2.074  0.2950  0.5395  0.2814
18033TIP3   OH275513   5.656   2.318  14.195  0.2308 -0.0511 -0.4130
18033TIP3    H175514   5.685   2.408  14.178 -0.9169  0.2964 -0.5713
18033TIP3    H275515   5.736   2.265  14.184  1.2514  1.0821  1.0674
18034TIP3   OH275516   4.104   1.797   1.197  0.7126 -0.5702  0.0440
18034TIP3    H175517   4.056   1.733   1.145 -1.4010  0.2112  0.9425
18034TIP3    H275518   4.118   1.755   1.282 -0.4799  0.0477  0.5606
18035TIP3   OH275519   4.877   6.252  12.036 -0.6066  0.1958 -0.1937
18035TIP3    H175520   4.952   6.199  12.008 -0.5386 -1.0363  2.1236
18035TIP3    H275521   4.805   6.190  12.046 -1.3984  1.0563 -0.3733
18036TIP3   OH275522   2.402   4.009   4.091 -0.3783  0.1122 -0.4197
18036TIP3    H175523   2.330   3.946   4.092 -2.0697  1.8662 -2.1321
18036TIP3    H275524   2.444   3.999   4.176 -1.4286 -2.3211 -0.1078
18037TIP3   OH275525   2.869   1.652  11.268  0.5381 -0.5250  0.4438
18037TIP3    H175526   2.943   1.638  11.327  0.5966 -0.8007  0.3078
18037TIP3    H275527   2.794   1.664  11.326  0.6780 -0.3172  0.5816
18038TIP3   OH275528   3.452   6.481  14.102 -0.1496  0.2728 -0.1946
18038TIP3    H175529   3.409   6.530  14.032  0.1890  1.4197  0.3711
18038TIP3    H275530   3.536   6.526  14.115  0.0746 -0.3261  0.4962
18039TIP3   OH275531   6.767   5.657   5.047  0.0302  0.3927  0.4926
18039TIP3    H175532   6.675   5.676   5.070 -0.2641  1.1147 -1.1485
18039TIP3    H275533   6.813   5.661   5.131 -1.5805 -0.9832  1.5145
18040TIP3   OH275534   5.450   3.746   4.325 -0.3185 -0.1763  0.5691
18040TIP3    H175535   5.504   3.727   4.248  1.6122 -0.8240  1.9986
18040TIP3    H275536   5.454   3.667   4.378 -1.7413  0.1963  1.3005
18041TIP3   OH275537   4.043   5.096  11.146 -0.3298  0.0289  0.1583
18041TIP3    H175538   4.077   5.028  11.088  0.0151 -0.7376  1.2139
18041TIP3    H275539   3.948   5.085  11.141 -0.2805 -2.2203  2.1325
18042TIP3   OH275540   2.379   2.753   3.803 -0.6079  0.4680  0.3318
18042TIP3    H175541   2.456   2.771   3.857  0.1232 -0.1378 -0.4789
18042TIP3    H275542   2.326   2.693   3.855  0.1110 -0.1404  0.3826
18043TIP3   OH275543   6.499   5.931  13.687  0.1250  0.2848  0.2315
18043TIP3    H175544   6.495   6.026  13.703 -1.0887  0.3428 -0.2886
18043TIP3    H275545   6.558   5.921  13.613 -0.5732  0.7493 -0.4049
18044TIP3   OH275546   2.765   3.562  10.718  0.5623 -0.1403  0.0504
18044TIP3    H175547   2.790   3.474  10.690  0.6431 -1.4202  3.6427
18044TIP3    H275548   2.682   3.550  10.764  0.6156  1.6343  0.6752
18045TIP3   OH275549   4.668   2.759   0.137  0.5211  0.2242  0.4398
18045TIP3    H175550   4.583   2.767   0.094 -0.2747 -0.4208  1.8136
18045TIP3    H275551   4.731   2.783   0.070 -0.5467 -2.1243 -1.5823
18046TIP3   OH275552   0.052   1.652   0.284 -0.1279  0.3406 -0.4212
18046TIP3    H175553   0.094   1.574   0.248  0.7347  1.6026 -2.2713
18046TIP3    H275554  -0.012   1.618   0.347  0.6957 -1.8103 -0.6793
18047TIP3   OH275555   0.631   2.339  13.010  0.1947  0.5873 -1.0818
18047TIP3    H175556   0.628   2.364  12.918 -2.5151  0.9564 -0.9631
18047TIP3    H275557   0.642   2.422  13.057 -0.9596  0.7015 -0.9956
18048TIP3   OH275558   4.312   3.494   2.804  0.3965 -0.7567  0.5558
18048TIP3    H175559   4.281   3.514   2.892  1.4800 -1.6179  1.1530
18048TIP3    H275560   4.294   3.401   2.793  0.6090 -0.7346  0.0045
18049TIP3   OH275561   4.806   0.867  14.398  0.1442 -0.0843  0.1024
18049TIP3    H175562   4.802   0.919  14.317 -0.5536  1.7958  1.2781
18049TIP3    H275563   4.716   0.840  14.413  0.0783  0.4894  0.7922
18050TIP3   OH275564   0.642   5.092   1.167 -0.8239 -0.1360 -0.2558
18050TIP3    H175565   0.575   5.082   1.099 -0.8911  0.0253 -0.2124
18050TIP3    H275566   0.721   5.052   1.129 -0.1445  2.1528 -1.4507
18051TIP3   OH275567   5.306   6.148  12.700 -0.1638 -0.5042 -0.8606
18051TIP3    H175568   5.354   6.147  12.617 -0.9838  3.4159 -1.6031
18051TIP3    H275569   5.372   6.170  12.766 -0.1884  0.7548 -1.2302
18052TIP3   OH275570   3.570   6.270   1.821  0.4197 -0.0951  0.1408
18052TIP3    H175571   3.653   6.268   1.868  0.6342 -0.4686 -0.2442
18052TIP3    H275572   3.558   6.180   1.790  0.4216  0.2045 -0.7450
18053TIP3   OH275573   5.961   1.312   2.575 -0.0548  0.4006  0.1871
18053TIP3    H175574   6.046   1.354   2.589  0.1917 -0.4555  1.4678
18053TIP3    H275575   5.905   1.348   2.644 -0.3216 -0.0903  0.2319
18054TIP3   OH275576   3.765   1.627   6.641  0.5181  0.2199  0.0518
18054TIP3    H175577   3.848   1.584   6.624  0.7288  0.2794  0.8874
18054TIP3    H275578   3.711   1.606   6.565  1.0047 -0.5487 -0.0914
18055TIP3   OH275579   2.291   3.763  12.878  0.5377 -0.8009 -0.1769
18055TIP3    H175580   2.215   3.709  12.898  0.1341 -0.0801  0.2973
18055TIP3    H275581   2.363   3.702  12.867  0.1702 -1.3956  0.7081
18056TIP3   OH275582   4.726   6.038  11.825  0.6155  0.0951 -0.3262
18056TIP3    H175583   4.678   6.093  11.763 -0.0678 -0.0109  0.0910
18056TIP3    H275584   4.661   6.016  11.892  1.4655  0.6574  0.7252
18057TIP3   OH275585   4.587   1.874   3.972  0.0175  0.0289 -0.7987
18057TIP3    H175586   4.606   1.805   4.035 -1.7129 -0.5462 -0.8360
18057TIP3    H275587   4.636   1.849   3.893  0.6554 -0.2948 -0.3038
18058TIP3   OH275588   2.963   0.950  14.550 -0.1601 -0.1268  0.1932
18058TIP3    H175589   2.909   0.944  14.629  0.3934  0.2534  0.6124
18058TIP3    H275590   2.953   1.040  14.521 -0.5236 -0.3204 -0.2956
18059TIP3   OH275591   1.452   1.911   3.881 -0.3963  0.8994 -0.0852
18059TIP3    H175592   1.416   1.871   3.802 -0.3105 -0.0640  0.3566
18059TIP3    H275593   1.384   1.900   3.947 -0.5638  1.9063 -0.0636
18060TIP3   OH275594   6.506   5.140  11.944  0.5415 -0.5373 -0.0229
18060TIP3    H175595   6.600   5.154  11.939  0.5690 -0.8763 -0.6815
18060TIP3    H275596   6.469   5.200  11.879  0.2003  0.4238  1.0426
18061TIP3   OH275597   1.031   0.437  15.552  0.1081  0.4250 -0.0475
18061TIP3    H175598   1.046   0.423  15.458 -0.0393 -1.4016  0.1787
18061TIP3    H275599   1.114   0.473  15.584  0.8171 -0.7084 -0.5541
18062TIP3   OH275600   1.784   2.353  11.364  0.2782  0.8267 -1.3827
18062TIP3    H175601   1.787   2.274  11.418  2.0989  1.5848 -0.2701
18062TIP3    H275602   1.849   2.337  11.295  0.5473  1.2696 -1.2388
18063TIP3   OH275603   4.056   6.034   2.378 -0.7980 -0.6044  0.5290
18063TIP3    H175604   4.009   6.093   2.438 -1.6962  0.4691 -1.1435
18063TIP3    H275605   4.012   6.046   2.293  1.3736 -0.9068 -0.7070
18064TIP3   OH275606   1.721   5.111  14.074 -0.3585 -0.2316  0.2706
18064TIP3    H175607   1.743   5.187  14.129  1.2117  0.1959 -0.8610
18064TIP3    H275608   1.642   5.075  14.113 -1.6869  2.5044  0.3721
18065TIP3   OH275609   2.629   6.325  12.889  0.3181 -0.5024 -0.2088
18065TIP3    H175610   2.546   6.335  12.936 -0.3662 -1.8138 -1.0618
18065TIP3    H275611   2.662   6.239  12.917  1.4510  0.0455  0.1851
18066TIP3   OH275612   0.097   3.519   6.360 -0.1913 -0.7753 -0.5901
18066TIP3    H175613   0.110   3.424   6.359 -3.5842 -1.4499  1.7046
18066TIP3    H275614   0.120   3.545   6.449 -0.8519  0.2373 -0.7011
18067TIP3   OH275615   6.671   0.082   0.442 -0.1388  0.4316 -0.8307
18067TIP3    H175616   6.732   0.073   0.369  0.1798  0.6033 -0.5891
18067TIP3    H275617   6.689   0.007   0.499 -0.8351 -0.0594 -1.2509
18068TIP3   OH275618   1.517   6.667   3.971 -0.5717 -0.3522 -0.3829
18068TIP3    H175619   1.565   6.599   3.922 -0.6938 -0.2578 -0.6358
18068TIP3    H275620   1.585   6.714   4.019 -0.6621 -1.7507  1.1650
18069TIP3   OH275621   4.721   4.060   6.015 -0.4394  0.3511  0.6498
18069TIP3    H175622   4.695   4.034   6.104 -1.9274 -0.9769 -0.1409
18069TIP3    H275623   4.812   4.032   6.008 -1.3351 -2.9450  0.5712
18070TIP3   OH275624   1.239   6.668   5.944 -0.0189 -0.0478  0.3877
18070TIP3    H175625   1.321   6.673   5.895 -0.4274 -1.2252 -0.4492
18070TIP3    H275626   1.187   6.603   5.898 -2.0283  1.6864  0.0193
18071TIP3   OH275627   0.399   3.993   1.147 -0.4146 -0.5784  0.0323
18071TIP3    H175628   0.327   3.991   1.210 -0.2749  1.6294  0.3201
18071TIP3    H275629   0.422   3.901   1.134 -2.4021 -1.2496  0.9307
18072TIP3   OH275630   6.338   4.906   2.021  0.1559 -0.1839  0.1786
18072TIP3    H175631   6.368   4.824   2.058 -1.2894 -0.7792  0.1062
18072TIP3    H275632   6.243   4.894   2.008 -0.8314  2.6392  3.3476
18073TIP3   OH275633   5.833   5.387   4.706  0.7565  0.0508 -0.0721
18073TIP3    H175634   5.816   5.411   4.615 -0.7574  1.5096  0.5508
18073TIP3    H275635   5.785   5.452   4.758 -0.1529 -1.9604  1.7758
18074TIP3   OH275636   3.200   4.841  12.393  0.3075  0.1110 -0.3356
18074TIP3    H175637   3.230   4.751  12.397 -0.3554 -0.0614  2.7629
18074TIP3    H275638   3.108   4.834  12.366  0.5992  0.0170 -1.3766
18075TIP3   OH275639   2.386   1.133  11.460  0.0374  0.0017 -0.3549
18075TIP3    H175640   2.482   1.137  11.469 -0.0661 -0.1452  1.1766
18075TIP3    H275641   2.360   1.224  11.443  0.3965  0.1852  0.0411
18076TIP3   OH275642   2.160   5.624   0.817 -0.1207 -0.1441  0.4143
18076TIP3    H175643   2.154   5.620   0.912  0.6785  2.5714  0.6619
18076TIP3    H275644   2.119   5.707   0.793  2.1384  0.6186 -1.2605
18077TIP3   OH275645   6.316   4.899  15.119 -0.3257  0.5712 -0.3446
18077TIP3    H175646   6.279   4.817  15.151 -1.6552  1.2858  0.0444
18077TIP3    H275647   6.280   4.966  15.177  0.4026  1.4781 -0.9041
18078TIP3   OH275648   0.650   1.376   4.823 -0.3979 -0.2698  0.2373
18078TIP3    H175649   0.622   1.294   4.863  0.6601  0.2997  2.2854
18078TIP3    H275650   0.630   1.443   4.889 -3.8331  1.6448 -2.4070
18079TIP3   OH275651   2.722   3.114  15.849  0.1173  0.0306  0.0972
18079TIP3    H175652   2.683   3.114  15.762 -0.1906  0.2520  0.2339
18079TIP3    H275653   2.736   3.021  15.868  0.1962 -0.0178 -0.1929
18080TIP3   OH275654   5.260   5.483   1.551  0.4656 -0.5077  0.2977
18080TIP3    H175655   5.345   5.462   1.590  0.6883 -0.2172 -0.0291
18080TIP3    H275656   5.277   5.486   1.457 -0.1380 -1.5482  0.1358
18081TIP3   OH275657   2.986   2.587   2.602 -0.3098 -0.4999 -0.1348
18081TIP3    H175658   3.001   2.520   2.668 -0.0125 -0.4931 -0.1933
18081TIP3    H275659   3.026   2.552   2.522 -2.0279 -1.2202 -0.7386
18082TIP3   OH275660   0.155   3.870  14.939  0.4863  0.1478  0.3843
18082TIP3    H175661   0.229   3.865  14.879  0.8776 -0.3731  0.9065
18082TIP3    H275662   0.192   3.901  15.021  0.5500 -2.1458  1.2952
18083TIP3   OH275663   6.447   0.365   1.351 -0.0670 -0.2835  0.0109
18083TIP3    H175664   6.367   0.415   1.364 -0.6457 -1.0611 -0.4885
18083TIP3    H275665   6.452   0.306   1.426 -0.6399 -1.1158 -0.5925
18084TIP3   OH275666   2.142   5.125   1.338  0.4425  0.0806 -0.7922
18084TIP3    H175667   2.117   5.209   1.377  2.6683  0.2294  0.4154
18084TIP3    H275668   2.088   5.119   1.259  0.2193  2.6545 -0.9096
18085TIP3   OH275669   1.369   4.426   0.546  0.4829  0.3965 -0.3415
18085TIP3    H175670   1.392   4.363   0.614 -0.7700 -0.5529 -0.7732
18085TIP3    H275671   1.402   4.510   0.580 -0.3251  0.0023  1.5458
18086TIP3   OH275672   4.191   2.850  11.399 -0.0053 -0.4820 -0.2260
18086TIP3    H175673   4.131   2.903  11.346 -0.5220 -0.9520 -0.1248
18086TIP3    H275674   4.144   2.768  11.413  1.7569 -1.9969 -2.5077
18087TIP3   OH275675   4.406   3.248  14.220 -0.3705  0.1955  0.3497
18087TIP3    H175676   4.342   3.318  14.228  0.1580  0.6286  0.9779
18087TIP3    H275677   4.484   3.291  14.184 -1.0028 -0.6958 -2.2652
18088TIP3   OH275678   0.717   4.112  13.192  0.3406 -0.2617 -0.1115
18088TIP3    H175679   0.721   4.035  13.248  1.6991  2.4346  3.9907
18088TIP3    H275680   0.793   4.164  13.217 -0.5818  2.5237 -2.5002
18089TIP3   OH275681   0.968   6.520   1.548 -0.2067  0.0489 -0.0924
18089TIP3    H175682   0.895   6.575   1.573  0.1256  1.2766 -1.6127
18089TIP3    H275683   0.956   6.506   1.454  0.5084 -1.2724 -0.0058
18090TIP3   OH275684   0.284   6.486   0.087 -0.2871  0.3669  0.3444
18090TIP3    H175685   0.260   6.574   0.115  1.9596  1.1301  0.0746
18090TIP3    H275686   0.348   6.458   0.152  1.5751  0.3347 -1.4277
18091TIP3   OH275687   4.533   5.579  12.697  0.3086  0.3400 -0.5657
18091TIP3    H175688   4.512   5.495  12.656  1.5905 -0.2410 -0.0720
18091TIP3    H275689   4.601   5.617  12.641  0.7075  0.4192 -0.0291
18092TIP3   OH275690   2.134   5.447   1.371 -0.1226 -0.2977  0.4278
18092TIP3    H175691   2.089   5.472   1.452 -0.0176 -0.1253  0.4361
18092TIP3    H275692   2.213   5.502   1.371 -0.3843  0.0842 -0.0527
18093TIP3   OH275693   1.951   0.251   4.435 -0.1752  0.8329  0.8961
18093TIP3    H175694   2.024   0.192   4.412  0.3142  1.9770 -0.6392
18093TIP3    H275695   1.975   0.285   4.521  1.5345  1.7562  0.1157
18094TIP3   OH275696   1.645   0.978   2.969 -0.4459  0.5911  0.8277
18094TIP3    H175697   1.723   1.028   2.996  0.0685  0.3091 -0.1041
18094TIP3    H275698   1.577   1.044   2.957  0.7106  1.4116 -2.2722
18095TIP3   OH275699   3.078   6.682  13.004 -0.4524 -0.8270  0.1640
18095TIP3    H175700   3.111   6.769  13.025 -0.3790 -0.4406 -1.4809
18095TIP3    H275701   3.146   6.641  12.951  0.6015 -2.8481  2.8362
18096TIP3   OH275702   0.418   1.302  15.565 -0.1376 -0.8682  0.0363
18096TIP3    H175703   0.450   1.300  15.655 -1.4495 -1.1734  0.5195
18096TIP3    H275704   0.326   1.276  15.571 -0.4832 -0.0860 -1.2945
18097TIP3   OH275705   3.048   3.761  17.031  0.2114  0.4639  0.6010
18097TIP3    H175706   3.028   3.790  16.943 -0.2564 -0.9264  0.2313
18097TIP3    H275707   3.144   3.754  17.033  0.3795  2.4093  0.8508
18098TIP3   OH275708   1.327   5.470   4.304  0.2361 -0.4377  0.2600
18098TIP3    H175709   1.314   5.432   4.217  2.2474 -0.0578 -0.2435
18098TIP3    H275710   1.374   5.552   4.287  0.8219 -0.4539  1.7158
18099TIP3   OH275711   4.505   4.537   2.514  0.0920 -0.6651  0.2257
18099TIP3    H175712   4.475   4.527   2.604  0.3065  0.1860  0.4054
18099TIP3    H275713   4.600   4.550   2.522  0.0223  0.0814 -0.0589
18100TIP3   OH275714   4.921   6.512   0.668 -0.1376 -0.1775  0.2001
18100TIP3    H175715   4.987   6.581   0.664 -1.3496  1.0793  0.7619
18100TIP3    H275716   4.844   6.555   0.706 -1.1095 -1.7197  0.0754
18101TIP3   OH275717   2.373   4.498   3.878  0.7199 -0.0414 -0.0299
18101TIP3    H175718   2.314   4.446   3.934  1.6015 -0.4265  0.5616
18101TIP3    H275719   2.448   4.441   3.863  1.7063  1.0430  0.6270
18102TIP3   OH275720   0.441   5.687   2.156 -0.4065  0.0279  0.5306
18102TIP3    H175721   0.525   5.675   2.113  0.3143  1.8790  1.3112
18102TIP3    H275722   0.462   5.716   2.245 -1.8730 -1.7957  1.5497
18103TIP3   OH275723   2.257   3.498  11.584 -0.3840 -0.1606  0.0378
18103TIP3    H175724   2.323   3.523  11.648  1.2474 -1.6529 -0.9579
18103TIP3    H275725   2.186   3.561  11.597  1.8642  2.5852  0.0733
18104TIP3   OH275726   6.210   0.065  12.546  0.0288  0.2629 -0.1259
18104TIP3    H175727   6.224  -0.017  12.593  1.8398  1.5059  1.6988
18104TIP3    H275728   6.137   0.107  12.592  0.9623  0.8941  0.8528
18105TIP3   OH275729   3.956   6.549  16.890  0.0044 -0.1643 -0.1687
18105TIP3    H175730   4.031   6.490  16.900  1.0612  1.0695 -0.5839
18105TIP3    H275731   3.940   6.552  16.796 -1.6222 -1.6533  0.0169
18106TIP3   OH275732   2.599   1.876   5.070  0.6133 -0.5049  0.0157
18106TIP3    H175733   2.660   1.834   5.130  0.2659 -2.7274 -1.0668
18106TIP3    H275734   2.513   1.857   5.108  0.4503  3.2597  1.9548
18107TIP3   OH275735   0.466   2.690  12.819  0.4149  0.0832  0.6919
18107TIP3    H175736   0.473   2.598  12.792 -0.0645  0.4258 -0.6603
18107TIP3    H275737   0.431   2.735  12.742  0.0320  1.2974  1.5569
18108TIP3   OH275738   0.767   5.563  14.701  0.0689 -0.2362 -0.1415
18108TIP3    H175739   0.730   5.526  14.621 -1.0873 -0.5949  0.5303
18108TIP3    H275740   0.694   5.608  14.743 -0.0390 -2.1599  1.9399
18109TIP3   OH275741   2.295   6.014  15.438 -0.6554  0.6143 -0.4521
18109TIP3    H175742   2.324   5.927  15.466  0.3300  1.2892  0.7375
18109TIP3    H275743   2.365   6.073  15.466 -0.8198  1.6959 -2.1273
18110TIP3   OH275744   2.542   1.860   5.404  0.3489  0.1704  0.1633
18110TIP3    H175745   2.567   1.842   5.494 -1.0101 -2.0266  0.1686
18110TIP3    H275746   2.515   1.952   5.404 -0.3927 -0.0049  2.1751
18111TIP3   OH275747   3.874   2.673   3.008  0.3787  0.6334 -0.1573
18111TIP3    H175748   3.792   2.626   2.999  0.3016  0.8502 -0.5973
18111TIP3    H275749   3.873   2.706   3.098  0.2917  0.0711  0.0521
18112TIP3   OH275750   2.506   0.715  15.555 -0.3643 -0.2550  0.3552
18112TIP3    H175751   2.593   0.728  15.516 -0.6017 -0.2175 -0.1706
18112TIP3    H275752   2.506   0.622  15.580 -0.3440 -0.3849 -0.0976
18113TIP3   OH275753   5.257   1.622   3.867  0.0328  0.1536 -0.7716
18113TIP3    H175754   5.236   1.542   3.819 -0.3848  1.1204 -2.2378
18113TIP3    H275755   5.351   1.635   3.854  0.1989 -0.3223 -0.1366
18114TIP3   OH275756   1.900   5.078  13.482  0.4188  0.0335  0.0469
18114TIP3    H175757   1.941   5.085  13.396 -1.1120 -0.4199 -0.7426
18114TIP3    H275758   1.824   5.022  13.469 -0.9951  1.5515  1.2474
18115TIP3   OH275759   3.655   3.459   5.823 -0.2554  0.0382 -0.1622
18115TIP3    H175760   3.562   3.435   5.827 -0.8481  2.0564 -0.4818
18115TIP3    H275761   3.702   3.376   5.831 -2.1160 -1.5129 -3.2606
18116TIP3   OH275762   5.338   0.913   0.728 -0.5047 -0.3676 -0.4695
18116TIP3    H175763   5.406   0.927   0.793  0.6013 -1.4444 -1.3565
18116TIP3    H275764   5.256   0.922   0.777  0.1951  2.1818  0.3637
18117TIP3   OH275765   2.714   4.696  15.100  0.3432  0.0093  0.1309
18117TIP3    H175766   2.763   4.717  15.021  2.7912 -0.9181  1.3239
18117TIP3    H275767   2.743   4.608  15.124 -0.3366  0.2595  2.0705
18118TIP3   OH275768   5.284   0.308  15.149 -0.5527  0.4473 -0.0833
18118TIP3    H175769   5.297   0.393  15.105 -1.1702  0.6063  0.0417
18118TIP3    H275770   5.211   0.267  15.102 -0.0120 -0.1914 -0.3916
18119TIP3   OH275771   5.885   1.791   5.702  0.0738 -0.4057 -0.6995
18119TIP3    H175772   5.847   1.759   5.784  3.1632  1.2576  1.5508
18119TIP3    H275773   5.810   1.798   5.643 -2.2840 -1.8207  1.8737
18120TIP3   OH275774   2.972   6.646   0.290  0.1504  0.4048 -0.0139
18120TIP3    H175775   2.882   6.647   0.259 -0.4734 -0.2004  1.6760
18120TIP3    H275776   3.024   6.633   0.211 -1.3136 -0.5868 -0.8589
18121TIP3   OH275777   2.754   2.317   6.120  0.0744 -0.3983 -0.1426
18121TIP3    H175778   2.682   2.316   6.183  0.3335  1.0977  0.2329
18121TIP3    H275779   2.826   2.272   6.164 -0.5538 -1.7460 -0.4505
18122TIP3   OH275780   4.425   5.297   4.464  0.3955  0.5028  0.6725
18122TIP3    H175781   4.462   5.329   4.382  2.7569 -0.2727  1.3383
18122TIP3    H275782   4.464   5.210   4.476 -1.0648 -0.0237  1.8804
18123TIP3   OH275783   1.270   6.678  14.906  0.2857  0.0703  0.7425
18123TIP3    H175784   1.270   6.773  14.914  0.5073  0.0238  1.2981
18123TIP3    H275785   1.335   6.648  14.970  1.3524 -0.3607 -0.4878
18124TIP3   OH275786   5.207   4.332  13.904 -0.0587 -0.1164 -0.1164
18124TIP3    H175787   5.277   4.318  13.840 -2.1243  1.3052 -2.9443
18124TIP3    H275788   5.250   4.378  13.976  2.2566 -1.0091 -0.8204
18125TIP3   OH275789   1.220   0.398   4.263 -0.2562  0.2609  0.7070
18125TIP3    H175790   1.279   0.354   4.324 -0.4635  0.1288  0.8141
18125TIP3    H275791   1.275   0.462   4.218  0.1320 -0.3436  0.3029
18126TIP3   OH275792   0.287   1.270  11.037  0.2479 -0.5227  0.2253
18126TIP3    H175793   0.228   1.264  10.961 -0.5076  0.5727  0.6970
18126TIP3    H275794   0.230   1.253  11.112  0.3388  1.2929  0.7503
18127TIP3   OH275795   1.400   4.519  12.075  0.0456  0.1170  0.1003
18127TIP3    H175796   1.329   4.457  12.057  0.8084 -0.2063 -2.2077
18127TIP3    H275797   1.423   4.554  11.989  4.6178 -1.9811  0.1490
18128TIP3   OH275798   3.620   5.911   1.388  0.5675  0.2203 -0.9735
18128TIP3    H175799   3.652   5.894   1.476  0.4080 -2.3883 -1.3569
18128TIP3    H275800   3.676   5.857   1.331  0.0510  1.1023 -2.3828
18129TIP3   OH275801   2.618   2.492  14.089  0.1001  0.1044 -0.0308
18129TIP3    H175802   2.612   2.496  14.184  1.3198 -0.2134  0.0724
18129TIP3    H275803   2.618   2.399  14.068 -1.7231  0.1661 -0.4812
18130TIP3   OH275804   0.539   3.955   5.649  0.5564  0.4573 -0.0281
18130TIP3    H175805   0.520   3.861   5.657 -0.5052  0.6896  0.2659
18130TIP3    H275806   0.454   3.998   5.660  1.2374  1.5337  1.4468
18131TIP3   OH275807   1.004   5.762  12.166  0.0167 -0.0484 -0.4569
18131TIP3    H175808   1.041   5.729  12.085  0.3344  1.5825 -1.0283
18131TIP3    H275809   1.056   5.721  12.235  1.3888  0.4259 -1.1701
18132TIP3   OH275810   5.760   6.557  12.151 -0.1147 -0.1959  0.2046
18132TIP3    H175811   5.849   6.543  12.185  0.5974  2.7820 -0.2275
18132TIP3    H275812   5.772   6.604  12.069 -2.0897 -0.6839 -0.4209
18133TIP3   OH275813   4.690   1.134  13.902 -0.3528  0.5030  0.5053
18133TIP3    H175814   4.654   1.178  13.979  1.3351 -0.2861  1.8187
18133TIP3    H275815   4.659   1.044  13.910 -2.2287  0.9227 -1.1509
18134TIP3   OH275816   2.518   0.382   1.177  0.5266  0.5028 -0.2086
18134TIP3    H175817   2.541   0.315   1.240  3.4369  0.2660 -1.3621
18134TIP3    H275818   2.601   0.428   1.159 -0.3903  1.3046 -2.9475
18135TIP3   OH275819   0.434   0.031  11.825 -0.0434  0.3755 -0.1992
18135TIP3    H175820   0.478  -0.040  11.871 -0.5391  0.5757  0.6003
18135TIP3    H275821   0.462   0.110  11.871 -0.4162  0.5955 -0.3508
18136TIP3   OH275822   3.429   0.398   0.657 -0.2336 -0.0606 -0.1732
18136TIP3    H175823   3.406   0.488   0.683 -0.8423 -0.0803 -0.6360
18136TIP3    H275824   3.524   0.401   0.644 -0.1823  0.4062  0.2348
18137TIP3   OH275825   2.983   1.476  14.339 -0.4043 -0.0226 -0.4154
18137TIP3    H175826   3.032   1.538  14.284 -1.5200 -0.4549 -1.9637
18137TIP3    H275827   3.040   1.462  14.415  0.4969  1.8061 -0.6943
18138TIP3   OH275828   1.338   1.317  13.871 -0.3106  0.0071  0.7476
18138TIP3    H175829   1.432   1.303  13.884 -0.1329  0.9262  0.5141
18138TIP3    H275830   1.305   1.231  13.845  0.1992 -0.6725  2.2635
18139TIP3   OH275831   0.205   3.171   2.762 -0.1255 -0.4414  0.3019
18139TIP3    H175832   0.284   3.132   2.799 -1.0571 -1.6906  1.0452
18139TIP3    H275833   0.140   3.166   2.832 -1.7738 -2.3364 -1.2225
18140TIP3   OH275834   0.780   2.343  10.986 -0.4538 -0.2088 -0.3614
18140TIP3    H175835   0.847   2.276  10.975  0.2185  0.1172  1.5248
18140TIP3    H275836   0.713   2.320  10.921  0.2392 -2.0872 -0.4726
18141TIP3   OH275837   5.747   3.444  16.101  0.4862 -0.4945  0.3406
18141TIP3    H175838   5.719   3.494  16.177  0.2127  0.5573 -0.4392
18141TIP3    H275839   5.842   3.448  16.103  0.4921 -0.7858  0.8275
18142TIP3   OH275840   0.275   3.707  11.767  0.0308 -0.4080 -0.0625
18142TIP3    H175841   0.329   3.753  11.831  0.2336 -0.6604 -0.0521
18142TIP3    H275842   0.304   3.741  11.682 -0.1618 -0.1544 -0.0266
18143TIP3   OH275843   0.954   5.578  16.877 -0.7049  0.2671  0.8225
18143TIP3    H175844   0.912   5.500  16.841  0.6998 -0.1693  0.0595
18143TIP3    H275845   1.048   5.563  16.866 -0.3918  2.1643  0.4409
18144TIP3   OH275846   3.153   3.648  12.861 -0.3745 -0.3093 -0.4117
18144TIP3    H175847   3.094   3.684  12.795 -1.0856 -1.6809 -0.5650
18144TIP3    H275848   3.238   3.687  12.840 -0.9249  0.5907 -1.0706
18145TIP3   OH275849   1.929   1.707  11.373 -0.1797 -0.1682 -0.4518
18145TIP3    H175850   1.843   1.747  11.373 -0.0505  0.2324 -2.4618
18145TIP3    H275851   1.968   1.732  11.457 -1.5911  0.5836 -0.0008
18146TIP3   OH275852   6.766   1.676  12.935  0.5697 -0.1764 -0.1183
18146TIP3    H175853   6.763   1.636  13.022 -0.4624  1.3806  0.6176
18146TIP3    H275854   6.725   1.612  12.877  2.3666 -1.7709  0.2596
18147TIP3   OH275855   5.404   1.127  12.688  0.3168 -0.3346 -0.3857
18147TIP3    H175856   5.494   1.112  12.662  1.0561  0.2324  1.6384
18147TIP3    H275857   5.352   1.071  12.630  1.5021  2.5172 -4.5877
18148TIP3   OH275858   3.201   4.169   0.363 -0.0564 -0.1231 -0.4360
18148TIP3    H175859   3.118   4.215   0.378  1.1059  1.3466  2.4869
18148TIP3    H275860   3.209   4.111   0.439 -0.2275 -3.3831 -2.7380
18149TIP3   OH275861   3.996   2.320   6.066 -0.0711 -0.3476 -0.4202
18149TIP3    H175862   3.998   2.402   6.115 -1.6185 -0.5430  0.0207
18149TIP3    H275863   4.023   2.254   6.129 -0.0035 -0.3340 -0.4349
18150TIP3   OH275864   2.620   4.829  11.848  0.0653 -0.3963  0.5175
18150TIP3    H175865   2.660   4.750  11.884 -0.1010  0.1305  1.9378
18150TIP3    H275866   2.527   4.806  11.836  0.2205 -0.7323 -0.0779
18151TIP3   OH275867   3.290   5.206   1.954 -0.4238 -0.2469  0.0278
18151TIP3    H175868   3.345   5.246   1.886  1.1107 -1.9145  0.2117
18151TIP3    H275869   3.201   5.220   1.923  0.2043 -0.2515 -1.9496
18152TIP3   OH275870   1.021   4.780   5.603  0.1087 -0.0148  0.0686
18152TIP3    H175871   1.082   4.828   5.659 -0.9510  2.2206 -0.5650
18152TIP3    H275872   1.014   4.694   5.643  3.1230 -0.1547  0.5383
18153TIP3   OH275873   6.271   3.085  10.752  0.3579 -0.1558 -0.0421
18153TIP3    H175874   6.329   3.089  10.676 -1.1292 -1.0288 -1.2705
18153TIP3    H275875   6.197   3.031  10.723 -0.3535 -0.3257  1.9599
18154TIP3   OH275876   4.831   5.854  15.627 -0.8026 -0.4197  0.1932
18154TIP3    H175877   4.753   5.907  15.643 -0.9133 -0.8277  1.0800
18154TIP3    H275878   4.904   5.913  15.645 -0.9234 -0.7670  2.0241
18155TIP3   OH275879   4.594   3.928  13.921 -0.4550  0.3439 -0.5833
18155TIP3    H175880   4.619   4.013  13.885  1.5612 -0.0865 -0.3217
18155TIP3    H275881   4.666   3.870  13.896 -1.9650 -1.4055 -1.1029
18156TIP3   OH275882   6.606   2.646   3.879 -0.2016 -0.0472 -0.3042
18156TIP3    H175883   6.635   2.622   3.791 -0.3022 -1.1170 -0.0615
18156TIP3    H275884   6.516   2.678   3.867  0.4251  1.5863 -0.8226
18157TIP3   OH275885   2.018   0.918   3.475  0.5277  0.4000 -0.6261
18157TIP3    H175886   2.083   0.873   3.529 -2.3034 -0.2629  2.5768
18157TIP3    H275887   2.064   0.992   3.438  3.0831  0.0388  1.5574
18158TIP3   OH275888   4.827   6.320   0.033  0.0962 -0.4732  0.1117
18158TIP3    H175889   4.783   6.350   0.112  0.4080 -1.7681  0.8221
18158TIP3    H275890   4.893   6.387   0.015 -0.5317  0.2498  0.4539
18159TIP3   OH275891   5.852   5.011  15.559 -0.2395 -0.0957 -0.4151
18159TIP3    H175892   5.757   5.016  15.571 -0.3912 -1.4965 -0.8443
18159TIP3    H275893   5.865   4.930  15.510  1.1734  0.1503 -0.4682
18160TIP3   OH275894   2.239   3.730   0.764 -0.3991  0.0117 -0.2699
18160TIP3    H175895   2.332   3.746   0.745 -0.7846  1.5537 -1.0091
18160TIP3    H275896   2.230   3.635   0.759  0.8496 -0.0740 -1.6080
18161TIP3   OH275897   0.570   6.526   5.361 -0.1768 -0.2731  0.2939
18161TIP3    H175898   0.606   6.581   5.431 -0.8735 -0.1107  0.5318
18161TIP3    H275899   0.563   6.584   5.285 -2.0314  0.3179  0.8732
18162TIP3   OH275900   2.092   6.221   4.768  0.3462 -0.1315  0.0458
18162TIP3    H175901   2.063   6.308   4.740 -0.7844 -0.5925 -0.2430
18162TIP3    H275902   2.143   6.188   4.693 -2.4907 -1.2730 -1.5139
18163TIP3   OH275903   0.893   5.617   2.162  0.0281 -0.0185 -0.1976
18163TIP3    H175904   0.958   5.668   2.113 -0.4349 -0.9061 -1.8149
18163TIP3    H275905   0.898   5.529   2.124 -0.5085 -0.6964  1.2435
18164TIP3   OH275906   1.350   0.862   1.686 -0.0752 -0.6061  0.0775
18164TIP3    H175907   1.392   0.943   1.715 -2.0853  0.6562 -0.2701
18164TIP3    H275908   1.257   0.877   1.701 -0.7484 -1.8801 -2.2283
18165TIP3   OH275909   3.012   0.440  11.582  0.3433 -0.2299 -0.1241
18165TIP3    H175910   3.019   0.418  11.489  0.3375 -2.8427  0.4074
18165TIP3    H275911   2.920   0.460  11.595  0.0315 -1.3844 -0.4282
18166TIP3   OH275912   2.067   3.660   0.473 -0.3282 -0.2730  0.1626
18166TIP3    H175913   2.116   3.740   0.493 -0.5492  0.1658 -0.9524
18166TIP3    H275914   2.116   3.619   0.402 -1.6351  0.3023 -1.1548
18167TIP3   OH275915   2.979   4.441   4.524  0.1738  0.1682  0.3735
18167TIP3    H175916   2.980   4.380   4.598 -0.4192  1.7916  1.7880
18167TIP3    H275917   2.898   4.420   4.477  0.2088 -0.4343  0.5755
18168TIP3   OH275918   4.118   1.477   3.265  0.1356 -0.3956 -0.4330
18168TIP3    H175919   4.071   1.407   3.311  1.3564 -1.4344 -0.7000
18168TIP3    H275920   4.051   1.543   3.247 -1.2890 -1.9502 -1.0839
18169TIP3   OH275921   5.784   6.711  15.318  0.3070  0.3119  0.2007
18169TIP3    H175922   5.856   6.764  15.353 -0.0414  1.4517 -0.7369
18169TIP3    H275923   5.824   6.627  15.297  0.9937  0.3632  1.2385
18170TIP3   OH275924   1.781   1.038   2.680 -0.2684 -0.0894 -0.0280
18170TIP3    H175925   1.835   0.961   2.698 -1.6709 -1.0072  0.4308
18170TIP3    H275926   1.709   1.032   2.742  0.4792  2.5829  1.2417
18171TIP3   OH275927   6.069   3.018  13.816  0.5009 -0.3265 -0.6295
18171TIP3    H175928   6.016   2.954  13.769  0.9562 -1.1786 -0.0117
18171TIP3    H275929   6.010   3.091  13.833 -0.5933 -1.3975  0.3612
18172TIP3   OH275930   1.217   2.775  16.901  0.4832 -0.2481  0.1341
18172TIP3    H175931   1.223   2.848  16.840  1.1837  0.1455  0.6706
18172TIP3    H275932   1.223   2.815  16.988 -2.4163 -0.5549  0.6042
18173TIP3   OH275933   4.874   2.832  17.232 -0.2700 -0.5128 -0.0690
18173TIP3    H175934   4.967   2.849  17.248 -0.6030 -0.1134  1.6307
18173TIP3    H275935   4.871   2.742  17.200  0.6438 -0.8027  0.6268
18174TIP3   OH275936   6.147   2.230  13.634  0.0302 -0.2780 -0.3860
18174TIP3    H175937   6.180   2.212  13.722 -0.7755  0.8561  0.1783
18174TIP3    H275938   6.122   2.323  13.636 -4.1146 -1.1872 -0.3921
18175TIP3   OH275939   3.267   2.305   1.553  0.2533 -0.0966  0.2683
18175TIP3    H175940   3.252   2.392   1.591 -2.4443 -0.3560  0.0173
18175TIP3    H275941   3.192   2.292   1.494  2.8395 -0.7989 -3.2202
18176TIP3   OH275942   3.184   5.184   0.189 -0.2752  0.1396 -0.0363
18176TIP3    H175943   3.192   5.225   0.275 -1.0327 -1.0791  0.6433
18176TIP3    H275944   3.256   5.121   0.186 -0.8404 -0.5378  0.1484
18177TIP3   OH275945   2.082   6.281  12.152 -0.3315 -0.0893  0.0268
18177TIP3    H175946   2.002   6.229  12.155  0.7735 -1.8072  1.6009
18177TIP3    H275947   2.144   6.227  12.102  0.1638  0.7690 -0.3057
18178TIP3   OH275948   5.697   6.407  11.873 -0.6899  0.1793 -0.0918
18178TIP3    H175949   5.614   6.400  11.919  0.0370  1.2711  1.4735
18178TIP3    H275950   5.724   6.498  11.886  1.1360 -0.3588  0.1695
18179TIP3   OH275951   0.479   5.494   1.306 -0.3871  0.5032 -0.7591
18179TIP3    H175952   0.414   5.539   1.361  0.9707  1.7452 -0.0892
18179TIP3    H275953   0.494   5.555   1.233 -1.8190 -0.9212 -2.3459
18180TIP3   OH275954   5.732   1.539   2.401  0.3131  0.9030 -0.1841
18180TIP3    H175955   5.766   1.456   2.437  0.1198  1.2645  0.8527
18180TIP3    H275956   5.791   1.558   2.329 -0.7138 -1.0791 -1.6519
18181TIP3   OH275957   1.815   1.656   4.800 -0.2196  0.3319 -0.4542
18181TIP3    H175958   1.743   1.665   4.738 -1.6204  1.3429  1.2449
18181TIP3    H275959   1.778   1.680   4.885  2.0897  0.7763  0.5105
18182TIP3   OH275960   6.583   6.085   1.620 -0.0340  0.3804  0.0792
18182TIP3    H175961   6.493   6.118   1.622  0.4162  1.6920  1.5805
18182TIP3    H275962   6.614   6.104   1.531 -1.0473  0.4632 -0.2625
18183TIP3   OH275963   5.512   2.421   4.245  0.0752  0.2270  0.2091
18183TIP3    H175964   5.498   2.489   4.312 -1.3104 -1.1784  1.4297
18183TIP3    H275965   5.489   2.340   4.290  0.2093 -0.8881 -1.6820
18184TIP3   OH275966   6.088   0.390  13.387 -0.8498  0.4440  0.1064
18184TIP3    H175967   6.070   0.296  13.375  0.7624 -0.2275  2.2351
18184TIP3    H275968   6.155   0.410  13.322 -0.1991 -0.2649  0.5403
18185TIP3   OH275969   0.363   2.811   2.042 -0.2067 -0.0192  0.4456
18185TIP3    H175970   0.391   2.795   2.132  1.4176  0.7167  0.1164
18185TIP3    H275971   0.318   2.896   2.046  0.5092  0.3659  0.4535
18186TIP3   OH275972   6.680   3.971   4.170  0.1031  0.1995 -0.2970
18186TIP3    H175973   6.768   3.975   4.132 -0.6257 -0.5401 -2.1833
18186TIP3    H275974   6.676   4.046   4.230  1.4467  1.2418 -1.4547
18187TIP3   OH275975   2.352   5.673   4.792 -0.0615 -0.4702  0.0742
18187TIP3    H175976   2.312   5.760   4.788  0.7885  0.0791  2.1972
18187TIP3    H275977   2.294   5.623   4.849  0.6496 -0.6009  0.6916
18188TIP3   OH275978   6.508   5.690  14.088 -0.3830  0.8181  0.5588
18188TIP3    H175979   6.516   5.622  14.155  1.3591  0.5328  0.1068
18188TIP3    H275980   6.541   5.649  14.008 -0.0120  1.9389  0.1148
18189TIP3   OH275981   5.055   0.273   5.522 -0.2989 -0.2195 -0.3499
18189TIP3    H175982   5.118   0.231   5.581 -0.2723  0.1747 -0.0927
18189TIP3    H275983   4.991   0.205   5.502 -1.8437  0.3624  2.2911
18190TIP3   OH275984   6.292   1.773   0.423 -0.0359 -0.3088  0.0015
18190TIP3    H175985   6.288   1.681   0.398  2.8169 -0.2898 -0.8659
18190TIP3    H275986   6.340   1.815   0.351 -1.6925  1.9958  0.1178
18191TIP3   OH275987   6.657   1.610  13.179  0.0951  0.1594 -0.1197
18191TIP3    H175988   6.568   1.625  13.213  0.2470  0.6981  0.0448
18191TIP3    H275989   6.708   1.684  13.210  0.4390  0.2288 -0.8231
18192TIP3   OH275990   5.096   5.265   0.860  0.1137 -0.3162 -0.0465
18192TIP3    H175991   5.115   5.332   0.926  0.7381 -0.1344 -0.4028
18192TIP3    H275992   5.074   5.187   0.912 -1.4023  0.3579  0.3680
18193TIP3   OH275993   5.392   3.188   2.089 -0.4770  0.0763 -0.7866
18193TIP3    H175994   5.309   3.146   2.110 -0.5811 -0.3389 -1.9758
18193TIP3    H275995   5.404   3.173   1.996  0.2897  1.2898 -0.9062
18194TIP3   OH275996   6.414   5.702  12.715 -0.4324 -0.3970  0.0550
18194TIP3    H175997   6.327   5.741  12.729 -0.9353 -1.8582  1.2831
18194TIP3    H275998   6.474   5.765  12.754 -1.0832 -0.0682  0.5574
18195TIP3   OH275999   3.712   3.655   1.407 -0.3619  0.3123  0.3261
18195TIP3    H176000   3.729   3.612   1.491 -1.6232  3.1221  2.1808
18195TIP3    H276001   3.630   3.617   1.376  0.5822 -1.4108 -0.1806
18196TIP3   OH276002   5.940   3.442   6.401  0.9390  0.1079 -0.3825
18196TIP3    H176003   5.958   3.353   6.432  0.5419 -0.0171 -0.5112
18196TIP3    H276004   6.009   3.495   6.442  1.8971 -0.4346 -1.2437
18197TIP3   OH276005   3.565   1.657  10.867  0.1714 -0.2121 -0.4850
18197TIP3    H176006   3.487   1.603  10.875 -0.0156 -0.0970 -1.4255
18197TIP3    H276007   3.534   1.740  10.829  0.6659  0.0300 -0.3747
18198TIP3   OH276008   1.392   0.817   4.352 -0.2703 -0.5886  0.0690
18198TIP3    H176009   1.320   0.858   4.305 -0.6028 -1.5511 -0.2916
18198TIP3    H276010   1.350   0.751   4.407  0.4003 -1.8873 -0.9276
18199TIP3   OH276011   1.263   3.353  11.145 -0.7019  0.8180 -0.3564
18199TIP3    H176012   1.169   3.365  11.161 -0.3388  0.7584  2.4833
18199TIP3    H276013   1.286   3.420  11.082 -2.5613  1.1754 -0.7045
18200TIP3   OH276014   4.183   1.129  16.042  0.0193  0.3434 -0.2984
18200TIP3    H176015   4.093   1.143  16.010 -0.6034  0.8257  1.5556
18200TIP3    H276016   4.216   1.057  15.989 -1.6501 -0.1890 -0.6735
18201TIP3   OH276017   0.475   0.208   3.952 -0.0722  0.1109  0.2638
18201TIP3    H176018   0.530   0.266   3.900 -1.8146 -0.1924 -2.0816
18201TIP3    H276019   0.410   0.266   3.992  0.2389  0.1417  0.7351
18202TIP3   OH276020   4.520   5.388  16.685  0.0240  0.3054  0.4703
18202TIP3    H176021   4.603   5.411  16.643  0.6649  2.0208  2.4915
18202TIP3    H276022   4.462   5.461  16.667 -1.3417 -1.1518 -1.4403
18203TIP3   OH276023   2.879   1.155  16.603  0.0343 -0.2324 -0.0563
18203TIP3    H176024   2.955   1.211  16.617  0.8230 -1.4335  0.7530
18203TIP3    H276025   2.823   1.170  16.679 -0.6050  0.7447 -0.7140
18204TIP3   OH276026   3.954   0.590  11.004 -0.3082  0.5379 -0.2166
18204TIP3    H176027   4.024   0.610  10.941 -0.3356  0.5494 -0.2431
18204TIP3    H276028   3.886   0.548  10.952  0.3606 -0.9878  0.0970
18205TIP3   OH276029   4.908   1.932  10.877 -0.4974  0.6376 -0.1834
18205TIP3    H176030   4.904   1.958  10.785  1.3875  1.0424 -0.1918
18205TIP3    H276031   4.874   1.843  10.879 -1.4433  0.9578 -1.1081
18206TIP3   OH276032   4.630   2.646   3.358 -0.1833 -0.1391  0.0837
18206TIP3    H176033   4.681   2.602   3.289 -0.1733  1.1576 -0.7706
18206TIP3    H276034   4.543   2.606   3.352 -0.3563  0.3761 -1.1057
18207TIP3   OH276035   2.499   2.694  11.252  0.5025 -0.5404  0.1454
18207TIP3    H176036   2.465   2.781  11.272  0.9678 -0.2931 -0.1044
18207TIP3    H276037   2.532   2.701  11.162 -0.7868 -1.3958 -0.4132
18208TIP3   OH276038   3.521   3.271  12.628 -0.0730  0.0651 -0.2072
18208TIP3    H176039   3.450   3.331  12.650 -1.7445 -1.0309 -2.2853
18208TIP3    H276040   3.507   3.195  12.685  0.3362  0.4411  0.4082
18209TIP3   OH276041   3.540   6.771   2.044 -0.3638  0.2825  0.5488
18209TIP3    H176042   3.478   6.803   2.109  0.0643 -1.5250  1.9194
18209TIP3    H276043   3.608   6.726   2.094 -1.2347 -3.2635 -1.1230
18210TIP3   OH276044   1.464   1.652  13.772 -0.0428  0.1473  0.0086
18210TIP3    H176045   1.473   1.724  13.710 -1.3775  0.7818  0.5009
18210TIP3    H276046   1.386   1.675  13.824 -0.2511 -1.4430  0.4520
18211TIP3   OH276047   4.126   1.211   1.550  0.0100 -0.5548  0.1661
18211TIP3    H176048   4.080   1.143   1.599 -0.4899 -0.6840 -0.4698
18211TIP3    H276049   4.214   1.213   1.588 -0.5527 -0.1984  1.5056
18212TIP3   OH276050   3.023   5.378  15.446  0.1350  0.4079  0.2727
18212TIP3    H176051   3.087   5.448  15.437 -0.0982  0.8098  1.5595
18212TIP3    H276052   3.018   5.339  15.359  0.5596  1.7315 -0.3740
18213TIP3   OH276053   2.192   2.155   2.866 -0.0511 -0.4271  0.5070
18213TIP3    H176054   2.174   2.145   2.960 -1.1057  2.5614  0.7334
18213TIP3    H276055   2.286   2.140   2.858  0.0977 -0.5312  2.0612
18214TIP3   OH276056   2.257   0.236  11.835  0.1235 -0.1618 -0.3136
18214TIP3    H176057   2.230   0.328  11.830 -0.4938 -0.0941  2.4640
18214TIP3    H276058   2.175   0.188  11.841  0.4672 -0.7919 -0.6136
18215TIP3   OH276059   3.433   0.457  17.058 -0.1387  0.2639 -0.0767
18215TIP3    H176060   3.523   0.423  17.063  0.3714  1.5186 -0.2916
18215TIP3    H276061   3.412   0.480  17.148  0.5915  1.9734 -0.3099
18216TIP3   OH276062   1.953   3.090  12.773  0.7145 -0.1004  0.2274
18216TIP3    H176063   1.863   3.101  12.742  0.0836 -1.1957  1.5653
18216TIP3    H276064   2.006   3.096  12.694 -0.5680  0.1561 -0.6521
18217TIP3   OH276065   4.988   3.275  15.170  0.3698  0.4715  0.3225
18217TIP3    H176066   5.001   3.336  15.097  1.5844  0.1813  0.2716
18217TIP3    H276067   5.077   3.253  15.198 -0.0726 -0.4169  1.0624
18218TIP3   OH276068   2.136   5.415   2.170  0.1199  0.2166  0.4236
18218TIP3    H176069   2.171   5.352   2.233 -0.8578  0.9406  1.7446
18218TIP3    H276070   2.047   5.386   2.152  0.3056  0.1531 -0.4712
18219TIP3   OH276071   3.752   0.992   2.405 -0.1581 -0.2812 -0.3208
18219TIP3    H176072   3.827   0.936   2.422  0.0215 -0.1634 -0.7204
18219TIP3    H276073   3.709   0.953   2.330 -0.0364  0.1105 -0.5970
18220TIP3   OH276074   6.065   1.951   5.526 -0.1253  0.1855 -0.0797
18220TIP3    H176075   6.146   1.950   5.576 -0.5928 -1.4592  0.7345
18220TIP3    H276076   5.997   1.931   5.590 -0.9418 -0.3954 -1.0846
18221TIP3   OH276077   1.348   5.305  15.508 -0.1328  0.3138 -0.3745
18221TIP3    H176078   1.398   5.245  15.563  0.5188  0.0060 -1.2858
18221TIP3    H276079   1.326   5.378  15.566 -0.6867 -0.6529  0.6740
18222TIP3   OH276080   0.207   0.967   5.451  0.3693 -0.1383 -0.3648
18222TIP3    H176081   0.280   0.933   5.502 -0.2707 -2.1136 -0.7076
18222TIP3    H276082   0.174   1.041   5.502  0.5659 -1.2352  1.4256
18223TIP3   OH276083   4.999   1.962  11.572  0.4395  0.0779 -0.1718
18223TIP3    H176084   5.036   2.034  11.521 -0.6731 -0.9115 -2.5335
18223TIP3    H276085   4.992   1.996  11.661  1.6354  2.2204 -0.8430
18224TIP3   OH276086   1.438   5.773   0.844 -0.0747  0.0358 -0.6061
18224TIP3    H176087   1.483   5.847   0.884 -0.4770  0.0515 -0.1725
18224TIP3    H276088   1.485   5.757   0.762  0.2709  0.5032 -0.5001
18225TIP3   OH276089   5.739   3.783  15.453  0.4775  0.1764 -0.8202
18225TIP3    H176090   5.647   3.767  15.475 -0.0192  0.5379 -2.5191
18225TIP3    H276091   5.784   3.779  15.537 -0.5859 -3.1277 -0.2410
18226TIP3   OH276092   5.194   4.904   5.616 -0.0832 -0.0080  0.2670
18226TIP3    H176093   5.243   4.903   5.534 -0.6017 -0.2350 -0.0439
18226TIP3    H276094   5.245   4.849   5.675  2.3384  3.0817  1.3199
18227TIP3   OH276095   5.449   5.845   3.178 -0.2770  0.1042 -0.2388
18227TIP3    H176096   5.404   5.769   3.215 -0.7855  0.6599  0.3159
18227TIP3    H276097   5.421   5.848   3.087 -1.0965  0.2324  0.0091
18228TIP3   OH276098   6.552   0.631   2.150  0.4179  0.4354  0.3067
18228TIP3    H176099   6.544   0.617   2.245  2.6455 -0.4535  0.4224
18228TIP3    H276100   6.512   0.552   2.112 -0.3918  0.7472  0.4836
18229TIP3   OH276101   3.655   5.208   4.365 -0.6503  0.0540  0.7818
18229TIP3    H176102   3.718   5.235   4.298 -1.3232 -1.1864 -0.4084
18229TIP3    H276103   3.707   5.197   4.444  0.4886 -0.1721  0.0238
18230TIP3   OH276104   1.449   3.636   2.347 -0.6403 -0.2182  0.7326
18230TIP3    H176105   1.367   3.673   2.314  0.2946  1.3429  0.0497
18230TIP3    H276106   1.441   3.642   2.442 -0.0543  3.0288  0.6822
18231TIP3   OH276107   1.968   2.615   5.480 -0.4739 -0.1369 -0.4046
18231TIP3    H176108   2.047   2.663   5.504  1.1497 -1.4098 -2.8016
18231TIP3    H276109   1.976   2.532   5.526  1.2695 -1.4984 -2.9430
18232TIP3   OH276110   1.593   4.592  15.349  0.6119 -0.2149  0.9422
18232TIP3    H176111   1.643   4.589  15.430 -2.0083 -0.3876  2.6862
18232TIP3    H276112   1.525   4.525  15.360  0.6627 -0.8460 -1.7905
18233TIP3   OH276113   4.681   5.570  12.461 -0.0323 -0.3487 -0.5861
18233TIP3    H176114   4.665   5.649  12.410  0.8081 -0.6662 -1.3634
18233TIP3    H276115   4.677   5.499  12.397 -0.9074 -0.9614  0.1269
18234TIP3   OH276116   3.329   5.287  15.786 -0.0029 -0.0872  0.3102
18234TIP3    H176117   3.327   5.333  15.870 -3.3633  0.3576  0.1268
18234TIP3    H276118   3.332   5.194  15.809 -0.8643  0.0364  0.9678
18235TIP3   OH276119   4.771   5.065  10.683  0.0739  0.1086 -0.7181
18235TIP3    H176120   4.776   5.041  10.776 -1.1357  0.8611 -0.4301
18235TIP3    H276121   4.692   5.021  10.652 -0.6578  1.4819 -0.8623
18236TIP3   OH276122   2.508   5.174  13.144  0.5491  0.6290 -0.3113
18236TIP3    H176123   2.572   5.183  13.073 -0.4616 -3.0341 -1.9668
18236TIP3    H276124   2.498   5.080  13.155 -1.3851  1.0717  2.9048
18237TIP3   OH276125   1.161   3.198   0.136 -0.3399  0.5718 -0.1972
18237TIP3    H176126   1.183   3.271   0.193 -1.0695  1.3760 -0.9173
18237TIP3    H276127   1.075   3.220   0.100 -0.7715 -0.8413 -0.1073
18238TIP3   OH276128   3.485   3.355  15.176 -0.4656 -0.7977 -0.1199
18238TIP3    H176129   3.425   3.381  15.245 -0.1703 -1.1064  0.2595
18238TIP3    H276130   3.516   3.268  15.203  1.0318 -0.1667  0.2830
18239TIP3   OH276131   4.862   0.577  14.789  0.5176  0.4296  0.2418
18239TIP3    H176132   4.947   0.561  14.830 -0.2650 -2.5547  0.9242
18239TIP3    H276133   4.803   0.513  14.829 -1.2982  0.1834 -2.5361
18240TIP3   OH276134   2.685   5.800   0.635  0.4494 -0.4749  0.2381
18240TIP3    H176135   2.686   5.875   0.576  0.4696 -0.2412  0.5324
18240TIP3    H276136   2.682   5.724   0.577  0.2906 -0.2441 -0.0603
18241TIP3   OH276137   2.235   4.713   4.545  0.1831 -0.1868  0.1891
18241TIP3    H176138   2.316   4.759   4.567 -0.7908  3.7531 -3.1203
18241TIP3    H276139   2.256   4.665   4.465 -0.9451  2.3112 -1.7461
18242TIP3   OH276140   6.486   1.933  10.951 -0.5036 -0.0403  0.2129
18242TIP3    H176141   6.493   2.028  10.955 -0.7658 -0.0452  0.9345
18242TIP3    H276142   6.483   1.913  10.857  2.6361  0.4121 -0.0992
18243TIP3   OH276143   6.147   1.669  15.502  0.0469 -0.0653  0.5829
18243TIP3    H176144   6.217   1.613  15.470 -0.7894 -1.4276  1.0334
18243TIP3    H276145   6.163   1.754  15.462  1.5913 -0.5161  0.2018
18244TIP3   OH276146   1.052   5.369  15.145  0.3557  0.1215  0.3918
18244TIP3    H176147   1.091   5.421  15.215  1.2760  0.4338 -0.3377
18244TIP3    H276148   1.123   5.312  15.115  0.7610  1.7125 -1.9376
18245TIP3   OH276149   0.378   1.378   5.564 -0.2434 -0.0015 -0.4077
18245TIP3    H176150   0.357   1.296   5.610  0.1578  0.5582  0.8185
18245TIP3    H276151   0.350   1.363   5.474 -0.8158 -1.2394 -0.0441
18246TIP3   OH276152   5.232   1.970   3.689  0.6236  0.0526  0.6879
18246TIP3    H176153   5.219   2.048   3.635  0.1057  0.1114  0.8977
18246TIP3    H276154   5.325   1.948   3.676  0.5925  0.2678  0.0486
18247TIP3   OH276155   2.187   6.257  11.684  0.2583  0.6579  0.5954
18247TIP3    H176156   2.244   6.321  11.639 -1.1139  1.9283  0.5849
18247TIP3    H276157   2.117   6.240  11.621  0.6986 -1.0570  0.5250
18248TIP3   OH276158   6.427   2.822  12.796  0.0641 -0.3263  0.4221
18248TIP3    H176159   6.497   2.780  12.845 -0.1033  0.4848  1.4135
18248TIP3    H276160   6.468   2.853  12.715  0.9323  0.3933  1.1197
18249TIP3   OH276161   3.893   6.600  17.175  0.2885  0.5972 -0.4526
18249TIP3    H176162   3.905   6.544  17.098 -0.1291 -0.8397  0.4920
18249TIP3    H276163   3.964   6.663  17.170  1.2186 -0.4749 -1.1790
18250TIP3   OH276164   2.461   2.591  16.381  0.2183 -0.0935 -0.1336
18250TIP3    H176165   2.515   2.607  16.304  0.3626 -2.1406 -0.5310
18250TIP3    H276166   2.404   2.518  16.355  0.6737 -1.2300  1.8643
18251TIP3   OH276167   6.021   6.248  14.520 -0.5839  0.1862  1.0828
18251TIP3    H176168   5.964   6.241  14.597 -0.7870  0.1485  0.9272
18251TIP3    H276169   5.999   6.171  14.467 -2.1390  1.4594 -0.1789
18252TIP3   OH276170   0.021   4.723  13.579 -0.2929 -0.3792  0.2154
18252TIP3    H176171   0.089   4.766  13.529 -0.0515  0.5289  1.2811
18252TIP3    H276172  -0.060   4.765  13.551 -0.3484 -1.0015 -0.5743
18253TIP3   OH276173   4.812   0.532   0.118  0.1789  0.4448 -0.4880
18253TIP3    H176174   4.844   0.492   0.199  0.1483 -2.0320 -1.5993
18253TIP3    H276175   4.886   0.526   0.058 -0.2388  0.9345 -1.0646
18254TIP3   OH276176   5.811   2.087   5.622  0.0472 -0.3391  0.2539
18254TIP3    H176177   5.804   2.091   5.526  0.4896 -0.9793  0.1879
18254TIP3    H276178   5.721   2.079   5.652 -0.0235 -1.2862 -0.1775
18255TIP3   OH276179   4.916   3.789   0.835 -0.3836 -0.1040  0.0019
18255TIP3    H176180   4.909   3.880   0.862  3.7438 -0.1197  1.8812
18255TIP3    H276181   4.904   3.739   0.916  2.6036 -0.7683  0.1597
18256TIP3   OH276182   5.548   1.351   3.176  0.3360 -0.5187  0.0835
18256TIP3    H176183   5.477   1.370   3.115 -0.8208 -3.4335  0.3432
18256TIP3    H276184   5.504   1.332   3.259  1.4595 -1.5253  0.4806
18257TIP3   OH276185   3.824   6.371  15.081  0.4011  0.3579 -0.4776
18257TIP3    H176186   3.799   6.280  15.065  0.3987  0.1322  0.6987
18257TIP3    H276187   3.897   6.365  15.142 -1.5148  1.1787  2.0561
18258TIP3   OH276188   2.834   3.317  13.038 -0.2518  0.1947 -0.4476
18258TIP3    H176189   2.860   3.281  13.123 -0.0495  1.1669 -0.0891
18258TIP3    H276190   2.760   3.373  13.058  0.3965  1.1840 -0.7592
18259TIP3   OH276191   0.515   4.219  11.515  0.7209  0.5228  0.0968
18259TIP3    H176192   0.512   4.133  11.556 -0.5573  0.5964  0.2231
18259TIP3    H276193   0.470   4.208  11.431  0.7747  0.9980 -0.0006
18260TIP3   OH276194   3.137   1.434  14.572  0.0080 -0.4387 -0.3423
18260TIP3    H176195   3.232   1.431  14.587  0.3372 -0.3794 -2.1332
18260TIP3    H276196   3.102   1.361  14.621  0.7312  0.5802  1.8123
18261TIP3   OH276197   0.036   4.435   5.269  0.0052  0.0402 -0.3826
18261TIP3    H176198  -0.042   4.384   5.250 -1.4515  2.3007 -0.7706
18261TIP3    H276199   0.081   4.444   5.185 -0.2906  0.2654 -0.5182
18262TIP3   OH276200   2.496   4.035   4.352  0.4486 -0.1019 -0.2674
18262TIP3    H176201   2.521   4.059   4.440 -0.6454 -0.9415  0.3048
18262TIP3    H276202   2.420   3.977   4.363  0.7348 -0.8219 -1.7095
18263TIP3   OH276203   0.610   1.553   2.503  0.0823  0.0131 -0.2077
18263TIP3    H176204   0.529   1.513   2.470 -0.6040  0.9283  0.3219
18263TIP3    H276205   0.618   1.635   2.455  1.3224 -0.5764 -1.0606
18264TIP3   OH276206   5.963   1.264   1.433 -0.2258 -0.0528 -0.2534
18264TIP3    H176207   5.977   1.244   1.525 -1.6089  0.8456  0.1716
18264TIP3    H276208   6.016   1.342   1.417  0.9104 -0.8564 -0.5343
18265TIP3   OH276209   1.783   1.802   0.088 -0.5048  0.3887  0.1880
18265TIP3    H176210   1.755   1.871   0.148 -1.2985 -1.1837  1.6872
18265TIP3    H276211   1.854   1.758   0.134 -0.0262  0.1522 -0.7427
18266TIP3   OH276212   1.284   1.408   1.711 -0.3346  0.5442  0.5158
18266TIP3    H176213   1.277   1.376   1.801  0.2076  0.1616  0.4286
18266TIP3    H276214   1.273   1.331   1.656  2.1604  0.2349  0.3381
18267TIP3   OH276215   3.240   5.384  16.911 -0.2609  0.3433  0.1716
18267TIP3    H176216   3.310   5.448  16.896 -0.6988  0.5194 -1.2341
18267TIP3    H276217   3.160   5.436  16.907 -0.5647 -0.1306  0.0631
18268TIP3   OH276218   3.090   5.184  15.248  0.2932 -0.2476  0.2485
18268TIP3    H176219   3.167   5.180  15.191 -0.3358  0.0897 -0.6554
18268TIP3    H276220   3.122   5.160  15.334  1.7656  1.4909  0.2369
18269TIP3   OH276221   1.194   4.646  11.461  0.0441 -0.0599  0.1833
18269TIP3    H176222   1.142   4.720  11.429 -1.4178  0.2665  3.0078
18269TIP3    H276223   1.132   4.573  11.464 -0.5415  0.3888  3.8093
18270TIP3   OH276224   0.974   1.341   4.422 -0.2287 -0.2777  0.0405
18270TIP3    H176225   0.949   1.376   4.336  0.3867 -0.9949 -0.4503
18270TIP3    H276226   0.998   1.250   4.404 -0.6107 -0.5934  1.0748
18271TIP3   OH276227   2.300   1.545   2.261 -0.3577  0.0755 -0.0604
18271TIP3    H176228   2.248   1.509   2.189  0.8332  0.7952 -1.3325
18271TIP3    H276229   2.376   1.585   2.218 -0.1222  1.4288  1.5284
18272TIP3   OH276230   5.963   0.082   3.388  0.1681  0.0550 -0.2748
18272TIP3    H176231   6.020   0.123   3.323 -1.2746  1.9165 -0.4620
18272TIP3    H276232   5.897   0.149   3.407 -2.8236 -2.4258 -1.1624
18273TIP3   OH276233   6.186   1.902  13.671  0.0248 -0.1389  0.1916
18273TIP3    H176234   6.148   1.949  13.745 -0.0922 -0.3737  0.2812
18273TIP3    H276235   6.127   1.827  13.657 -0.9697  0.8498 -1.2609
18274TIP3   OH276236   0.911   4.434  12.401  0.4549  0.1040  0.4998
18274TIP3    H176237   0.998   4.439  12.440  1.5795 -2.9097 -1.2713
18274TIP3    H276238   0.887   4.342  12.407 -2.1361  0.6614 -0.1064
18275TIP3   OH276239   1.059   5.646  14.738  0.0605 -0.4898  0.1318
18275TIP3    H176240   0.970   5.612  14.739 -0.1482 -0.0658 -1.5207
18275TIP3    H276241   1.110   5.582  14.788 -1.1952 -0.5767  1.3625
18276TIP3   OH276242   1.359   0.649   4.817 -0.2269  1.3975  0.0279
18276TIP3    H176243   1.379   0.563   4.853  0.3853  1.3816 -0.3388
18276TIP3    H276244   1.358   0.707   4.892  0.5758  1.2829  0.1325
18277TIP3   OH276245   6.197   6.622   0.292 -0.3426  0.2852  0.4891
18277TIP3    H176246   6.267   6.567   0.256 -0.2139 -0.4080  1.7545
18277TIP3    H276247   6.116   6.579   0.263 -0.2937  1.2180 -1.1766
18278TIP3   OH276248   2.597   0.563   0.711  0.1713 -0.1156 -0.5498
18278TIP3    H176249   2.507   0.533   0.715 -0.0978  0.7301 -0.0155
18278TIP3    H276250   2.646   0.501   0.765  0.0990 -1.1478 -1.6192
18279TIP3   OH276251   3.187   5.325  16.211 -0.3718 -0.0401  0.3504
18279TIP3    H176252   3.162   5.265  16.282 -1.4465 -0.3661 -0.2784
18279TIP3    H276253   3.124   5.397  16.218  0.4945  0.7077  0.6807
18280TIP3   OH276254   0.179   3.852  12.888  0.8383 -0.0939  0.1781
18280TIP3    H176255   0.129   3.933  12.878 -1.3098 -0.9582  2.6749
18280TIP3    H276256   0.270   3.880  12.888  0.3130  1.9159 -1.8145
18281TIP3   OH276257   2.908   6.715  14.883 -0.2836  0.0524 -0.2281
18281TIP3    H176258   2.928   6.622  14.874  1.5637  0.4012 -0.0281
18281TIP3    H276259   2.902   6.747  14.793 -2.6110 -0.5383 -0.3532
18282TIP3   OH276260   5.874   5.341  16.836  0.0014 -0.0725 -0.6728
18282TIP3    H176261   5.891   5.248  16.849 -0.0949  0.1894  1.9448
18282TIP3    H276262   5.961   5.382  16.840 -0.1060  0.1012 -0.0408
18283TIP3   OH276263   1.472   1.036   0.042  0.1183 -0.4512 -0.0465
18283TIP3    H176264   1.461   0.941   0.047 -0.7003 -0.4665 -1.4264
18283TIP3    H276265   1.411   1.071   0.106 -0.6402 -0.8316 -0.5502
18284TIP3   OH276266   2.166   3.915  12.249 -0.0321  0.1389 -0.5306
18284TIP3    H176267   2.179   3.873  12.334 -0.7325  0.1962 -0.3938
18284TIP3    H276268   2.229   3.987  12.248  1.2045 -0.8968 -0.7757
18285TIP3   OH276269   3.055   3.228   0.162 -0.5401  0.7341  0.4115
18285TIP3    H176270   3.075   3.136   0.144  0.5346  0.8825  0.8136
18285TIP3    H276271   2.959   3.233   0.157 -0.5956 -0.3703  0.2277
18286TIP3   OH276272   6.433   1.480   0.641 -0.5342 -0.0179 -0.3549
18286TIP3    H176273   6.341   1.477   0.614 -0.7767  1.0978  0.3040
18286TIP3    H276274   6.433   1.447   0.731 -0.4420  0.9071 -0.0058
18287TIP3   OH276275   6.084   3.432   1.135  0.0722  0.2096  0.0542
18287TIP3    H176276   5.993   3.463   1.143  0.2831  0.7699  0.3548
18287TIP3    H276277   6.103   3.390   1.219  0.5043  1.2491  0.5004
18288TIP3   OH276278   1.471   5.799  13.608  0.4768 -0.3713 -0.2464
18288TIP3    H176279   1.464   5.714  13.653  0.5337  0.2781  1.0491
18288TIP3    H276280   1.498   5.860  13.677 -3.0262  1.4200 -0.2371
18289TIP3   OH276281   4.446   2.802  11.414  0.4674  0.7845 -0.3163
18289TIP3    H176282   4.354   2.812  11.437  0.8993  0.3187  1.7819
18289TIP3    H276283   4.449   2.725  11.357 -0.3577  0.3589  0.2062
18290TIP3   OH276284   1.387   6.563  12.519 -0.2467 -0.0861 -0.7366
18290TIP3    H176285   1.474   6.594  12.546 -0.1744 -1.8083  1.2854
18290TIP3    H276286   1.326   6.623  12.563 -0.1043  0.5263 -1.3588
18291TIP3   OH276287   3.377   5.030   4.889 -0.0566  0.1191  0.1563
18291TIP3    H176288   3.429   5.087   4.946  0.1223 -2.0260  2.3385
18291TIP3    H276289   3.395   5.061   4.800  0.5982  2.8998  1.1559
18292TIP3   OH276290   2.456   0.485  11.622 -0.0820 -0.1652  0.3484
18292TIP3    H176291   2.506   0.477  11.703  1.7523  0.6823 -0.6521
18292TIP3    H276292   2.511   0.443  11.555 -1.5244 -0.7863 -0.4946
18293TIP3   OH276293   6.214   5.027   3.038  0.2716 -0.0644  0.4488
18293TIP3    H176294   6.281   5.093   3.021 -0.6946  0.9896  0.5955
18293TIP3    H276295   6.217   4.969   2.962  0.6778  0.5538 -0.0155
18294TIP3   OH276296   4.928   3.400  14.342 -0.1790 -0.0576  0.5090
18294TIP3    H176297   4.877   3.367  14.268  0.1347 -0.3330  0.4118
18294TIP3    H276298   5.000   3.448  14.301 -1.4078  2.0377  0.6356
18295TIP3   OH276299   6.605   4.853  11.417 -0.0569  0.1885  0.2410
18295TIP3    H176300   6.564   4.925  11.367  0.9131  0.6771  0.1295
18295TIP3    H276301   6.575   4.774  11.373  1.5397  0.6172 -1.7940
18296TIP3   OH276302   3.703   6.381   3.119  0.1067 -0.0652  0.0229
18296TIP3    H176303   3.706   6.463   3.070 -0.7595 -0.1413 -0.1759
18296TIP3    H276304   3.727   6.406   3.208 -0.1860  0.4144 -0.0274
18297TIP3   OH276305   2.346   0.590   2.824 -0.4360 -0.0194  0.0495
18297TIP3    H176306   2.294   0.608   2.903  0.3016 -0.3176  0.6185
18297TIP3    H276307   2.410   0.524   2.852 -0.4366 -0.4444 -0.9145
18298TIP3   OH276308   3.726   0.621  17.119  0.2129 -0.1724  0.3656
18298TIP3    H176309   3.774   0.559  17.065 -0.2734 -0.7417  0.5730
18298TIP3    H276310   3.791   0.686  17.145  0.0728  1.3583 -2.6612
18299TIP3   OH276311   3.922   2.268  11.724  0.0865 -0.2817 -0.4493
18299TIP3    H176312   4.008   2.249  11.762 -0.6505 -1.6098  0.6175
18299TIP3    H276313   3.869   2.192  11.745 -1.8032  1.1541  0.2752
18300TIP3   OH276314   2.455   0.083  17.016 -0.0950  0.1635 -0.4861
18300TIP3    H176315   2.459   0.094  17.111  1.5948  0.5077 -0.5616
18300TIP3    H276316   2.384   0.140  16.987 -0.6542  0.0165  0.5605
18301TIP3   OH276317   3.493   0.764   3.828 -0.4735  0.4645  0.2880
18301TIP3    H176318   3.561   0.701   3.803  0.3250  0.2544  2.7211
18301TIP3    H276319   3.421   0.746   3.768 -0.0449 -2.3703  0.4817
18302TIP3   OH276320   5.747   0.133   2.273  0.0113  0.2169 -0.0364
18302TIP3    H176321   5.745   0.143   2.369 -0.8205  1.8261 -0.1863
18302TIP3    H276322   5.835   0.160   2.248  0.7422 -1.6203  0.3615
18303TIP3   OH276323   6.039   2.066  16.483 -0.1821 -0.4314  0.9480
18303TIP3    H176324   6.089   2.058  16.401 -0.7564 -1.0316  0.6485
18303TIP3    H276325   6.088   2.131  16.534 -0.9148  1.5716 -0.7220
18304TIP3   OH276326   0.565   3.564  15.291  0.2169 -0.1260  0.0585
18304TIP3    H176327   0.575   3.498  15.359  2.5822 -0.7187 -0.7777
18304TIP3    H276328   0.495   3.621  15.323  0.2285 -1.2437  2.2589
18305TIP3   OH276329   6.465   0.989  15.069 -0.4250 -0.1086  0.6402
18305TIP3    H176330   6.389   0.931  15.075 -0.0122 -0.5453  2.0453
18305TIP3    H276331   6.429   1.073  15.042 -0.9759 -1.1027 -2.0678
18306TIP3   OH276332   0.158   4.567   5.066  0.5862  0.1365  0.2500
18306TIP3    H176333   0.189   4.658   5.070  0.4143  0.1775  0.8472
18306TIP3    H276334   0.149   4.548   4.973  1.4956  0.4344  0.0981
18307TIP3   OH276335   1.410   2.818  12.411  0.6155 -0.0727 -0.1373
18307TIP3    H176336   1.362   2.800  12.331  1.1570  1.0025 -0.7392
18307TIP3    H276337   1.397   2.912  12.426  0.1802 -0.3276  1.2780
18308TIP3   OH276338   1.202   2.286   0.881 -0.1962 -0.2971 -0.0040
18308TIP3    H176339   1.192   2.206   0.934 -0.2226 -1.4814 -1.6990
18308TIP3    H276340   1.217   2.355   0.945  0.3335 -1.7355  1.5134
18309TIP3   OH276341   6.610   6.421   1.698 -0.3257 -0.6320  0.1820
18309TIP3    H176342   6.610   6.401   1.605 -0.7503  0.1292  0.0050
18309TIP3    H276343   6.519   6.441   1.719  0.0302  1.0847  0.3032
18310TIP3   OH276344   6.645   5.797  16.220 -0.0351 -0.4056  0.1951
18310TIP3    H176345   6.626   5.798  16.314  2.1703 -1.1485  0.7008
18310TIP3    H276346   6.739   5.813  16.214  0.1598 -1.9127 -1.7964
18311TIP3   OH276347   1.832   3.459  12.650  0.0681 -0.2242  0.2217
18311TIP3    H176348   1.813   3.526  12.584 -2.2430 -1.9398 -1.0180
18311TIP3    H276349   1.925   3.439  12.640  0.3378  1.3694 -0.7172
18312TIP3   OH276350   1.990   0.783   0.410 -0.5184 -0.3583 -0.1317
18312TIP3    H176351   1.941   0.834   0.475  2.0808  0.3055  1.4555
18312TIP3    H276352   2.062   0.841   0.383 -0.9919 -0.9654 -3.0145
18313TIP3   OH276353   3.373   1.101   4.619 -0.2499 -0.0217 -0.3435
18313TIP3    H176354   3.303   1.058   4.669 -0.1869 -0.2631 -0.4622
18313TIP3    H276355   3.453   1.059   4.649 -0.2512 -0.4590 -0.9536
18314TIP3   OH276356   5.805   0.988   2.124 -0.4627  0.0891 -0.1100
18314TIP3    H176357   5.884   0.970   2.073 -0.5198  0.7522 -0.4422
18314TIP3    H276358   5.836   1.031   2.203 -0.2315 -2.2388  1.1556
18315TIP3   OH276359   4.813   1.030  12.973  0.1148 -0.1600 -0.1031
18315TIP3    H176360   4.836   0.965  13.040 -0.2920  0.5747  0.7664
18315TIP3    H276361   4.882   1.021  12.907  0.7763 -0.5961  0.6229
18316TIP3   OH276362   1.763   5.455   2.923 -0.1509 -0.1440  0.0082
18316TIP3    H176363   1.674   5.468   2.889 -0.3525 -1.0016  0.1729
18316TIP3    H276364   1.753   5.454   3.018  0.1521  0.5029  0.0510
18317TIP3   OH276365   0.024   4.049  12.735  0.0726  0.5096 -0.1542
18317TIP3    H176366  -0.033   3.976  12.711 -0.9391  1.4050 -0.5503
18317TIP3    H276367  -0.036   4.123  12.747  1.0063  1.1137  0.9219
18318TIP3   OH276368   3.347   2.268   5.020 -0.0119 -0.8357  0.0369
18318TIP3    H176369   3.392   2.352   5.023 -0.4979 -0.5992  1.3046
18318TIP3    H276370   3.379   2.227   4.940  1.7922 -0.3119  0.4406
18319TIP3   OH276371   5.960   3.653  14.101  0.4832 -0.3402  0.4200
18319TIP3    H176372   5.919   3.569  14.123 -1.3848  0.7813  1.4548
18319TIP3    H276373   5.961   3.701  14.183 -0.9021  1.6275 -0.6407
18320TIP3   OH276374   4.657   6.700  12.545  0.2133 -0.7136 -0.3588
18320TIP3    H176375   4.748   6.678  12.562 -0.1545 -0.6523  1.9082
18320TIP3    H276376   4.661   6.771  12.481  1.8442  0.4617  0.9690
18321TIP3   OH276377   4.198   3.459   5.350  0.1583 -0.1912  0.2258
18321TIP3    H176378   4.121   3.515   5.342  0.8951  0.7541 -0.5653
18321TIP3    H276379   4.220   3.461   5.443  0.0175  0.6333  0.2517
18322TIP3   OH276380   5.932   3.009   6.550  0.0384 -0.1562  0.2311
18322TIP3    H176381   6.000   2.947   6.575 -1.6662 -2.1837  0.1265
18322TIP3    H276382   5.974   3.095   6.557  2.4482 -1.2749  0.5610
18323TIP3   OH276383   5.615   4.009   4.941 -0.4118 -0.0542  0.6868
18323TIP3    H176384   5.530   3.972   4.918  0.1269 -0.7449 -0.2943
18323TIP3    H276385   5.612   4.099   4.908 -0.6610 -0.1731  0.3715
18324TIP3   OH276386   3.827   5.300  13.508 -0.1473  0.0053 -0.3280
18324TIP3    H176387   3.758   5.259  13.560  0.1517 -0.5876 -0.4013
18324TIP3    H276388   3.796   5.294  13.418 -0.5822  0.8754 -0.2573
18325TIP3   OH276389   4.886   6.722   6.013  0.5343 -0.1480 -0.0288
18325TIP3    H176390   4.829   6.759   6.080 -1.0510 -1.4998 -0.5840
18325TIP3    H276391   4.973   6.723   6.053 -0.5368 -2.1595  2.6046
18326TIP3   OH276392   0.643   2.819  12.304 -0.1406  0.6309 -0.1214
18326TIP3    H176393   0.594   2.899  12.322  1.5860  1.6770  0.2194
18326TIP3    H276394   0.735   2.845  12.310  0.5168 -1.5917  1.0712
18327TIP3   OH276395   0.913   5.708  13.260 -0.4783 -0.1019  0.1976
18327TIP3    H176396   0.915   5.736  13.351 -0.4039  0.8502 -0.0833
18327TIP3    H276397   0.863   5.776  13.215  0.4853  0.0637 -0.6696
18328TIP3   OH276398   5.817   6.429   1.829 -0.7033 -0.4449  0.2002
18328TIP3    H176399   5.791   6.480   1.905 -0.7146  1.5411 -1.0522
18328TIP3    H276400   5.735   6.395   1.793 -1.0660  1.1604 -0.5918
18329TIP3   OH276401   3.548   0.347  11.921 -0.3734 -0.5104  0.4338
18329TIP3    H176402   3.609   0.396  11.866  0.4994  1.7142  3.1498
18329TIP3    H276403   3.600   0.315  11.994 -2.3123  1.7345  3.0254
18330TIP3   OH276404   1.511   0.599   1.363 -0.3504  0.0512 -0.0852
18330TIP3    H176405   1.557   0.593   1.446  0.6171  1.0807 -0.5116
18330TIP3    H276406   1.570   0.557   1.300  0.4661  2.1298 -0.7840
18331TIP3   OH276407   6.770   5.511  16.056  0.3142 -0.0062 -0.4763
18331TIP3    H176408   6.700   5.552  16.106  1.2187 -0.4112  1.1843
18331TIP3    H276409   6.762   5.418  16.075  2.0372  0.0617  0.7618
18332TIP3   OH276410   2.864   4.864   4.937 -0.6185 -0.2140 -0.4929
18332TIP3    H176411   2.895   4.781   4.974  2.7666  0.8815 -0.4714
18332TIP3    H276412   2.944   4.917   4.928 -2.3463  2.3010 -2.4348
18333TIP3   OH276413   5.830   1.959  14.830  0.2143 -0.3382  0.1951
18333TIP3    H176414   5.735   1.948  14.824  0.0001 -0.0013  2.2828
18333TIP3    H276415   5.856   1.901  14.902  1.6832 -0.8075 -0.6744
18334TIP3   OH276416   0.797   3.500   6.759  0.0180  0.1929  0.3819
18334TIP3    H176417   0.752   3.584   6.748 -1.4530 -0.7525 -1.3918
18334TIP3    H276418   0.728   3.435   6.754  1.1409 -1.1555  1.6489
18335TIP3   OH276419   6.212   0.678   1.102  0.0590 -0.4716  0.6078
18335TIP3    H176420   6.121   0.679   1.072  0.4651 -1.2658 -0.7172
18335TIP3    H276421   6.207   0.647   1.192 -1.2051  2.0031  1.4842
18336TIP3   OH276422   2.569   3.498  15.187 -0.0590  0.2514  0.2305
18336TIP3    H176423   2.619   3.575  15.213 -0.2224  0.3771  0.1811
18336TIP3    H276424   2.506   3.485  15.258  1.1132 -0.9019  1.1053
18337TIP3   OH276425   5.130   4.536   0.464  0.6908  0.2991  0.4516
18337TIP3    H176426   5.055   4.582   0.500 -0.6390  0.2514 -2.0052
18337TIP3    H276427   5.206   4.577   0.504 -0.5875  1.7973  1.4327
18338TIP3   OH276428   3.128   4.871  14.385 -0.1836 -0.7122 -0.3044
18338TIP3    H176429   3.181   4.950  14.386 -0.3970 -0.4676  2.7944
18338TIP3    H276430   3.038   4.902  14.371 -0.1036 -0.5524 -0.4556
18339TIP3   OH276431   3.244   3.884  15.873  0.6840  0.2292  0.4235
18339TIP3    H176432   3.323   3.927  15.840  1.3818 -0.7174  0.8445
18339TIP3    H276433   3.266   3.791  15.877 -0.2678  0.0129  1.0758
18340TIP3   OH276434   1.824   0.856  17.013 -0.3522  0.1313  0.4514
18340TIP3    H176435   1.788   0.872  16.926 -0.1597  0.8527  0.4938
18340TIP3    H276436   1.748   0.846  17.070 -0.4967  0.7250  0.3770
18341TIP3   OH276437   4.056   2.666   0.940  0.6642  0.1858 -0.9749
18341TIP3    H176438   4.063   2.761   0.951 -1.7412  0.3683 -0.3969
18341TIP3    H276439   4.107   2.630   1.013 -0.8856  1.1393  0.6832
18342TIP3   OH276440   1.643   2.029   2.629 -0.1129  0.5521  0.2897
18342TIP3    H176441   1.586   1.965   2.672  0.5115  0.6882  1.3402
18342TIP3    H276442   1.601   2.045   2.544 -2.6155  1.9228  1.6538
18343TIP3   OH276443   0.832   2.348   4.803  0.2326 -0.6655  0.6584
18343TIP3    H176444   0.809   2.259   4.775 -0.4013 -0.2152 -0.2959
18343TIP3    H276445   0.755   2.380   4.849  0.1623 -0.3278  0.3107
18344TIP3   OH276446   5.300   0.509  12.131  0.1644  0.1951 -0.1280
18344TIP3    H176447   5.226   0.568  12.117  0.5097  0.8197  0.5998
18344TIP3    H276448   5.378   0.565  12.121  0.4780  0.1242  1.5857
18345TIP3   OH276449   5.989   5.247  13.097 -0.3732  0.7059  0.4354
18345TIP3    H176450   5.951   5.159  13.090  2.0693 -0.5979  2.0939
18345TIP3    H276451   5.973   5.272  13.188  2.3410  0.2133  1.1166
18346TIP3   OH276452   6.146   5.897   1.495 -0.3973  0.4479  0.4614
18346TIP3    H176453   6.156   5.816   1.546 -0.0794  1.4897  2.1546
18346TIP3    H276454   6.065   5.936   1.528 -1.1716  0.2868 -1.1721
18347TIP3   OH276455   2.728   0.293  17.249 -0.2398  0.2177 -0.3655
18347TIP3    H176456   2.801   0.285  17.311  0.4768  0.8648 -1.0890
18347TIP3    H276457   2.683   0.209  17.253  2.5006 -1.5190 -2.2421
18348TIP3   OH276458   5.532   2.383   5.262  0.8202 -0.0099  0.2300
18348TIP3    H176459   5.597   2.414   5.199 -0.8643 -0.2960 -1.7716
18348TIP3    H276460   5.495   2.304   5.222 -0.0525 -0.4339  1.7765
18349TIP3   OH276461   0.751   3.796   0.498 -0.1414 -0.3174  0.4784
18349TIP3    H176462   0.783   3.874   0.543  2.5962 -1.8716  1.4418
18349TIP3    H276463   0.726   3.736   0.568  1.6780 -1.7702 -0.0296
18350TIP3   OH276464   2.672   1.969  12.672 -0.3455 -0.6074 -0.6759
18350TIP3    H176465   2.587   1.996  12.707  0.1031  0.0015 -0.0261
18350TIP3    H276466   2.667   1.989  12.579 -0.6266  0.1962 -0.4963
18351TIP3   OH276467   3.746   0.595  16.717  0.4044  0.0019 -0.3167
18351TIP3    H176468   3.822   0.652  16.706  0.3942  0.1057  0.1180
18351TIP3    H276469   3.679   0.652  16.755 -0.2638  0.1925 -1.7198
18352TIP3   OH276470   5.359   2.518  14.046  0.5054 -0.1517 -0.1959
18352TIP3    H176471   5.267   2.544  14.054  0.4444 -0.3390 -0.2961
18352TIP3    H276472   5.375   2.464  14.123 -0.0581 -1.8864 -1.2432
18353TIP3   OH276473   1.277   0.059   4.376 -0.0399 -0.6443 -0.1289
18353TIP3    H176474   1.215   0.013   4.319  0.3013 -0.9017 -0.3014
18353TIP3    H276475   1.338  -0.009   4.404 -1.1548 -0.8916  1.9203
18354TIP3   OH276476   2.940   5.968   5.650  0.9182 -0.2783 -0.5779
18354TIP3    H176477   2.964   5.907   5.721  0.2389  0.5190  0.3691
18354TIP3    H276478   2.853   5.940   5.623  0.3570  0.6107  0.2651
18355TIP3   OH276479   0.303   0.496   6.081  0.5163 -0.2686 -0.8813
18355TIP3    H176480   0.390   0.468   6.108  0.4353 -1.4542 -1.7544
18355TIP3    H276481   0.274   0.555   6.151  0.7313 -2.3364  1.0865
18356TIP3   OH276482   3.865   3.306   1.979  0.0596 -0.3698  0.3652
18356TIP3    H176483   3.937   3.245   1.993  0.4616 -0.2062 -0.7973
18356TIP3    H276484   3.875   3.334   1.887 -0.0499  1.4942  0.8734
18357TIP3   OH276485   2.946   3.822   6.170 -0.7535  0.0760  0.1504
18357TIP3    H176486   2.934   3.852   6.260  0.4379  0.7865  0.0979
18357TIP3    H276487   2.976   3.900   6.123  0.0028 -0.6068 -0.5365
18358TIP3   OH276488   2.431   5.348  12.332 -0.7029  0.3619 -0.2351
18358TIP3    H176489   2.402   5.409  12.264 -0.0594  0.5227 -0.3738
18358TIP3    H276490   2.504   5.393  12.376  0.2423 -0.5691 -0.7933
18359TIP3   OH276491   3.789   0.228   0.830  0.2554  0.0860 -0.6164
18359TIP3    H176492   3.741   0.157   0.873  1.3952 -0.7011 -0.6164
18359TIP3    H276493   3.803   0.197   0.740  0.2683  0.5536 -0.7770
18360TIP3   OH276494   0.540   4.741   3.127  0.0963 -0.5535  0.0127
18360TIP3    H176495   0.591   4.678   3.177  0.4824  0.8990  1.5640
18360TIP3    H276496   0.492   4.790   3.193 -0.6602  0.3688 -1.1793
18361TIP3   OH276497   0.222   1.557   5.793  0.1886  0.5202  0.5439
18361TIP3    H176498   0.269   1.474   5.807  0.8763  0.7820 -0.1521
18361TIP3    H276499   0.264   1.619   5.852  2.1869  1.2826 -1.5054
18362TIP3   OH276500   1.258   2.720  11.136  0.5902 -0.0987 -0.3003
18362TIP3    H176501   1.177   2.701  11.183 -0.0337  1.5344 -0.6401
18362TIP3    H276502   1.233   2.723  11.044  0.8834  0.9946 -0.3626
18363TIP3   OH276503   4.765   1.332  16.896  0.2266  0.5751 -0.0011
18363TIP3    H176504   4.796   1.412  16.938 -0.0284  1.0383 -0.6579
18363TIP3    H276505   4.787   1.262  16.957  1.3083  1.0384  0.1619
18364TIP3   OH276506   1.705   3.882  16.573  0.5608 -0.0567 -0.3156
18364TIP3    H176507   1.659   3.943  16.630 -0.2521 -0.9678  0.0326
18364TIP3    H276508   1.776   3.847  16.628 -0.6025 -1.4087  0.3995
18365TIP3   OH276509   4.849   2.952   4.068  0.1813 -0.5080 -0.2269
18365TIP3    H176510   4.809   2.951   4.155  1.0142 -0.1637  0.1742
18365TIP3    H276511   4.780   2.920   4.009 -0.3680 -0.8051  0.5633
18366TIP3   OH276512   2.693   3.406  16.310  0.5140  0.2045 -0.3458
18366TIP3    H176513   2.775   3.446  16.339  0.5560  0.5100 -0.8863
18366TIP3    H276514   2.718   3.354  16.234  0.2605  0.0347 -0.3150
18367TIP3   OH276515   0.383   5.141  16.829  0.4340  0.8986  0.2759
18367TIP3    H176516   0.340   5.056  16.841 -2.5160  2.2068 -0.1840
18367TIP3    H276517   0.420   5.161  16.915  1.6800 -1.0381  0.2541
18368TIP3   OH276518   0.919   1.573  15.120 -0.4898  0.1872  0.5189
18368TIP3    H176519   0.876   1.548  15.038  0.2707  0.3309  0.0643
18368TIP3    H276520   0.982   1.502  15.136 -0.9299 -0.0638  1.2196
18369TIP3   OH276521   0.000   2.199  15.271 -0.3041  0.1460  0.5411
18369TIP3    H176522  -0.027   2.170  15.183  0.6469  0.0993  0.2476
18369TIP3    H276523  -0.021   2.292  15.273 -1.6413 -0.1448  0.7948
18370TIP3   OH276524   4.666   4.413   3.632  0.0378  0.0716 -0.1825
18370TIP3    H176525   4.748   4.461   3.617  0.4773 -0.2821  1.0084
18370TIP3    H276526   4.653   4.363   3.551  0.7611  0.4836 -0.5628
18371TIP3   OH276527   5.906   4.466  16.387  0.2650  0.0693 -0.2484
18371TIP3    H176528   5.920   4.561  16.389  0.4365  0.1323 -2.2451
18371TIP3    H276529   5.935   4.436  16.474  0.9030  1.7425  0.1691
18372TIP3   OH276530   2.650   2.642   0.878  0.0398  0.2338  0.0533
18372TIP3    H176531   2.597   2.716   0.906 -0.6182  0.3299 -1.3400
18372TIP3    H276532   2.608   2.565   0.916  1.5317  0.6122  2.6923
18373TIP3   OH276533   6.289   2.889  14.286 -0.1962  0.3965  0.7354
18373TIP3    H176534   6.253   2.801  14.292  0.2599  0.1879  0.4356
18373TIP3    H276535   6.289   2.909  14.193  0.0107  0.5824  0.7749
18374TIP3   OH276536   3.581   1.079   2.621  0.1747  0.5762 -0.1198
18374TIP3    H176537   3.617   1.084   2.532  0.0164  0.1872 -0.2067
18374TIP3    H276538   3.557   1.170   2.642 -1.8342  0.3848 -1.3107
18375TIP3   OH276539   3.014   6.028   1.951  0.1350 -0.0025 -0.0787
18375TIP3    H176540   3.099   6.058   1.984  0.2743  0.7333 -1.0663
18375TIP3    H276541   3.017   5.933   1.962  1.0103  0.0354  0.0832
18376TIP3   OH276542   2.706   0.086   0.136 -0.3493  0.2664  0.3639
18376TIP3    H176543   2.649   0.134   0.195 -2.2627 -1.8424  0.3461
18376TIP3    H276544   2.709  -0.003   0.171 -1.1798 -0.9443 -2.3696
18377TIP3   OH276545   0.656   6.241   5.543 -0.1473  0.2704 -0.3436
18377TIP3    H176546   0.615   6.158   5.569 -0.5260  0.5843  0.0743
18377TIP3    H276547   0.591   6.284   5.488 -0.7101  1.1082  0.9334
18378TIP3   OH276548   0.458   2.314   3.796 -0.0707 -0.0526 -0.0120
18378TIP3    H176549   0.482   2.338   3.885  3.1125  1.8042 -1.2070
18378TIP3    H276550   0.505   2.232   3.779 -0.5192 -0.3048 -0.0657
18379TIP3   OH276551   2.632   0.045  13.749 -0.1702  0.1616 -0.1814
18379TIP3    H176552   2.696  -0.025  13.738  1.9612  1.6100  1.9196
18379TIP3    H276553   2.672   0.121  13.708  0.2837  1.4709  2.4455
18380TIP3   OH276554   4.509   5.095  12.023 -0.3084 -0.5392  0.6782
18380TIP3    H176555   4.425   5.079  12.066 -1.0320  2.2591  0.4261
18380TIP3    H276556   4.488   5.141  11.942  1.4907  2.0015  1.5218
18381TIP3   OH276557   2.058   4.026   3.633 -0.3165  0.1896 -0.3424
18381TIP3    H176558   1.975   4.031   3.680 -1.6885  1.0860 -2.6416
18381TIP3    H276559   2.121   4.068   3.691 -1.6297  0.1842  1.1575
18382TIP3   OH276560   2.167   1.526   5.970 -0.1228  0.1334  0.7133
18382TIP3    H176561   2.159   1.525   5.875 -0.5498  0.0948  0.7481
18382TIP3    H276562   2.099   1.465   6.000 -1.5040  1.8404  1.1584
18383TIP3   OH276563   5.331   2.437  11.304  0.0179 -0.2855 -0.2802
18383TIP3    H176564   5.295   2.348  11.305  1.5387 -1.0032 -2.5475
18383TIP3    H276565   5.426   2.425  11.311  0.1813  1.2578  0.5964
18384TIP3   OH276566   1.316   3.567   2.624 -0.8586 -0.1947 -0.8558
18384TIP3    H176567   1.409   3.581   2.609 -0.8446 -0.8441 -1.3800
18384TIP3    H276568   1.296   3.621   2.701 -0.3035  0.8453 -1.4233
18385TIP3   OH276569   0.705   5.296  12.739 -0.0837  0.4433  0.6315
18385TIP3    H176570   0.723   5.390  12.728 -1.5998  0.9008  1.8046
18385TIP3    H276571   0.754   5.272  12.818  1.5290 -0.1576 -0.4878
18386TIP3   OH276572   1.239   4.442  17.284  0.6595  0.2179 -0.0207
18386TIP3    H176573   1.239   4.527  17.240 -0.3874  1.1111  1.5886
18386TIP3    H276574   1.167   4.448  17.347  1.4870 -1.3197  1.1323
18387TIP3   OH276575   3.608   0.271  15.539  0.3870  0.2790  0.2687
18387TIP3    H176576   3.651   0.328  15.602  0.8019 -0.7165  0.9229
18387TIP3    H276577   3.583   0.328  15.467  1.5336  1.1318  0.5230
18388TIP3   OH276578   2.260   2.765   1.920 -1.0985 -0.5954  0.3316
18388TIP3    H176579   2.216   2.747   2.003 -2.0760  3.2397  0.8731
18388TIP3    H276580   2.213   2.842   1.885  2.2618  0.8789 -1.3913
18389TIP3   OH276581   5.271   1.316   0.037 -0.3531  0.7950 -0.5393
18389TIP3    H176582   5.294   1.355  -0.047 -2.2140  0.0587 -1.4412
18389TIP3    H276583   5.199   1.370   0.070 -0.5528  0.2562 -0.0706
18390TIP3   OH276584   5.378   5.219  15.316 -0.7258 -0.3426 -0.0770
18390TIP3    H176585   5.447   5.214  15.250 -1.4577 -1.3213 -0.7870
18390TIP3    H276586   5.391   5.304  15.358  1.1208 -0.6462  0.0431
18391TIP3   OH276587   2.093   3.128  10.330 -0.4410  0.3398 -0.0030
18391TIP3    H176588   2.055   3.041  10.344 -0.7317  0.3850 -0.4885
18391TIP3    H276589   2.168   3.131  10.389  0.3930 -0.7635 -0.9776
18392TIP3   OH276590   3.459   5.220  17.020 -0.4682 -0.4165  0.2977
18392TIP3    H176591   3.380   5.253  16.976  0.2847  0.1745 -0.6709
18392TIP3    H276592   3.514   5.187  16.948  1.4689  1.9770  0.5371
18393TIP3   OH276593   4.185   4.357   1.819 -0.7009 -0.4566  0.6011
18393TIP3    H176594   4.231   4.394   1.895  0.4905 -0.5193 -0.0535
18393TIP3    H276595   4.107   4.316   1.855 -1.2599  1.3171  1.5452
18394TIP3   OH276596   1.488   4.381  12.764 -0.2638  0.2406  0.6213
18394TIP3    H176597   1.512   4.449  12.702 -0.8749  0.5505  0.7166
18394TIP3    H276598   1.510   4.299  12.719 -1.2057  0.4378 -0.2463
18395TIP3   OH276599   2.280   3.523  12.042  0.1575 -0.3844  0.0477
18395TIP3    H176600   2.216   3.454  12.022  0.4470 -0.2637 -1.3599
18395TIP3    H276601   2.362   3.492  12.004 -0.0300  1.3584 -1.9565
18396TIP3   OH276602   4.260   3.078   6.325 -0.7447  0.3709 -0.0654
18396TIP3    H176603   4.223   3.067   6.413  0.4405  1.3405  0.5885
18396TIP3    H276604   4.352   3.055   6.335 -0.9183 -1.1443 -1.4607
18397TIP3   OH276605   1.972   3.651   5.145 -0.7124 -0.0003  0.1005
18397TIP3    H176606   2.021   3.580   5.104 -0.2061  0.6398 -0.4251
18397TIP3    H276607   1.923   3.691   5.073  0.6404  1.5100 -0.0627
18398TIP3   OH276608   4.685   4.210  13.845  0.4850  0.0217 -0.4803
18398TIP3    H176609   4.641   4.212  13.759  1.5572  2.1481 -1.0330
18398TIP3    H276610   4.773   4.244  13.828  0.8975 -0.0179  1.3874
18399TIP3   OH276611   2.204   1.715   3.042  0.8199  0.7520 -0.1573
18399TIP3    H176612   2.221   1.640   2.986 -2.6812  0.4460 -1.0220
18399TIP3    H276613   2.207   1.790   2.983 -2.5811  0.4578 -0.9067
18400TIP3   OH276614   4.315   3.130  14.932 -0.0462 -0.1480 -0.4778
18400TIP3    H176615   4.241   3.069  14.936  1.7084 -2.3946  0.0693
18400TIP3    H276616   4.359   3.109  14.850  2.0261 -1.5373  0.8868
18401TIP3   OH276617   3.341   2.562   4.844 -0.0784 -0.3778  0.3486
18401TIP3    H176618   3.306   2.601   4.763 -0.0634  1.2868  1.1015
18401TIP3    H276619   3.436   2.572   4.835 -0.0679 -0.3558  0.4939
18402TIP3   OH276620   5.454   5.668  11.099  0.3778 -0.5745 -0.5683
18402TIP3    H176621   5.390   5.717  11.151  0.7177 -0.8110  0.0836
18402TIP3    H276622   5.522   5.732  11.079 -0.3922 -0.1303 -1.8819
18403TIP3   OH276623   6.558   1.324   1.696  0.1346  0.8901 -0.0083
18403TIP3    H176624   6.592   1.239   1.725 -1.3350  0.6266  1.0318
18403TIP3    H276625   6.625   1.357   1.637 -0.1712 -1.9495 -2.1783
18404TIP3   OH276626   3.463   1.503   2.366 -0.5721 -0.4361  0.2290
18404TIP3    H176627   3.452   1.433   2.302 -0.7095 -0.7961  0.6406
18404TIP3    H276628   3.519   1.567   2.323 -1.4424 -0.2156 -0.6079
18405TIP3   OH276629   0.127   1.175  13.103  0.2148 -0.1352 -0.1232
18405TIP3    H176630   0.076   1.244  13.061 -2.4239 -2.4703 -1.1079
18405TIP3    H276631   0.216   1.209  13.107 -1.2435  4.1564  1.5090
18406TIP3   OH276632   4.527   2.739  14.773 -0.2533  0.6274 -0.1062
18406TIP3    H176633   4.522   2.709  14.683 -2.9412  2.3237 -0.6461
18406TIP3    H276634   4.553   2.662  14.823 -1.0522 -0.9778 -2.0444
18407TIP3   OH276635   5.041   4.889   5.201  0.0618 -0.1136 -0.1976
18407TIP3    H176636   5.017   4.853   5.116  1.6302 -0.0784 -0.6712
18407TIP3    H276637   5.091   4.968   5.181  1.4498 -0.7179  0.7176
18408TIP3   OH276638   3.350   4.635  11.783 -0.5988  0.9607 -0.0747
18408TIP3    H176639   3.345   4.692  11.860 -0.7598 -0.5057  1.0279
18408TIP3    H276640   3.264   4.595  11.777 -0.9286  1.8264 -1.6630
18409TIP3   OH276641   1.192   0.076  11.811 -0.9046  0.0831  0.2678
18409TIP3    H176642   1.237   0.014  11.753  0.0380 -0.1046  1.1709
18409TIP3    H276643   1.101   0.074  11.782 -0.5911 -0.5510 -0.7288
18410TIP3   OH276644   3.439   0.182  13.171  0.3578  0.3289 -0.3313
18410TIP3    H176645   3.482   0.199  13.255 -0.4444 -0.3006  0.2237
18410TIP3    H276646   3.450   0.088  13.158  0.4267  0.4169 -0.9159
18411TIP3   OH276647   0.780   5.358   2.069  0.3855 -0.3490  0.6699
18411TIP3    H176648   0.801   5.272   2.107 -0.5166 -0.4336  1.0170
18411TIP3    H276649   0.686   5.352   2.049  0.8235 -0.2928 -1.6013
18412TIP3   OH276650   1.770   2.518   3.854 -0.1416 -0.2060  0.0600
18412TIP3    H176651   1.708   2.471   3.798 -0.9567  0.5421  0.3131
18412TIP3    H276652   1.834   2.555   3.793  0.6335 -1.7812 -0.1300
18413TIP3   OH276653   6.045   2.866   0.981  0.0337 -0.0719  0.4279
18413TIP3    H176654   5.990   2.788   0.974 -1.7590  1.1227  0.4422
18413TIP3    H276655   6.135   2.833   0.982 -0.6552 -2.0762 -0.1275
18414TIP3   OH276656   5.596   1.745   5.183 -0.9599  0.3964 -0.4455
18414TIP3    H176657   5.516   1.784   5.218 -0.4146  0.8477  0.3326
18414TIP3    H276658   5.566   1.667   5.136 -1.6217 -0.9729  2.0780
18415TIP3   OH276659   3.985   6.378  13.319  0.1274 -0.3363 -0.1504
18415TIP3    H176660   4.038   6.405  13.394 -0.6321  1.5491 -0.2408
18415TIP3    H276661   3.984   6.454  13.261 -0.4349 -1.2853 -1.4306
18416TIP3   OH276662   6.213   2.713   2.898 -0.0338  0.5445 -0.1431
18416TIP3    H176663   6.256   2.672   2.973 -0.3554  1.1280  0.3746
18416TIP3    H276664   6.285   2.746   2.844  0.1854  0.7904  0.2953
18417TIP3   OH276665   5.502   4.725   3.769  0.2764  0.0008 -0.4522
18417TIP3    H176666   5.480   4.793   3.832 -1.6548 -0.7707 -0.2086
18417TIP3    H276667   5.569   4.672   3.812  0.8597  0.9835 -0.1302
18418TIP3   OH276668   0.977   0.381   3.184 -0.6870  0.0549 -0.1693
18418TIP3    H176669   0.952   0.473   3.171 -0.7713  0.0242 -0.2252
18418TIP3    H276670   1.014   0.379   3.272 -0.6563  0.1487 -0.1795
18419TIP3   OH276671   2.374   1.477   4.184 -0.3957 -0.5527  0.1122
18419TIP3    H176672   2.298   1.425   4.211 -0.4126 -0.3317  0.4991
18419TIP3    H276673   2.353   1.566   4.211  0.5448 -0.6989  1.3817
18420TIP3   OH276674   2.752   1.439  15.437 -0.0572 -0.8651  0.0586
18420TIP3    H176675   2.809   1.480  15.502  2.1284 -1.5981 -1.2822
18420TIP3    H276676   2.674   1.415  15.486 -1.6167  4.6885  1.0129
18421TIP3   OH276677   4.079   4.988  15.754  0.1414  0.5090  0.0963
18421TIP3    H176678   4.125   5.036  15.685  0.7749  0.1054  0.2352
18421TIP3    H276679   3.993   4.968  15.716  0.8453 -0.5984 -0.9547
18422TIP3   OH276680   0.175   4.496   0.060 -0.8197 -0.4868 -0.2429
18422TIP3    H176681   0.109   4.454   0.115 -1.3777  0.1916 -0.3914
18422TIP3    H276682   0.258   4.458   0.090 -1.3796 -2.6455 -1.2303
18423TIP3   OH276683   0.506   3.788   3.010  0.1523 -0.0103  0.0309
18423TIP3    H176684   0.573   3.721   3.024 -0.1334 -0.5767 -1.2000
18423TIP3    H276685   0.430   3.739   2.977 -0.1631  0.8824 -0.5979
18424TIP3   OH276686   4.101   6.535   0.790 -0.1748 -0.4261  0.2674
18424TIP3    H176687   4.014   6.512   0.822 -0.7342  0.2043 -0.7390
18424TIP3    H276688   4.158   6.465   0.822 -1.0285 -0.7868  1.0285
18425TIP3   OH276689   2.700   4.348   4.437 -0.3228  0.0461 -0.0247
18425TIP3    H176690   2.632   4.415   4.448 -1.3162 -0.9575  0.1113
18425TIP3    H276691   2.667   4.273   4.486  1.4885 -0.0632  1.1276
18426TIP3   OH276692   3.204   6.350   5.630 -0.3905 -0.2794  0.3859
18426TIP3    H176693   3.181   6.298   5.707 -4.0223 -1.2487 -1.1722
18426TIP3    H276694   3.208   6.440   5.662 -0.0918 -0.8282  1.9962
18427TIP3   OH276695   3.988   4.352  13.722  0.4910 -0.1178  0.5924
18427TIP3    H176696   3.949   4.365  13.636  0.8782  2.0967  0.6782
18427TIP3    H276697   3.992   4.257  13.734 -1.1123 -0.4345 -1.0995
18428TIP3   OH276698   1.845   5.726   5.603  0.2417  0.4401  0.5885
18428TIP3    H176699   1.863   5.716   5.697 -0.3325 -0.3522  0.6195
18428TIP3    H276700   1.860   5.819   5.586  1.6161  0.3503  1.1835
18429TIP3   OH276701   5.292   6.605  11.341 -0.7350 -0.2926  0.0080
18429TIP3    H176702   5.336   6.567  11.264 -1.5033 -1.2007 -0.0100
18429TIP3    H276703   5.232   6.669  11.304  0.7724  1.2077  0.0560
18430TIP3   OH276704   0.345   4.684   2.941  0.1602 -0.5486  0.0638
18430TIP3    H176705   0.405   4.696   3.015  1.2924 -0.1210 -0.8874
18430TIP3    H276706   0.339   4.590   2.929  1.1223 -0.5889 -0.1877
18431TIP3   OH276707   5.496   0.194   5.676 -0.1019  0.2992  0.0130
18431TIP3    H176708   5.475   0.146   5.596  0.9044 -0.8473  0.4162
18431TIP3    H276709   5.474   0.135   5.747 -1.2651  1.4239  0.6335
18432TIP3   OH276710   3.602   3.494  15.790 -0.4059 -0.0151  0.3023
18432TIP3    H176711   3.604   3.584  15.758 -0.1856  0.2447  1.0215
18432TIP3    H276712   3.586   3.441  15.712  1.3881  0.4913 -0.4509
18433TIP3   OH276713   2.992   1.230  12.819  0.1528  0.0941  0.0566
18433TIP3    H176714   2.975   1.314  12.776  1.1321  0.6685  0.7541
18433TIP3    H276715   2.939   1.233  12.899 -0.1494 -0.1469 -0.1312
18434TIP3   OH276716   5.348   2.243  10.905  0.3493  0.0358  0.2057
18434TIP3    H176717   5.345   2.331  10.942 -0.7736 -0.3941  1.1840
18434TIP3    H276718   5.261   2.206  10.922  0.5861 -1.0417 -0.7610
18435TIP3   OH276719   4.008   3.637   5.382  0.0480 -0.1236  0.3136
18435TIP3    H176720   4.002   3.577   5.457 -1.4935 -0.2786  0.0963
18435TIP3    H276721   3.925   3.684   5.383 -0.8882 -1.5379 -2.4599
18436TIP3   OH276722   0.523   4.527  15.552  0.1184 -0.0774 -0.2772
18436TIP3    H176723   0.436   4.556  15.527 -0.2438  1.6049  2.5011
18436TIP3    H276724   0.537   4.447  15.502 -3.9645 -1.7264  0.8140
18437TIP3   OH276725   6.100   0.051  13.196  0.2519 -0.2975  0.6468
18437TIP3    H176726   6.149   0.058  13.279  1.3913 -0.6363  0.0328
18437TIP3    H276727   6.141  -0.023  13.151 -1.7617 -1.5078  0.6794
18438TIP3   OH276728   1.171   4.431  15.869  0.3102  0.3168  0.2132
18438TIP3    H176729   1.239   4.483  15.911  0.4084  0.9435 -0.6846
18438TIP3    H276730   1.203   4.341  15.875 -0.7841  0.0284  3.5386
18439TIP3   OH276731   6.664   3.457   5.239  0.0488  0.2117  0.1577
18439TIP3    H176732   6.662   3.525   5.172 -1.7287 -0.5272 -0.5946
18439TIP3    H276733   6.630   3.499   5.318  1.7735  0.9746  0.5351
18440TIP3   OH276734   2.178   2.533   1.792 -0.0281 -0.0815  0.4219
18440TIP3    H176735   2.122   2.566   1.722  1.3596 -1.2178 -1.3340
18440TIP3    H276736   2.213   2.612   1.834 -1.2443  0.6243  0.1578
18441TIP3   OH276737   1.308   2.578   2.884  0.0892 -0.5758 -0.2855
18441TIP3    H176738   1.318   2.671   2.906  0.5787 -1.2029  2.4330
18441TIP3    H276739   1.252   2.543   2.952  0.6458 -2.4824 -0.7556
18442TIP3   OH276740   0.374   1.008   3.979  0.2520  0.1424  0.4202
18442TIP3    H176741   0.296   0.994   3.926 -0.8848 -0.9040  2.2803
18442TIP3    H276742   0.428   1.067   3.927 -1.1038 -0.2851 -1.5689
18443TIP3   OH276743   2.513   2.085  11.670  1.0009  0.0132  0.3308
18443TIP3    H176744   2.514   2.173  11.635 -0.4570 -0.3263 -0.6335
18443TIP3    H276745   2.424   2.073  11.703  0.9078 -1.4082 -0.3799
18444TIP3   OH276746   5.683   6.632   0.598 -0.5869  0.6363  0.3081
18444TIP3    H176747   5.636   6.682   0.665 -1.4586  1.2483 -0.7183
18444TIP3    H276748   5.774   6.659   0.607 -0.8661  1.5313  0.5444
18445TIP3   OH276749   1.911   1.407   4.049  0.0277  0.0392 -0.3679
18445TIP3    H176750   2.003   1.420   4.027 -0.0420  0.7321 -0.2924
18445TIP3    H276751   1.863   1.453   3.979 -0.3347 -2.1492 -1.6379
18446TIP3   OH276752   4.284   5.443   3.258 -0.0936 -0.0237 -0.2125
18446TIP3    H176753   4.262   5.357   3.295  0.5701 -0.4152 -0.6892
18446TIP3    H276754   4.365   5.469   3.302 -0.1542  0.2399 -0.2546
18447TIP3   OH276755   0.289   6.388   2.608 -0.0590 -0.3510 -0.2594
18447TIP3    H176756   0.223   6.437   2.559 -1.3190 -1.4379  0.3024
18447TIP3    H276757   0.306   6.442   2.685 -1.0653 -0.5451  0.1115
18448TIP3   OH276758   2.998   2.760   6.278 -0.4371 -0.1338 -0.3667
18448TIP3    H176759   3.089   2.767   6.309 -1.0728 -1.1000  1.9665
18448TIP3    H276760   2.998   2.684   6.220  0.3248  0.1556 -0.7589
18449TIP3   OH276761   1.534   4.399  15.713 -0.5833 -0.3495  0.3082
18449TIP3    H176762   1.481   4.459  15.660  1.4483  0.1407 -1.3360
18449TIP3    H276763   1.587   4.456  15.769 -0.9003 -0.7608  1.0337
18450TIP3   OH276764   2.379   3.885  15.161  0.0584  0.4998  0.1203
18450TIP3    H176765   2.433   3.883  15.240  0.4465 -0.4475 -0.1594
18450TIP3    H276766   2.393   3.973  15.126 -0.0833  0.9184  1.0696
18451TIP3   OH276767   1.094   0.434  15.275  0.3420  0.4482  0.0212
18451TIP3    H176768   1.019   0.396  15.230 -0.6009  0.4752  1.5182
18451TIP3    H276769   1.114   0.514  15.225 -2.2750  1.8627  1.0307
18452TIP3   OH276770   6.406   5.577   3.701  0.0339  0.1659 -0.0092
18452TIP3    H176771   6.345   5.637   3.659 -0.1158  0.0049 -0.0244
18452TIP3    H276772   6.486   5.628   3.714 -0.1876  0.4523  0.2335
18453TIP3   OH276773   0.963   5.570  16.020  0.3693 -0.1495  1.2533
18453TIP3    H176774   0.889   5.614  15.978 -0.3213 -1.7338  0.6909
18453TIP3    H276775   0.923   5.505  16.078  1.3388  0.6777  2.9243
18454TIP3   OH276776   6.406   4.026   1.062  0.3019  0.0278  0.5121
18454TIP3    H176777   6.404   4.118   1.086 -1.3954  0.3860 -0.8061
18454TIP3    H276778   6.348   4.020   0.986 -0.7815 -2.3809  1.4565
18455TIP3   OH276779   2.004   1.352  11.602 -0.1693 -0.4375 -0.1690
18455TIP3    H176780   1.991   1.339  11.508  0.4336 -0.5950 -0.2333
18455TIP3    H276781   1.954   1.281  11.643  0.0271 -0.7068 -0.3929
18456TIP3   OH276782   0.546   4.492  14.775 -0.6781  0.1109  0.0888
18456TIP3    H176783   0.527   4.424  14.711  1.4291  0.8302 -1.4187
18456TIP3    H276784   0.617   4.456  14.828 -1.5005  0.0473  1.1765
18457TIP3   OH276785   0.172   2.232   5.498 -0.1479  0.3560  0.9381
18457TIP3    H176786   0.231   2.233   5.423 -0.3667  0.3892  0.7642
18457TIP3    H276787   0.156   2.324   5.517  0.6437  0.3611  1.6152
18458TIP3   OH276788   6.392   4.945   4.937  0.2928  0.0655 -0.1985
18458TIP3    H176789   6.360   5.035   4.943 -0.5459 -0.1667 -0.9847
18458TIP3    H276790   6.328   4.901   4.881  1.1749 -0.8042 -0.5417
18459TIP3   OH276791   0.116   2.406  13.104  0.4136 -0.4191  0.1030
18459TIP3    H176792   0.143   2.332  13.158 -0.4721 -2.5266 -2.1387
18459TIP3    H276793   0.194   2.461  13.097  0.8641 -0.6441  2.4888
18460TIP3   OH276794   2.632   6.626  15.846 -0.0699  0.2108 -0.6488
18460TIP3    H176795   2.666   6.590  15.764  0.1173 -0.9889 -0.0749
18460TIP3    H276796   2.546   6.661  15.824  0.2283  0.4363 -1.4693
18461TIP3   OH276797   4.816   3.205   4.238  0.2944 -0.4303  0.0835
18461TIP3    H176798   4.750   3.197   4.169  0.5588 -1.3368 -0.0794
18461TIP3    H276799   4.863   3.122   4.235  1.9207  0.4799 -0.2900
18462TIP3   OH276800   2.699   5.710  11.366  0.1017  0.1588 -0.4945
18462TIP3    H176801   2.758   5.736  11.295  1.2146  0.1902  0.4212
18462TIP3    H276802   2.728   5.622  11.390  0.0333  0.3248  0.2194
18463TIP3   OH276803   2.828   2.274  11.433 -0.4686 -0.3480  0.0248
18463TIP3    H176804   2.838   2.365  11.404  0.8140 -0.0736  1.2271
18463TIP3    H276805   2.752   2.276  11.491  0.0669  0.1571  0.7280
18464TIP3   OH276806   2.435   0.122   4.138  0.1382  0.1088  0.2371
18464TIP3    H176807   2.435   0.038   4.184 -0.7125 -1.1815 -1.9606
18464TIP3    H276808   2.429   0.188   4.208  0.3835 -1.6558  2.0010
18465TIP3   OH276809   0.714   5.073  16.528 -0.1185 -0.3343 -0.2591
18465TIP3    H176810   0.690   5.006  16.592 -1.6367 -0.2343 -0.6804
18465TIP3    H276811   0.630   5.108  16.498  0.5861  0.0089 -1.9040
18466TIP3   OH276812   4.862   5.733  15.386  0.0683 -0.0435  0.0204
18466TIP3    H176813   4.882   5.760  15.475  0.6243 -0.2790 -0.0285
18466TIP3    H276814   4.817   5.808  15.347  2.6136  1.2930 -0.4855
18467TIP3   OH276815   0.418   5.105   0.330  0.3754 -0.5200  0.5630
18467TIP3    H176816   0.327   5.074   0.334  0.6237 -1.4537 -0.4915
18467TIP3    H276817   0.420   5.161   0.253  0.8602 -1.1525  0.1001
18468TIP3   OH276818   1.230   5.370  10.741  0.2496  0.3582  0.1418
18468TIP3    H176819   1.256   5.453  10.700  0.2763 -0.7055 -2.1327
18468TIP3    H276820   1.295   5.356  10.810 -0.8465  3.1119  1.9455
18469TIP3   OH276821   3.877   5.911  14.079  0.1245  0.3821 -0.4761
18469TIP3    H176822   3.958   5.903  14.129 -0.6475  1.1743  0.9445
18469TIP3    H276823   3.901   5.965  14.003  0.7189  1.4018  0.4186
18470TIP3   OH276824   2.422   1.231   4.586 -0.7485 -0.2585  0.2253
18470TIP3    H176825   2.340   1.196   4.553 -0.0173  0.0411 -2.0908
18470TIP3    H276826   2.403   1.258   4.676 -2.3750 -2.8617  0.7435
18471TIP3   OH276827   4.216   4.858   6.023  0.2491  0.0049  0.2959
18471TIP3    H176828   4.217   4.900   5.937  1.3621 -1.3887 -0.3995
18471TIP3    H276829   4.269   4.780   6.013 -0.5789 -0.8269  1.9485
18472TIP3   OH276830   2.444   5.077  15.758  0.5239 -0.4154 -0.3938
18472TIP3    H176831   2.413   5.069  15.848  0.0016  1.7757 -0.3169
18472TIP3    H276832   2.411   5.162  15.729  0.0138 -1.3850 -2.9371
18473TIP3   OH276833   0.830   3.181   5.526  0.4515 -0.4285 -0.1571
18473TIP3    H176834   0.801   3.247   5.589  1.5853  0.0017 -0.0718
18473TIP3    H276835   0.902   3.135   5.570  0.2064 -1.1944 -0.5281
18474TIP3   OH276836   1.829   5.783   3.231 -0.2787 -0.0227  0.1646
18474TIP3    H176837   1.884   5.796   3.154 -0.9761  1.7998 -0.0618
18474TIP3    H276838   1.823   5.688   3.240  0.9216 -0.2619 -1.2141
18475TIP3   OH276839   1.130   5.848   2.568  0.3138  0.1059 -0.6848
18475TIP3    H176840   1.110   5.784   2.500  1.0076  1.3960 -2.1604
18475TIP3    H276841   1.057   5.910   2.563  0.2510  0.0872 -0.0663
18476TIP3   OH276842   4.104   6.549  14.928 -0.2747 -0.3813  0.2590
18476TIP3    H176843   4.065   6.591  15.005 -0.9203  1.6700 -1.0940
18476TIP3    H276844   4.172   6.610  14.900  1.2963 -2.0503  0.2865
18477TIP3   OH276845   3.200   5.839  13.790  0.1068  0.5114 -0.3831
18477TIP3    H176846   3.210   5.913  13.850  0.3171  0.5914 -0.5122
18477TIP3    H276847   3.106   5.832  13.775 -0.0280 -0.0733  0.6527
18478TIP3   OH276848   5.772   6.353  13.681 -0.1422  0.3175  0.5291
18478TIP3    H176849   5.865   6.366  13.659  0.4105 -1.7426  1.3595
18478TIP3    H276850   5.750   6.427  13.737  0.1591  2.3425 -1.9065
18479TIP3   OH276851   5.129   3.642   4.829 -0.4150  0.1167  0.2903
18479TIP3    H176852   5.039   3.674   4.824 -0.7039 -0.7653 -0.3038
18479TIP3    H276853   5.165   3.657   4.741 -0.2083 -0.1754  0.3215
18480TIP3   OH276854   0.143   1.016   6.205 -0.1098 -0.6154  0.3632
18480TIP3    H176855   0.077   1.080   6.231 -0.5003 -1.3064  1.1310
18480TIP3    H276856   0.128   1.001   6.112  1.3758  2.0005 -0.3882
18481TIP3   OH276857   5.834   5.178   3.472  0.0386  0.3018 -0.0055
18481TIP3    H176858   5.757   5.123   3.485 -1.9465  2.5068 -1.5445
18481TIP3    H276859   5.889   5.129   3.411 -2.1880  0.3920 -2.2074
18482TIP3   OH276860   2.765   5.657   5.437 -0.0133 -0.8325 -0.0985
18482TIP3    H176861   2.760   5.613   5.522  0.5976  0.2331  0.5117
18482TIP3    H276862   2.852   5.696   5.435 -1.6800  3.5273  1.0584
18483TIP3   OH276863   3.993   2.292   4.024 -0.3620 -0.2986 -0.1247
18483TIP3    H176864   3.993   2.381   3.989  0.5643  0.0488  0.7147
18483TIP3    H276865   4.080   2.280   4.061 -0.4044 -1.6272 -0.3729
18484TIP3   OH276866   2.734   5.356  14.551  0.2241 -0.1011  0.6826
18484TIP3    H176867   2.750   5.296  14.478  1.4658 -1.5597  2.0703
18484TIP3    H276868   2.777   5.437  14.526  2.7706 -1.3397  0.7574
18485TIP3   OH276869   6.001   4.173   5.270  0.8748  0.3068  0.1558
18485TIP3    H176870   5.924   4.134   5.228  2.5747 -2.5041 -0.6299
18485TIP3    H276871   5.984   4.164   5.364  0.4183 -0.6598 -0.0057
18486TIP3   OH276872   3.320   1.239   6.847 -0.2534 -0.1384 -0.0998
18486TIP3    H176873   3.410   1.218   6.823 -0.8509  0.9723 -3.8769
18486TIP3    H276874   3.319   1.334   6.857 -0.9372 -0.1951  0.4900
18487TIP3   OH276875   4.400   3.105  15.860 -0.5683  0.0536  0.1476
18487TIP3    H176876   4.474   3.060  15.902  0.0312  1.9982  1.3432
18487TIP3    H276877   4.421   3.102  15.767 -0.0119 -1.1684  0.2909
18488TIP3   OH276878   4.051   5.982  15.933 -0.6725  0.2241  0.1639
18488TIP3    H176879   4.016   5.920  15.997 -1.0668  1.6974  1.4425
18488TIP3    H276880   4.056   5.933  15.851  1.5876 -2.3297  1.6671
18489TIP3   OH276881   1.968   4.480  14.147 -0.3705 -0.0381 -0.2169
18489TIP3    H176882   1.972   4.555  14.207 -1.9281  0.8098 -1.1166
18489TIP3    H276883   2.052   4.481  14.101  0.3678  0.0087  1.0587
18490TIP3   OH276884   4.073   4.311  11.340 -0.4713  0.3124 -0.2726
18490TIP3    H176885   4.065   4.335  11.433 -2.9374 -0.8368 -0.1133
18490TIP3    H276886   4.014   4.237  11.329  0.7566 -0.4264 -2.5208
18491TIP3   OH276887   4.063   1.266  12.306 -0.0978 -0.5375 -0.3878
18491TIP3    H176888   3.971   1.242  12.311 -1.2093  3.2943  0.9231
18491TIP3    H276889   4.099   1.243  12.392  0.3219 -2.2686 -0.9857
18492TIP3   OH276890   3.392   1.662   0.315  0.7943  0.2578  0.3231
18492TIP3    H176891   3.483   1.686   0.335  0.4727  0.3044  1.8332
18492TIP3    H276892   3.340   1.713   0.376 -0.2312 -0.1123 -0.2265
18493TIP3   OH276893   5.333   4.879   3.572  0.1442  0.4366  0.2998
18493TIP3    H176894   5.268   4.830   3.522 -0.0379  0.0920  0.8691
18493TIP3    H276895   5.375   4.814   3.628 -0.2175  0.9412  1.1811
18494TIP3   OH276896   2.264   5.654   5.557 -0.4802 -0.1546  0.1428
18494TIP3    H176897   2.357   5.653   5.535 -0.4244  0.6728  0.3221
18494TIP3    H276898   2.250   5.739   5.597 -1.1755 -0.5420  0.7419
18495TIP3   OH276899   6.480   5.359   3.857 -0.4125 -0.6063  0.0088
18495TIP3    H176900   6.450   5.428   3.798  0.9898 -0.8006 -0.9870
18495TIP3    H276901   6.471   5.397   3.944  0.0754  0.7653 -0.4986
18496TIP3   OH276902   3.277   4.330   1.151  0.0664  0.7179  0.0094
18496TIP3    H176903   3.312   4.245   1.126  0.2112  1.3727 -2.2109
18496TIP3    H276904   3.339   4.364   1.216 -0.6526 -1.3228  1.8860
18497TIP3   OH276905   6.694   5.275  16.528 -0.5890  0.0623 -0.2277
18497TIP3    H176906   6.745   5.354  16.542 -0.3472 -0.1514  0.1340
18497TIP3    H276907   6.610   5.305  16.493  0.3853  0.3014 -2.4636
18498TIP3   OH276908   0.071   5.901   4.266 -0.1219 -0.2990  0.2115
18498TIP3    H176909   0.055   5.818   4.311 -0.7426  0.0077  0.5729
18498TIP3    H276910   0.159   5.892   4.230 -0.0744 -1.0085  0.4788
18499TIP3   OH276911   4.802   1.711   2.410  0.1645  0.3364  0.0525
18499TIP3    H176912   4.871   1.688   2.472 -0.6861 -1.7883  0.2855
18499TIP3    H276913   4.826   1.666   2.329 -0.1302  0.8728 -0.3391
18500TIP3   OH276914   5.304   1.443  15.120  0.3012 -0.4780 -0.2245
18500TIP3    H176915   5.263   1.440  15.034 -0.3520 -0.9818  0.0953
18500TIP3    H276916   5.261   1.517  15.165  1.0290  0.1331 -0.5142
18501TIP3   OH276917   1.893   6.691   3.927  0.8355  0.5110  0.4631
18501TIP3    H176918   1.826   6.627   3.903  1.5592  0.4779 -1.6837
18501TIP3    H276919   1.897   6.750   3.852  2.4313  1.1724  1.0387
18502TIP3   OH276920   1.070   1.220  16.859  0.3188 -0.1859 -0.3614
18502TIP3    H176921   1.063   1.312  16.835 -2.7965 -0.3103 -0.2944
18502TIP3    H276922   0.980   1.190  16.868  1.2136 -3.3670 -0.7315
18503TIP3   OH276923   4.857   3.576   4.841 -0.0532  0.0120 -0.5434
18503TIP3    H176924   4.860   3.513   4.913  0.6273 -3.0868 -3.0679
18503TIP3    H276925   4.770   3.615   4.848 -0.5910 -1.3217  1.0604
18504TIP3   OH276926   3.926   1.747  14.298 -0.0917 -0.0018  0.3487
18504TIP3    H176927   3.966   1.774  14.215  0.7078 -0.2019  0.6626
18504TIP3    H276928   3.877   1.824  14.327  1.2193  0.7353  0.6544
18505TIP3   OH276929   0.428   5.972  10.542 -0.4318  0.4891 -0.1883
18505TIP3    H176930   0.441   5.926  10.460  0.6484 -0.7417  0.6364
18505TIP3    H276931   0.373   5.913  10.594 -0.6026  0.9859  0.2045
18506TIP3   OH276932   0.632   1.003   4.696  0.2439  0.2218 -0.7049
18506TIP3    H176933   0.627   0.993   4.791 -1.0285  0.3595 -0.7462
18506TIP3    H276934   0.683   0.928   4.667 -0.3901 -0.4809 -0.0273
18507TIP3   OH276935   3.664   4.438  16.711  0.0793  0.0213  0.1452
18507TIP3    H176936   3.737   4.495  16.734 -0.2229  1.0314 -1.2510
18507TIP3    H276937   3.586   4.487  16.737 -0.1747  0.1560 -0.8233
18508TIP3   OH276938   2.887   4.111   2.989 -0.1096  0.2190 -0.0315
18508TIP3    H176939   2.953   4.150   3.047  1.7228 -1.7892 -0.6031
18508TIP3    H276940   2.926   4.116   2.902 -2.0438  1.5623 -0.8710
18509TIP3   OH276941   5.996   4.289  14.807 -0.7048 -0.5122  0.1500
18509TIP3    H176942   5.942   4.339  14.745  0.1728 -0.5467 -0.6618
18509TIP3    H276943   6.054   4.237  14.751 -1.8654 -2.7937  0.9164
18510TIP3   OH276944   1.382   5.496   1.994  0.1230 -0.4068  0.0026
18510TIP3    H176945   1.375   5.590   2.007  2.3253 -0.1765  0.0250
18510TIP3    H276946   1.370   5.483   1.899 -1.9806 -0.3750  0.2207
18511TIP3   OH276947   5.379   4.768  11.576 -0.7756 -0.0091 -0.2155
18511TIP3    H176948   5.306   4.707  11.576 -0.0444 -0.9224 -0.5214
18511TIP3    H276949   5.379   4.807  11.488 -0.3711 -0.6937 -0.5349
18512TIP3   OH276950   5.079   2.370  14.324 -0.0464 -0.2517 -0.3312
18512TIP3    H176951   5.150   2.423  14.288  0.2232 -0.8242 -0.6410
18512TIP3    H276952   5.062   2.409  14.410  0.2446  0.2485 -0.4950
18513TIP3   OH276953   6.601   2.660   6.111 -0.0830  0.0261  0.1665
18513TIP3    H176954   6.520   2.611   6.124  0.9060 -1.2257  2.0791
18513TIP3    H276955   6.639   2.623   6.032 -1.4646  0.8042 -0.8939
18514TIP3   OH276956   2.420   5.098   3.467  0.3251 -0.1598 -0.1430
18514TIP3    H176957   2.325   5.092   3.474  0.2794 -1.3811 -1.3890
18514TIP3    H276958   2.453   5.050   3.543 -0.0490 -0.1909  0.0042
18515TIP3   OH276959   1.719   1.311  15.210  0.5281 -0.7524 -0.3413
18515TIP3    H176960   1.803   1.328  15.253  0.2436 -0.2852  0.0436
18515TIP3    H276961   1.729   1.224  15.171  0.0863 -2.2267  2.5452
18516TIP3   OH276962   4.808   3.640  14.135 -0.4710 -0.0842 -0.0560
18516TIP3    H176963   4.792   3.546  14.125 -1.4955  0.0966 -0.2208
18516TIP3    H276964   4.790   3.676  14.048 -2.1149  0.5223  0.5028
18517TIP3   OH276965   0.708   5.439   5.119  0.4199 -0.5297 -0.3788
18517TIP3    H176966   0.720   5.434   5.024 -0.8807  0.6352 -0.6273
18517TIP3    H276967   0.616   5.461   5.131  0.9004  0.8693  1.0976
18518TIP3   OH276968   1.095   4.593   2.441  0.2846 -0.0635 -0.2556
18518TIP3    H176969   1.125   4.548   2.362 -0.8408  1.3602 -1.5563
18518TIP3    H276970   1.145   4.675   2.442 -1.6133  1.1815 -1.0615
18519TIP3   OH276971   3.164   6.120  12.575  0.1957  0.6610 -0.1709
18519TIP3    H176972   3.078   6.078  12.582 -0.1823  1.0679 -1.8618
18519TIP3    H276973   3.176   6.165  12.659 -0.2920 -1.0785  0.8894
18520TIP3   OH276974   6.009   1.827   5.300  0.0387  0.2538  0.1174
18520TIP3    H176975   6.090   1.799   5.257  0.9494  1.7786  0.7315
18520TIP3    H276976   6.039   1.868   5.381 -1.4008  0.3989  0.5961
18521TIP3   OH276977   2.887   1.516  15.678  0.8951  0.0783  0.2432
18521TIP3    H176978   2.916   1.590  15.732 -0.7450 -0.0277  1.3378
18521TIP3    H276979   2.959   1.453  15.683  1.0364  0.3107  1.8794
18522TIP3   OH276980   4.215   4.034   5.281 -0.3613  0.4033  0.5523
18522TIP3    H176981   4.203   4.096   5.209  1.4312  1.8632  1.4076
18522TIP3    H276982   4.129   4.029   5.323 -0.8687  1.2949 -0.3389
18523TIP3   OH276983   0.263   5.071   1.548 -0.2933  0.1978  0.5425
18523TIP3    H176984   0.190   5.128   1.525 -0.0258 -0.2326 -1.6368
18523TIP3    H276985   0.332   5.130   1.577 -1.3618  0.6314  2.3244
18524TIP3   OH276986   2.052   5.861   0.788 -0.2996 -0.4063 -0.3317
18524TIP3    H176987   1.969   5.830   0.753 -0.5856  0.3178 -0.3146
18524TIP3    H276988   2.031   5.944   0.830  0.3999 -0.3067 -0.1641
18525TIP3   OH276989   0.008   1.925   0.251 -0.4656  0.1985 -0.1784
18525TIP3    H176990   0.096   1.959   0.235  0.2413 -1.5665 -0.2401
18525TIP3    H276991   0.022   1.839   0.289 -2.1831  0.0873  0.2870
18526TIP3   OH276992   0.032   6.089  12.932  0.5387 -0.5469 -0.3192
18526TIP3    H176993   0.007   6.118  13.020 -0.5887 -0.3475 -0.6848
18526TIP3    H276994   0.090   6.157  12.900 -0.2220  0.1324 -0.2824
18527TIP3   OH276995   3.631   1.566   1.646  0.2291 -0.2422 -0.1169
18527TIP3    H176996   3.628   1.650   1.692 -0.2449  0.6513 -1.7163
18527TIP3    H276997   3.551   1.522   1.674  0.1944  0.0689  0.2983
18528TIP3   OH276998   1.152   4.245   4.557 -0.2057 -0.0825 -0.5377
18528TIP3    H176999   1.068   4.235   4.602  1.2463 -0.8932  2.2232
18528TIP3    H277000   1.145   4.189   4.480 -2.1734 -0.1042 -0.3914
18529TIP3   OH277001   1.917   5.333   1.848 -0.3491 -0.2608 -0.3812
18529TIP3    H177002   1.937   5.336   1.941 -0.9953 -0.9570 -0.2139
18529TIP3    H277003   1.826   5.362   1.841 -0.5422 -0.9179 -0.7104
18530TIP3   OH277004   3.175   6.281  17.251  0.0537  0.4381 -0.1472
18530TIP3    H177005   3.245   6.270  17.315  0.5424  1.5358 -0.4716
18530TIP3    H277006   3.178   6.200  17.199  0.3709  0.0191  0.5073
18531TIP3   OH277007   2.127   3.690  14.545  0.4264  0.2466  0.4251
18531TIP3    H177008   2.184   3.745  14.599  1.2064  0.2318 -0.3628
18531TIP3    H277009   2.123   3.735  14.461  2.1370 -1.5203 -0.6716
18532TIP3   OH277010   6.280   2.140  12.802 -0.8937 -0.2458  0.1879
18532TIP3    H177011   6.325   2.140  12.717 -0.8356  0.3390  0.2175
18532TIP3    H277012   6.310   2.220  12.845 -1.0047 -0.4907  0.7204
18533TIP3   OH277013   1.667   5.063   2.430 -0.2656 -0.2299 -0.0569
18533TIP3    H177014   1.698   5.015   2.507  0.8385  1.9646  0.9653
18533TIP3    H277015   1.578   5.089   2.453 -0.7204 -1.3909 -0.4482
18534TIP3   OH277016   4.238   0.906  12.154  0.2793  0.6568  0.4800
18534TIP3    H177017   4.284   0.837  12.203  0.1144  0.5398  0.4699
18534TIP3    H277018   4.286   0.913  12.072 -0.7362 -0.6819 -0.2719
18535TIP3   OH277019   4.903   0.449   1.406 -0.4677  0.6058  0.0596
18535TIP3    H177020   4.928   0.540   1.394 -0.0421  0.7903  1.9865
18535TIP3    H277021   4.978   0.408   1.450 -0.9511 -0.4778 -0.0789
18536TIP3   OH277022   5.892   1.644   0.795  0.0767 -0.0504 -0.0305
18536TIP3    H177023   5.969   1.698   0.781  2.2354 -3.3825 -2.5352
18536TIP3    H277024   5.922   1.574   0.854 -1.9627  0.1603  1.3709
18537TIP3   OH277025   0.303   2.212   1.793  0.0875  0.0128  0.3448
18537TIP3    H177026   0.239   2.255   1.735  1.8670 -1.7574 -3.1963
18537TIP3    H277027   0.388   2.238   1.759  1.2288 -2.5603  0.9968
18538TIP3   OH277028   1.940   0.711  11.007 -0.3147  0.3774  0.2452
18538TIP3    H177029   1.848   0.685  11.010 -0.3818  0.4373 -0.7491
18538TIP3    H277030   1.939   0.804  11.030 -0.2135 -0.1312  2.5658
18539TIP3   OH277031   1.811   0.897  13.162  0.1681  0.0656  0.0928
18539TIP3    H177032   1.852   0.810  13.163  2.8014  1.1773 -1.2068
18539TIP3    H277033   1.796   0.918  13.254  1.4664 -0.9222  0.5559
18540TIP3   OH277034   5.487   6.456  14.895  0.0524  0.5166 -0.3308
18540TIP3    H177035   5.580   6.441  14.912  0.6699  2.4383 -1.7208
18540TIP3    H277036   5.457   6.507  14.969 -0.2949 -1.2568  0.8144
18541TIP3   OH277037   6.293   3.976   3.285 -0.1479 -0.6845  0.0583
18541TIP3    H177038   6.367   4.008   3.233  1.8272 -2.4081  1.6359
18541TIP3    H277039   6.292   4.033   3.362 -0.4127 -0.7168  0.0784
18542TIP3   OH277040   2.955   2.866  13.453  0.7724 -0.4807 -0.2178
18542TIP3    H177041   3.015   2.918  13.400  0.2650  0.9209  0.5303
18542TIP3    H277042   2.998   2.781  13.463  1.8210 -0.0695 -1.1116
18543TIP3   OH277043   5.163   4.497  15.803  0.3861  0.7115 -0.3473
18543TIP3    H177044   5.080   4.540  15.782  0.0962  0.0547 -0.5703
18543TIP3    H277045   5.138   4.416  15.846  0.8516 -0.3362 -1.9558
18544TIP3   OH277046   2.002   1.005   3.061 -0.0529 -0.5504  0.0830
18544TIP3    H177047   2.086   0.959   3.065  0.0994 -0.1822  1.8771
18544TIP3    H277048   1.948   0.963   3.127 -1.1165 -0.4125 -0.6748
18545TIP3   OH277049   3.794   6.233   6.444 -0.4022 -0.3301 -0.1800
18545TIP3    H177050   3.841   6.302   6.490  0.6415 -2.6913  2.6017
18545TIP3    H277051   3.861   6.189   6.391 -0.1897 -1.4332  0.9511
18546TIP3   OH277052   4.955   3.474   4.385  0.3107  0.6642 -0.3693
18546TIP3    H177053   4.954   3.444   4.476  0.3007  1.0845 -0.2284
18546TIP3    H277054   4.862   3.482   4.362  0.3090 -0.0094 -0.6085
18547TIP3   OH277055   2.397   0.747  13.685 -0.3246 -0.3138 -0.0683
18547TIP3    H177056   2.334   0.709  13.624  0.3386  0.4498 -1.2783
18547TIP3    H277057   2.450   0.805  13.631  1.8557 -1.4126  0.7675
18548TIP3   OH277058   2.545   2.951   4.293  0.4069 -0.1347 -0.4625
18548TIP3    H177059   2.517   2.860   4.300  2.2110 -0.7878 -1.0254
18548TIP3    H277060   2.494   2.986   4.220 -1.4185 -0.1995  0.7215
18549TIP3   OH277061   1.582   4.275  12.496  0.2652  0.1133  0.0232
18549TIP3    H177062   1.560   4.185  12.469  0.8089  0.0962 -0.3659
18549TIP3    H277063   1.591   4.323  12.414  1.8964  0.0756  0.1454
18550TIP3   OH277064   3.553   6.094  16.061 -0.0689 -0.7998  0.4636
18550TIP3    H177065   3.629   6.152  16.054 -0.0467 -0.9729 -0.9527
18550TIP3    H277066   3.587   6.015  16.103 -0.2995  0.4875  3.3466
18551TIP3   OH277067   4.279   0.595   6.516  0.1127 -0.0735 -0.1641
18551TIP3    H177068   4.186   0.580   6.535 -0.3949  0.3439 -2.1570
18551TIP3    H277069   4.289   0.572   6.424  1.9824  0.0259 -0.0205
18552TIP3   OH277070   6.112   3.301  10.850 -0.2336  0.1134  0.0995
18552TIP3    H177071   6.181   3.365  10.865 -1.1123  1.0740  0.1278
18552TIP3    H277072   6.158   3.223  10.817  0.8647  0.6716  0.2769
18553TIP3   OH277073   4.305   2.617  12.691  0.4918  0.0128 -0.2967
18553TIP3    H177074   4.292   2.574  12.775  1.7817 -2.6680 -1.3504
18553TIP3    H277075   4.238   2.580  12.634 -0.4815  1.9224 -0.4746
18554TIP3   OH277076   2.010   3.403   3.476  0.2374 -0.4933 -0.2733
18554TIP3    H177077   1.962   3.434   3.399 -0.8123  1.7930  1.2042
18554TIP3    H277078   2.102   3.413   3.451 -0.0665  1.8689 -0.7026
18555TIP3   OH277079   1.098   2.133   3.870 -0.6853 -0.2271  0.7481
18555TIP3    H177080   1.087   2.058   3.812 -1.4708  0.0411  0.5463
18555TIP3    H277081   1.064   2.103   3.955  0.6328 -0.6821  1.1420
18556TIP3   OH277082   3.316   4.276   2.868  0.2268 -0.1162  0.5504
18556TIP3    H177083   3.222   4.260   2.864  0.2118 -0.4786  2.0837
18556TIP3    H277084   3.343   4.282   2.776 -1.1237 -0.9320  0.0798
18557TIP3   OH277085   2.074   4.710   0.576 -0.0282  0.9676 -0.0616
18557TIP3    H177086   1.997   4.654   0.569  0.7222 -0.1018  0.0395
18557TIP3    H277087   2.087   4.745   0.487  0.8195 -0.8418 -0.6910
18558TIP3   OH277088   2.181   2.706   6.513  0.1223  0.4799  0.5463
18558TIP3    H177089   2.132   2.641   6.462 -2.2147  1.0896  1.8608
18558TIP3    H277090   2.248   2.654   6.558 -2.1777 -1.2801  2.1942
18559TIP3   OH277091   5.178   4.358  11.647 -0.2105 -0.4903  0.7447
18559TIP3    H177092   5.114   4.394  11.585 -1.0778  1.6070  2.7369
18559TIP3    H277093   5.257   4.411  11.633  0.1526 -1.1417  0.2935
18560TIP3   OH277094   2.671   1.511   6.427  0.4772 -0.1519  0.3053
18560TIP3    H177095   2.631   1.597   6.412 -1.0950 -1.0587 -1.0060
18560TIP3    H277096   2.710   1.518   6.514 -0.0564  1.7185  0.4484
18561TIP3   OH277097   3.888   3.742  11.570 -0.3704  0.0677 -0.3013
18561TIP3    H177098   3.932   3.704  11.646 -2.3915  1.7231  1.8148
18561TIP3    H277099   3.955   3.796  11.528  0.4471  0.1867  1.0806
18562TIP3   OH277100   6.723   0.143  15.801  0.3790  0.2419 -0.1769
18562TIP3    H177101   6.744   0.132  15.709  0.0012 -0.7738 -0.1577
18562TIP3    H277102   6.660   0.215  15.803  0.9715  0.7821 -0.6228
18563TIP3   OH277103   3.637   4.689   4.185  0.3043  0.0688  0.1282
18563TIP3    H177104   3.608   4.744   4.113  0.2691 -0.1882 -0.0552
18563TIP3    H277105   3.562   4.684   4.244  0.9375  1.8856  1.1826
18564TIP3   OH277106   3.944   1.437   1.518  0.1698 -0.2885  0.5205
18564TIP3    H177107   3.857   1.405   1.494  0.0016 -0.4250  1.2847
18564TIP3    H277108   3.994   1.357   1.536 -0.3477 -0.1519  2.7729
18565TIP3   OH277109   0.618   0.065  16.281  0.5216 -0.2477 -0.0742
18565TIP3    H177110   0.654   0.082  16.368 -0.8933 -0.1994  0.5321
18565TIP3    H277111   0.603  -0.030  16.280 -1.7966  0.0344  0.7423
18566TIP3   OH277112   4.499   5.739   5.481  0.5495  0.7872  0.4335
18566TIP3    H177113   4.491   5.793   5.560  1.6120  2.8447 -0.7481
18566TIP3    H277114   4.587   5.760   5.448 -0.6016  1.5917 -2.3541
18567TIP3   OH277115   2.422   1.507  16.871 -0.5096 -0.3480 -0.0503
18567TIP3    H177116   2.471   1.492  16.952  1.0716 -0.5252 -0.9979
18567TIP3    H277117   2.331   1.488  16.894 -0.0791 -0.4972  1.6485
18568TIP3   OH277118   0.799   5.719  15.714 -0.0842 -0.4745  0.2152
18568TIP3    H177119   0.878   5.725  15.660  0.8614 -0.2840  1.5604
18568TIP3    H277120   0.731   5.689  15.654  1.1926 -1.4506 -0.8146
18569TIP3   OH277121   0.838   0.801  15.941 -0.2181 -0.7881  0.0003
18569TIP3    H177122   0.906   0.761  15.887 -0.1361 -1.5422  0.6378
18569TIP3    H277123   0.765   0.740  15.937 -0.4562 -0.5182  0.1964
18570TIP3   OH277124   5.022   5.020   3.026 -0.0742  0.4273  0.1475
18570TIP3    H177125   5.046   4.929   3.044  0.4220  0.6520  0.6601
18570TIP3    H277126   5.060   5.037   2.939 -2.8645 -0.7951 -1.4496
18571TIP3   OH277127   3.426   6.395   2.681 -0.1091 -0.4791 -0.3080
18571TIP3    H177128   3.517   6.419   2.663 -0.1203 -1.0505 -1.2111
18571TIP3    H277129   3.408   6.429   2.768  0.7731  0.1944 -0.3822
18572TIP3   OH277130   6.390   0.757  15.942  0.4361  0.1354  0.0750
18572TIP3    H177131   6.432   0.694  15.883  0.8775 -1.1143  1.6266
18572TIP3    H277132   6.329   0.704  15.994  2.5339  0.3981  3.0949
18573TIP3   OH277133   5.776   5.712   4.380  0.0024  0.4274  0.4511
18573TIP3    H177134   5.822   5.769   4.441  0.3285  1.3067 -0.5964
18573TIP3    H277135   5.845   5.674   4.326 -0.3325  0.1576  0.2116
18574TIP3   OH277136   1.838   4.261   3.279 -0.1620 -0.3005  0.1255
18574TIP3    H177137   1.802   4.340   3.320 -0.4731 -0.4790  0.1990
18574TIP3    H277138   1.889   4.294   3.204 -0.2930 -0.0313  0.1539
18575TIP3   OH277139   1.625   3.134  11.951  0.0612 -0.5612 -0.3050
18575TIP3    H177140   1.599   3.118  11.860 -1.1126  0.8076 -0.2571
18575TIP3    H277141   1.567   3.205  11.980  0.9487 -0.4308  1.2659
18576TIP3   OH277142   1.442   6.619   3.493  0.3787 -0.6080  0.4060
18576TIP3    H177143   1.400   6.556   3.434 -1.3554 -0.0162  0.9733
18576TIP3    H277144   1.383   6.694   3.495  0.4575 -0.5407  2.7570
18577TIP3   OH277145   3.917   5.395   4.817 -0.5941  0.3596 -0.2430
18577TIP3    H177146   3.903   5.354   4.903  1.1065 -1.3596 -0.7320
18577TIP3    H277147   3.963   5.477   4.838  1.5096 -0.9228  0.4447
18578TIP3   OH277148   5.629   4.465   2.666 -0.0635 -0.1477 -0.2347
18578TIP3    H177149   5.715   4.443   2.702 -0.5702 -1.2304  0.3556
18578TIP3    H277150   5.567   4.426   2.727 -1.0707  3.0307  0.9822
18579TIP3   OH277151   0.904   6.641   5.288  0.1575  0.3515 -0.0701
18579TIP3    H177152   0.862   6.574   5.233 -0.0134 -0.1830  0.6819
18579TIP3    H277153   0.840   6.712   5.292 -0.0574  0.1652 -0.1406
18580TIP3   OH277154   1.106   1.917   0.087  1.0223  0.0048 -0.0014
18580TIP3    H177155   1.116   1.936  -0.006  2.3079  0.1465  0.1399
18580TIP3    H277156   1.112   2.003   0.130 -0.7732  0.0904  0.1616
18581TIP3   OH277157   0.832   2.703   0.115  0.0651  0.0508 -0.2075
18581TIP3    H177158   0.824   2.713   0.210 -0.5979  0.0423 -0.2545
18581TIP3    H277159   0.867   2.615   0.104 -3.0327 -1.3584 -0.0223
18582TIP3   OH277160   5.487   0.786   2.742 -0.0761  0.6210 -0.9041
18582TIP3    H177161   5.485   0.795   2.646 -1.4938  1.0377 -0.8501
18582TIP3    H277162   5.396   0.794   2.769  0.3177  0.5777  0.5016
18583TIP3   OH277163   0.049   4.780  13.237  0.2814 -0.1839  0.6497
18583TIP3    H177164  -0.011   4.786  13.163  0.0187 -0.0942  0.8706
18583TIP3    H277165   0.059   4.686  13.252 -0.9567 -0.1912  1.5475
18584TIP3   OH277166   1.583   4.757   2.564 -0.3204  0.2396 -0.3645
18584TIP3    H177167   1.632   4.788   2.641 -0.7977  0.2587 -0.0655
18584TIP3    H277168   1.539   4.834   2.531  0.9733  0.5275 -1.4928
18585TIP3   OH277169   2.764   5.727   3.190  0.7533  0.4722  0.1168
18585TIP3    H177170   2.753   5.643   3.233  1.7627  0.7127  0.8869
18585TIP3    H277171   2.718   5.789   3.246 -0.4998  0.3807 -0.7591
18586TIP3   OH277172   1.078   4.811  11.765  0.0637 -0.2439 -0.2279
18586TIP3    H177173   1.080   4.722  11.802 -0.5439  0.6198  2.0363
18586TIP3    H277174   1.155   4.854  11.803 -0.7864  0.7937  0.3429
18587TIP3   OH277175   2.266   3.801   1.110  0.0964  0.0533 -0.7564
18587TIP3    H177176   2.241   3.708   1.108 -0.2031  0.1033  0.2209
18587TIP3    H277177   2.196   3.845   1.063  0.3914 -0.2448 -1.4879
18588TIP3   OH277178   5.877   0.368  17.299  0.1283 -0.2283 -0.0869
18588TIP3    H177179   5.949   0.390  17.359  1.5780 -1.1513 -1.4150
18588TIP3    H277180   5.918   0.368  17.212 -2.0036  1.5353 -1.1843
18589TIP3   OH277181   3.294   2.194   3.383  0.5611  0.2785 -0.0829
18589TIP3    H177182   3.202   2.168   3.382  0.3076  1.1312 -0.6137
18589TIP3    H277183   3.326   2.169   3.296  0.2828  1.7478 -0.6484
18590TIP3   OH277184   1.261   0.793  15.584 -0.2256 -0.0434 -0.0532
18590TIP3    H177185   1.297   0.787  15.672  2.4022 -0.1593 -1.0523
18590TIP3    H277186   1.287   0.711  15.542 -0.4923  0.4689 -1.2596
18591TIP3   OH277187   6.702   1.186   4.296 -0.0739  0.0694  0.1815
18591TIP3    H177188   6.776   1.196   4.235  0.5542 -1.4746  0.6541
18591TIP3    H277189   6.680   1.276   4.320  1.7504  0.5898  0.1236
18592TIP3   OH277190   5.678   3.268   1.182 -0.4388 -0.5710 -0.2641
18592TIP3    H177191   5.693   3.336   1.116 -0.4745  0.3477  0.6708
18592TIP3    H277192   5.597   3.225   1.153 -2.2785  1.9188  0.8744
18593TIP3   OH277193   2.294   1.001  16.887 -0.5192  0.2585 -0.1517
18593TIP3    H177194   2.374   0.974  16.933  0.1116  0.5226 -1.0729
18593TIP3    H277195   2.231   0.932  16.906  0.1499 -0.3229 -0.0076
18594TIP3   OH277196   1.679   1.377  10.980  0.3311  0.7822 -0.8625
18594TIP3    H177197   1.698   1.325  10.902  0.8761  2.2238 -1.7349
18594TIP3    H277198   1.677   1.314  11.052  2.8578 -0.2207 -1.5739
18595TIP3   OH277199   1.660   0.385  15.002 -0.2694  0.2315 -0.1221
18595TIP3    H177200   1.681   0.291  15.006 -0.3713  0.2011 -0.2597
18595TIP3    H277201   1.721   0.426  15.063  0.6192  0.2205 -0.9694
18596TIP3   OH277202   2.107   4.775   2.990  0.0680  0.3312 -0.2567
18596TIP3    H177203   2.065   4.739   3.068  0.8515  0.0154  0.0307
18596TIP3    H277204   2.115   4.868   3.009 -0.1040  0.3219 -0.1287
18597TIP3   OH277205   3.625   4.778  11.379  0.1534 -0.1533  0.1630
18597TIP3    H177206   3.599   4.701  11.429  2.8860 -1.0910  0.3013
18597TIP3    H277207   3.605   4.852  11.436 -0.5410 -0.9072  0.9248
18598TIP3   OH277208   5.688   2.716   3.346 -0.5974  0.5701 -0.6038
18598TIP3    H177209   5.663   2.701   3.255  1.7110 -0.7395 -1.0988
18598TIP3    H277210   5.708   2.809   3.352  0.5982  0.4110 -1.8316
18599TIP3   OH277211   1.117   2.651   1.924  0.3853  0.1252  0.3673
18599TIP3    H177212   1.153   2.604   1.848 -0.4201 -1.6035  0.9866
18599TIP3    H277213   1.034   2.688   1.892  0.8783  0.8945 -0.0452
18600TIP3   OH277214   5.180   1.574  16.752  0.3152 -0.5447 -0.0985
18600TIP3    H177215   5.275   1.562  16.744 -0.0508 -2.6322 -2.2728
18600TIP3    H277216   5.148   1.574  16.662 -1.9561 -1.9040  0.6281
18601TIP3   OH277217   4.786   6.147   3.762 -0.1295 -0.4851 -0.2855
18601TIP3    H177218   4.852   6.215   3.774  0.8245 -1.2950 -0.8196
18601TIP3    H277219   4.715   6.171   3.822  0.2484  0.8914 -0.3708
18602TIP3   OH277220   2.047   2.150  12.084  0.5308 -0.3172 -0.0633
18602TIP3    H177221   2.076   2.160  12.175 -1.0470 -0.6870  0.5212
18602TIP3    H277222   2.040   2.056  12.072  0.5722 -0.2624 -0.5191
18603TIP3   OH277223   4.632   4.620  11.337  0.0763  0.0733  0.4885
18603TIP3    H177224   4.608   4.529  11.353  1.0607 -0.2839  0.0022
18603TIP3    H277225   4.704   4.637  11.397 -1.9572  1.4735  2.7349
18604TIP3   OH277226   6.247   2.403  12.472 -0.3233 -0.0503  0.3248
18604TIP3    H177227   6.288   2.391  12.387 -1.4988 -0.5806 -0.1996
18604TIP3    H277228   6.311   2.370  12.535  0.7917  0.8706 -0.2905
18605TIP3   OH277229   1.156   5.568   1.024 -0.0737 -0.3752  0.5846
18605TIP3    H177230   1.246   5.541   1.002  0.4191  1.0110  0.8002
18605TIP3    H277231   1.128   5.506   1.091 -0.1233 -2.1988 -1.0315
18606TIP3   OH277232   2.440   6.222   5.682 -0.1588  0.0998 -0.0889
18606TIP3    H177233   2.495   6.290   5.642  1.9255 -1.5486 -0.1884
18606TIP3    H277234   2.477   6.140   5.651 -2.6159 -1.1400  0.0235
18607TIP3   OH277235   0.411   2.578   5.082 -0.8010 -0.9402  0.1814
18607TIP3    H177236   0.436   2.625   5.002 -1.9900 -1.5253 -0.5591
18607TIP3    H277237   0.484   2.519   5.098 -0.1792 -0.2444  0.0033
18608TIP3   OH277238   2.435   2.580   3.554 -0.0532 -0.5124 -0.2374
18608TIP3    H177239   2.448   2.625   3.637  1.5692  0.5439 -1.0176
18608TIP3    H277240   2.356   2.527   3.568  0.0118 -0.1570  1.8624
18609TIP3   OH277241   4.592   3.186   3.955  0.4188 -0.8802  0.3515
18609TIP3    H177242   4.648   3.230   3.891 -0.5287 -0.4527 -0.2064
18609TIP3    H277243   4.558   3.110   3.908 -1.0485 -0.0389 -0.0133
18610TIP3   OH277244   5.669   5.252  15.512 -0.0465 -0.3716  0.1558
18610TIP3    H177245   5.616   5.176  15.536  0.3796 -0.0983  2.1048
18610TIP3    H277246   5.669   5.251  15.416 -3.2328 -0.5811  0.0652
18611TIP3   OH277247   2.255   0.053   5.814 -0.3278  0.4084 -0.2782
18611TIP3    H177248   2.192   0.125   5.808 -0.2914  0.2939 -2.9192
18611TIP3    H277249   2.338   0.091   5.786  0.0269 -0.3010 -0.2175
18612TIP3   OH277250   2.855   4.642  11.913  0.6141 -0.1615 -0.7914
18612TIP3    H177251   2.857   4.706  11.985  0.1252 -0.3408 -0.6135
18612TIP3    H277252   2.890   4.689  11.838 -0.3607  0.5397 -0.8283
18613TIP3   OH277253   5.851   3.176   2.017 -0.1037 -0.0316  0.1493
18613TIP3    H177254   5.943   3.180   2.043  0.0515 -1.5143 -0.0841
18613TIP3    H277255   5.803   3.208   2.093  0.5620 -0.2318  0.6671
18614TIP3   OH277256   6.161   6.290   4.164  0.0866  0.1669  0.3897
18614TIP3    H177257   6.115   6.309   4.245 -0.3409  0.6519  0.0434
18614TIP3    H277258   6.254   6.288   4.188 -0.1408 -1.5083  1.2285
18615TIP3   OH277259   5.560   1.371  16.462  0.1569 -0.2873  0.5366
18615TIP3    H177260   5.579   1.461  16.486  1.9089 -0.4089 -0.2336
18615TIP3    H277261   5.643   1.337  16.429 -1.0892 -1.3673 -1.7181
18616TIP3   OH277262   4.460   4.228  12.484  0.2511  0.2504 -0.2239
18616TIP3    H177263   4.521   4.302  12.483  3.1040 -1.9179  0.7919
18616TIP3    H277264   4.423   4.230  12.573 -1.3434  1.6092 -0.8632
18617TIP3   OH277265   0.396   5.053  16.252  0.0826 -0.4413  0.0836
18617TIP3    H177266   0.339   5.087  16.184 -1.2707 -0.4806  1.1499
18617TIP3    H277267   0.338   5.035  16.326  1.3470 -1.3160  0.9213
18618TIP3   OH277268   2.513   2.879  15.092  0.3359  0.3617  0.1598
18618TIP3    H177269   2.599   2.841  15.073  0.1153  0.3082 -0.7894
18618TIP3    H277270   2.494   2.933  15.015 -0.4556  0.4032  0.3822
18619TIP3   OH277271   3.640   6.571  15.534 -0.5633 -0.2892  0.2134
18619TIP3    H177272   3.732   6.548  15.534 -0.5408 -0.2020 -0.5267
18619TIP3    H277273   3.595   6.494  15.498 -0.8169 -0.4418  0.8236
18620TIP3   OH277274   4.775   5.657   0.111  0.0037  0.8302  0.0018
18620TIP3    H177275   4.853   5.681   0.161  0.3287 -1.0099  0.4696
18620TIP3    H277276   4.788   5.697   0.025  0.7444  1.7851  0.5408
18621TIP3   OH277277   5.590   1.456  14.828 -0.1080  0.5333 -0.1561
18621TIP3    H177278   5.557   1.538  14.866 -1.5570 -0.1056  0.0410
18621TIP3    H277279   5.563   1.460  14.736 -0.3279  0.2179 -0.1085
18622TIP3   OH277280   1.413   0.836   2.538  0.0685 -0.8335  0.1026
18622TIP3    H177281   1.349   0.876   2.479 -0.1391  2.8306  2.5053
18622TIP3    H277282   1.362   0.771   2.588 -1.1495  0.1308  0.1494
18623TIP3   OH277283   4.403   4.205   2.962 -0.0337  0.5136  0.5439
18623TIP3    H177284   4.489   4.192   2.922  0.6319  2.1495  1.3146
18623TIP3    H277285   4.341   4.175   2.896  1.0884  0.9017 -0.7404
18624TIP3   OH277286   2.642   6.733  13.339 -0.1647  0.3742 -0.2840
18624TIP3    H177287   2.710   6.704  13.400 -0.4169  0.1029 -0.1246
18624TIP3    H277288   2.645   6.669  13.268 -1.9282 -1.1572  0.9326
18625TIP3   OH277289   3.188   0.823  13.270 -0.3376  0.4410 -0.2345
18625TIP3    H177290   3.187   0.803  13.176 -0.0206  2.0797 -0.6120
18625TIP3    H277291   3.209   0.916  13.275 -1.2644  0.6070  1.4322
18626TIP3   OH277292   3.504   0.292  16.284 -0.4706 -0.4090  0.1801
18626TIP3    H177293   3.473   0.380  16.264  2.4932  0.6719 -0.0650
18626TIP3    H277294   3.492   0.283  16.379 -0.9926  0.1652  0.1749
18627TIP3   OH277295   3.567   0.921   0.432 -0.0984 -0.1778 -0.1168
18627TIP3    H177296   3.555   0.990   0.497  1.4942  0.3452 -0.3398
18627TIP3    H277297   3.656   0.933   0.399 -0.1670 -1.6570 -0.9726
18628TIP3   OH277298   3.708   2.957  14.972  0.8115 -0.0847  0.4266
18628TIP3    H177299   3.687   3.046  15.000  1.6940 -0.1214  1.2683
18628TIP3    H277300   3.757   2.969  14.891 -0.4733  0.0977 -0.3549
18629TIP3   OH277301   3.336   5.681  11.897 -0.1109 -0.2195  0.4747
18629TIP3    H177302   3.273   5.752  11.908  0.6111  0.4744  0.1877
18629TIP3    H277303   3.409   5.720  11.849  0.4910 -1.0458  0.6892
18630TIP3   OH277304   5.205   5.448   3.717 -0.2482 -0.6484 -0.1211
18630TIP3    H177305   5.257   5.378   3.676 -0.7020 -0.1378 -1.6726
18630TIP3    H277306   5.266   5.520   3.730 -0.3356 -0.3782 -1.0931
18631TIP3   OH277307   0.388   0.165  15.532 -0.7436  0.0541 -0.1469
18631TIP3    H177308   0.320   0.231  15.520 -1.0935  0.4260  3.0847
18631TIP3    H277309   0.352   0.086  15.494 -1.8351  0.8828 -0.8871
18632TIP3   OH277310   1.447   6.692  15.128  0.5184  0.3037  0.2882
18632TIP3    H177311   1.526   6.652  15.091  2.1956  3.9177 -0.5160
18632TIP3    H277312   1.472   6.718  15.216 -0.3723  0.0313  0.6334
18633TIP3   OH277313   6.449   5.777   2.239 -0.4588  0.3095 -0.1198
18633TIP3    H177314   6.459   5.846   2.305 -3.4600 -0.3435  1.1735
18633TIP3    H277315   6.360   5.788   2.206 -1.1185 -2.9809  0.2379
18634TIP3   OH277316   5.743   1.401   6.125  0.0217  0.4800  0.1212
18634TIP3    H177317   5.653   1.414   6.154 -0.2874 -0.5952 -0.3126
18634TIP3    H277318   5.758   1.307   6.135  0.9459  0.5771 -0.2487
18635TIP3   OH277319   3.078   5.967   4.938  0.6404 -0.1010 -0.3584
18635TIP3    H177320   3.030   5.910   4.997  1.1308 -1.0677 -0.8783
18635TIP3    H277321   3.012   6.028   4.905  0.0418 -0.5816 -0.0649
18636TIP3   OH277322   4.747   0.379  13.531 -0.0074 -0.5385  0.0396
18636TIP3    H177323   4.717   0.335  13.452 -0.2951  0.7266 -0.5736
18636TIP3    H277324   4.803   0.450  13.499 -0.0759 -0.0548  0.9697
18637TIP3   OH277325   3.219   1.779  16.363  0.5164 -0.2034  0.6557
18637TIP3    H177326   3.191   1.725  16.289 -1.0114 -0.7209  1.5611
18637TIP3    H277327   3.166   1.858  16.357  0.6655 -0.0785  0.9539
18638TIP3   OH277328   0.045   0.131   2.438  0.5151 -0.1765 -0.2583
18638TIP3    H177329   0.068   0.221   2.418  0.3804 -0.1510 -0.2993
18638TIP3    H277330   0.106   0.105   2.507  0.1079  0.1684  0.2393
18639TIP3   OH277331   6.466   0.894  14.037  0.2245  0.2156 -0.1610
18639TIP3    H177332   6.472   0.987  14.058  1.3050  0.2398 -0.4926
18639TIP3    H277333   6.494   0.888  13.946  0.2608 -0.4394 -0.1102
18640TIP3   OH277334   2.891   1.627   1.412 -0.6698  0.0616 -0.7956
18640TIP3    H177335   2.980   1.596   1.394 -0.8529 -1.6533  0.9158
18640TIP3    H277336   2.898   1.722   1.406  0.9510 -0.0846 -2.0354
18641TIP3   OH277337   5.690   1.338   1.039 -0.2514 -0.5954  0.4641
18641TIP3    H177338   5.693   1.428   1.072 -2.4931 -0.2099 -0.2792
18641TIP3    H277339   5.686   1.284   1.118  0.8960 -0.0604  0.9108
18642TIP3   OH277340   1.020   3.734  12.910  0.3117 -0.1221  1.0517
18642TIP3    H177341   1.110   3.755  12.935  0.1813  0.3517  1.1331
18642TIP3    H277342   1.018   3.639  12.905  0.5314 -0.1952  2.1391
18643TIP3   OH277343   6.069   4.598   5.016  0.3312 -0.4244  0.8327
18643TIP3    H177344   6.055   4.538   5.089  0.9359 -2.1485 -0.3968
18643TIP3    H277345   6.084   4.541   4.941  1.1042  1.2837 -0.3781
18644TIP3   OH277346   6.748   1.991   4.471  0.5140 -0.1309 -1.0648
18644TIP3    H177347   6.766   1.953   4.386  2.2272  0.9751 -1.2400
18644TIP3    H277348   6.771   1.923   4.534  1.3201 -0.2148 -1.4370
18645TIP3   OH277349   0.497   5.272   1.949  0.4694  0.2785 -0.0275
18645TIP3    H177350   0.475   5.220   2.026  0.0357  1.1776  0.4741
18645TIP3    H277351   0.425   5.257   1.888 -0.7390  1.8381  0.9199
18646TIP3   OH277352   1.334   1.274   5.367 -0.0866  0.1774  0.2878
18646TIP3    H177353   1.319   1.277   5.462  1.5123  2.5286  0.5450
18646TIP3    H277354   1.329   1.181   5.345 -0.5259 -0.4291  2.6614
18647TIP3   OH277355   5.916   1.709  17.237  0.4942 -0.8142 -0.2326
18647TIP3    H177356   5.977   1.727  17.308  1.0332  0.5788 -1.0315
18647TIP3    H277357   5.950   1.629  17.196 -0.0529 -1.8883  1.2739
18648TIP3   OH277358   6.522   4.443  13.767  0.3979  0.7473 -0.0884
18648TIP3    H177359   6.574   4.515  13.804 -0.0964  1.2641 -0.3913
18648TIP3    H277360   6.432   4.476  13.767  0.0004 -0.2880  0.7961
18649TIP3   OH277361   2.801   3.464   0.466  0.0337 -0.2215  0.1059
18649TIP3    H177362   2.842   3.488   0.384 -0.1668  0.7996  0.2897
18649TIP3    H277363   2.865   3.407   0.509  1.5077  1.6905  0.5994
18650TIP3   OH277364   1.956   1.955  16.654 -0.0415 -0.1442 -0.2708
18650TIP3    H177365   1.907   1.906  16.720 -3.6166  0.8916 -1.8624
18650TIP3    H277366   2.040   1.911  16.648  0.3220 -0.6355  4.4583
18651TIP3   OH277367   4.481   1.277   3.175 -0.1333 -0.8874  0.2277
18651TIP3    H177368   4.532   1.215   3.122 -1.7648 -2.7628  0.7614
18651TIP3    H277369   4.428   1.325   3.111  0.5599 -0.5688 -0.1213
18652TIP3   OH277370   1.948   6.625  14.363  0.0778 -0.1700  0.3693
18652TIP3    H177371   1.899   6.694  14.318  1.6608  0.1607 -0.9716
18652TIP3    H277372   2.022   6.671  14.403 -0.3021 -0.7417  1.7969
18653TIP3   OH277373   1.784   3.471   0.067 -0.5951 -0.0726  0.4506
18653TIP3    H177374   1.736   3.390   0.089 -0.3000  0.2122  2.3475
18653TIP3    H277375   1.848   3.480   0.138  1.1380  0.4722 -1.1204
18654TIP3   OH277376   5.882   4.075  12.958  0.0177  0.6854  0.0860
18654TIP3    H177377   5.867   4.010  13.027 -1.9319  1.4951  0.4781
18654TIP3    H277378   5.848   4.034  12.878 -0.0341  0.7319  0.0845
18655TIP3   OH277379   0.963   4.564   5.241 -0.4735 -0.2458  0.4746
18655TIP3    H177380   0.992   4.623   5.171  0.7731 -0.4630  0.7765
18655TIP3    H277381   0.884   4.522   5.206 -0.9337  1.0063 -0.0507
18656TIP3   OH277382   0.026   3.891  14.232  0.4042  0.1180 -0.0934
18656TIP3    H177383   0.081   3.890  14.311 -0.4433  0.6373  0.5156
18656TIP3    H277384   0.075   3.947  14.171 -0.6966  2.9706  1.4235
18657TIP3   OH277385   1.552   2.822   3.847  0.2096  0.3593  0.1299
18657TIP3    H177386   1.476   2.773   3.878  1.5241 -1.6707  0.3670
18657TIP3    H277387   1.525   2.913   3.850 -2.0882 -0.2688  0.5047
18658TIP3   OH277388   3.718   6.111  14.200  0.4589  0.0429  0.5170
18658TIP3    H177389   3.755   6.025  14.181  0.7129  0.3308 -0.3151
18658TIP3    H277390   3.792   6.171  14.195  0.6491  0.1063  2.8913
18659TIP3   OH277391   1.627   2.849   4.842  0.4017 -0.0352  0.1366
18659TIP3    H177392   1.688   2.797   4.789  0.1506 -0.0609 -0.1306
18659TIP3    H277393   1.559   2.788   4.869  0.5440 -0.0277  0.5185
18660TIP3   OH277394   1.309   1.760  14.021  0.4793  0.6678  0.3792
18660TIP3    H177395   1.381   1.818  14.047  0.6625  1.1468 -1.1288
18660TIP3    H277396   1.248   1.817  13.974  1.5281 -0.6336 -2.7712
18661TIP3   OH277397   5.065   3.446   3.303  0.1481  0.5965 -0.1199
18661TIP3    H177398   5.018   3.413   3.227  1.1258 -2.0059  0.3017
18661TIP3    H277399   5.000   3.500   3.349 -1.1436  0.4040 -1.6145
18662TIP3   OH277400   2.595   6.164   3.887 -0.1226  0.3996 -0.1883
18662TIP3    H177401   2.678   6.119   3.879  0.2537  1.1646 -0.7039
18662TIP3    H277402   2.561   6.169   3.798 -0.1045  1.2097 -0.1609
18663TIP3   OH277403   4.531   0.395   1.546 -0.7101  0.9140 -0.1094
18663TIP3    H177404   4.532   0.490   1.561  0.0150  0.9837 -0.5507
18663TIP3    H277405   4.584   0.383   1.467 -1.4818  0.2167 -0.5380
18664TIP3   OH277406   3.874   2.470   2.774 -0.1710  0.0329 -0.1775
18664TIP3    H177407   3.844   2.410   2.705  1.1753 -1.8999  0.8548
18664TIP3    H277408   3.799   2.477   2.833 -0.8466  0.6012 -1.0577
18665TIP3   OH277409   3.066   2.404   5.812 -0.2809  0.6688 -0.3647
18665TIP3    H177410   3.085   2.333   5.873  3.1688  3.2845  2.0637
18665TIP3    H277411   2.999   2.456   5.856  1.0892  1.7065  0.6039
18666TIP3   OH277412   4.797   3.856  16.284 -0.6178  0.1017  0.1779
18666TIP3    H177413   4.737   3.783  16.264  0.0252  0.0152 -1.5949
18666TIP3    H277414   4.872   3.815  16.327  0.1569 -0.4648 -1.6331
18667TIP3   OH277415   1.163   1.058   0.782 -0.3028  0.6228  0.1324
18667TIP3    H177416   1.217   0.990   0.743 -0.3828  0.8258 -0.3472
18667TIP3    H277417   1.216   1.138   0.774 -0.5768  0.7802 -0.1326
18668TIP3   OH277418   5.268   6.129   4.326 -0.1279  0.2617 -0.0907
18668TIP3    H177419   5.212   6.203   4.299  0.4554  0.4056 -0.9534
18668TIP3    H277420   5.344   6.135   4.268  1.6190  1.0783  2.1162
18669TIP3   OH277421   6.161   5.270   6.237 -0.2126 -0.5222 -0.4913
18669TIP3    H177422   6.133   5.312   6.156  0.0093  1.4768  0.4021
18669TIP3    H277423   6.252   5.244   6.221  0.3668  1.3234 -0.4039
18670TIP3   OH277424   6.016   5.664  12.465 -0.0020 -0.2798 -0.2522
18670TIP3    H177425   5.993   5.699  12.552 -0.8330 -0.5444 -0.3554
18670TIP3    H277426   6.003   5.738  12.406 -3.8522 -1.1699 -0.7976
18671TIP3   OH277427   1.834   4.134   2.586  0.3011 -0.1983  0.5028
18671TIP3    H177428   1.888   4.212   2.600  1.8887 -0.4783 -2.9697
18671TIP3    H277429   1.746   4.168   2.570  0.2108  0.5690  2.4167
18672TIP3   OH277430   5.160   5.962  12.832  0.3585  0.0671  0.1368
18672TIP3    H177431   5.240   5.919  12.803 -1.1126 -1.3586 -2.1602
18672TIP3    H277432   5.169   6.052  12.800  0.7970 -0.2466 -0.6667
18673TIP3   OH277433   3.817   4.414  14.545 -0.6783  0.6363  0.3075
18673TIP3    H177434   3.784   4.378  14.627 -1.2825 -0.7439 -0.5075
18673TIP3    H277435   3.896   4.462  14.569 -0.1772 -0.7501  1.5376
18674TIP3   OH277436   5.990   0.869   5.672 -0.3186  0.0500 -0.3386
18674TIP3    H177437   6.001   0.808   5.599  0.1997 -1.7774  1.1652
18674TIP3    H277438   5.986   0.955   5.632 -2.2704 -1.0278 -2.6838
18675TIP3   OH277439   5.903   4.796   1.607 -0.0222 -0.2426 -0.1981
18675TIP3    H177440   5.911   4.837   1.521 -1.0006  1.2712  0.3871
18675TIP3    H277441   5.959   4.850   1.664 -2.2067  1.0770  0.8191
18676TIP3   OH277442   6.009   5.156   6.434 -0.6569  0.2334  0.2736
18676TIP3    H177443   6.056   5.174   6.353 -0.3823 -1.0781  0.1188
18676TIP3    H277444   6.037   5.068   6.460  1.0329  1.4434  3.0121
18677TIP3   OH277445   4.044   1.774   5.189  0.1378  0.4366 -0.0427
18677TIP3    H177446   4.069   1.854   5.235  0.6587 -0.1100  0.6517
18677TIP3    H277447   3.959   1.794   5.151 -0.3257  0.9091  1.1896
18678TIP3   OH277448   5.893   2.566  10.969 -0.3583  0.1664  0.1392
18678TIP3    H177449   5.858   2.511  10.899 -2.3741 -0.8631  1.8344
18678TIP3    H277450   5.890   2.655  10.933  0.8377 -0.5390 -1.8504
18679TIP3   OH277451   4.226   3.971   1.493 -0.0789 -0.2516 -0.1704
18679TIP3    H177452   4.157   4.010   1.546 -1.9668  0.5777 -2.9960
18679TIP3    H277453   4.291   4.041   1.482 -0.2644 -0.0408  0.0723
18680TIP3   OH277454   6.561   0.755  12.488  0.0665 -0.3882  0.0585
18680TIP3    H177455   6.510   0.683  12.524  0.3387 -0.7904 -0.3531
18680TIP3    H277456   6.496   0.815  12.451 -0.1177 -0.8528 -0.3807
18681TIP3   OH277457   4.257   1.334  16.851  0.3272  0.3319  0.3059
18681TIP3    H177458   4.331   1.328  16.912  2.1180 -2.5350 -1.8613
18681TIP3    H277459   4.218   1.246  16.854  0.0749  0.3067 -2.0961
18682TIP3   OH277460   2.432   4.298   4.272 -0.2210 -0.2046 -0.2792
18682TIP3    H177461   2.433   4.205   4.294  0.5032 -0.2140 -0.3043
18682TIP3    H277462   2.348   4.330   4.304 -0.8098 -1.0291 -0.9749
18683TIP3   OH277463   1.185   2.969  14.761  0.1908 -0.2693 -0.0005
18683TIP3    H177464   1.147   2.995  14.845 -1.2737 -0.6106 -0.5204
18683TIP3    H277465   1.140   3.024  14.697  0.2512 -1.0056 -0.6851
18684TIP3   OH277466   0.806   1.625  16.593  0.3541  0.5567  0.4280
18684TIP3    H177467   0.713   1.644  16.577 -0.3230 -1.9700  0.9809
18684TIP3    H277468   0.843   1.616  16.506 -0.5560 -1.0170  0.1648
18685TIP3   OH277469   2.786   4.414  14.057 -0.2701  0.1737 -0.0677
18685TIP3    H177470   2.793   4.348  13.988 -1.4835  2.3141 -2.3873
18685TIP3    H277471   2.863   4.469  14.045 -0.3094  0.3744  0.5440
18686TIP3   OH277472   1.542   2.057  11.466 -0.4441  0.0915  0.7556
18686TIP3    H177473   1.535   2.152  11.454 -0.9910 -0.0973 -0.5663
18686TIP3    H277474   1.452   2.027  11.478 -0.5542 -0.5025 -1.1276
18687TIP3   OH277475   0.276   2.011  10.646 -0.4995 -0.5259  0.5570
18687TIP3    H177476   0.220   2.031  10.720 -1.9020  0.2586 -0.6513
18687TIP3    H277477   0.295   2.097  10.607 -0.8954 -1.0046 -0.7405
18688TIP3   OH277478   3.785   0.070  13.747 -0.3805 -0.1778 -0.5622
18688TIP3    H177479   3.851   0.135  13.720 -0.8316  0.9183  0.8716
18688TIP3    H277480   3.818  -0.013  13.712  1.8149  0.3209  0.1803
18689TIP3   OH277481   0.009   3.337   1.041 -0.5492 -0.5245  0.0807
18689TIP3    H177482  -0.018   3.318   0.951 -0.2750 -1.3161  0.1547
18689TIP3    H277483   0.091   3.288   1.052 -0.1203  0.2627  0.4852
18690TIP3   OH277484   4.336   2.069   3.590 -0.0494 -0.2574  0.2264
18690TIP3    H177485   4.242   2.051   3.593 -0.0853 -0.2002 -0.4150
18690TIP3    H277486   4.377   1.984   3.605 -0.1693  0.0186  2.4862
18691TIP3   OH277487   3.407   3.807   2.008  0.2230  0.6628  0.5409
18691TIP3    H177488   3.455   3.841   2.084 -0.5762  0.0337  1.3604
18691TIP3    H277489   3.448   3.723   1.990  0.1513  0.6304  0.5303
18692TIP3   OH277490   1.130   3.038  16.798 -0.2839 -0.0859 -0.2854
18692TIP3    H177491   1.080   3.105  16.753  0.0368 -0.7495 -1.6885
18692TIP3    H277492   1.221   3.070  16.797 -0.3169  0.0386  0.1902
18693TIP3   OH277493   5.849   5.421  11.572 -0.5683 -0.2572 -0.5632
18693TIP3    H177494   5.926   5.396  11.623 -2.1817 -0.3733  1.9951
18693TIP3    H277495   5.838   5.515  11.589  0.3093  0.3311 -2.8694
18694TIP3   OH277496   6.131   6.613  14.327  0.5858  0.4956 -0.3029
18694TIP3    H177497   6.212   6.643  14.370  0.5735  0.5575 -0.3246
18694TIP3    H277498   6.144   6.632  14.235  1.0457 -0.5712 -0.4781
18695TIP3   OH277499   5.502   3.792   2.750  0.6976 -0.3628  0.0955
18695TIP3    H177500   5.542   3.708   2.774 -0.0030 -0.3385  1.4972
18695TIP3    H277501   5.453   3.818   2.829  1.7586  1.8932  0.1007
18696TIP3   OH277502   0.335   3.532  14.029  0.3525  0.2672  0.1487
18696TIP3    H177503   0.266   3.588  13.992  0.3807  0.4957  0.4320
18696TIP3    H277504   0.400   3.525  13.959 -0.7684 -1.4221 -0.7770
18697TIP3   OH277505   3.129   5.321   3.446 -0.6852 -0.0991 -0.0684
18697TIP3    H177506   3.076   5.243   3.430 -1.8501  0.8160 -0.8693
18697TIP3    H277507   3.078   5.371   3.511 -1.5679  1.4406 -1.8529
18698TIP3   OH277508   0.225   6.587   5.245  0.3172 -0.5424 -0.4387
18698TIP3    H177509   0.210   6.676   5.279  0.3065 -1.2702  1.6052
18698TIP3    H277510   0.317   6.589   5.216  0.4454  0.0218 -0.0252
18699TIP3   OH277511   1.070   6.242  12.174 -0.2657 -0.2313 -0.3190
18699TIP3    H177512   1.034   6.159  12.206  1.4185 -0.5457  0.8821
18699TIP3    H277513   1.018   6.308  12.219 -0.9578 -0.6344 -0.5029
18700TIP3   OH277514   2.195   6.460  13.236 -0.3367  0.6012 -0.1332
18700TIP3    H177515   2.217   6.390  13.298 -0.6049 -0.3819 -1.1085
18700TIP3    H277516   2.099   6.463  13.238 -0.4629 -0.6377 -1.7102
18701TIP3   OH277517   1.380   5.120  17.060  0.0847  0.3538 -0.0122
18701TIP3    H177518   1.361   5.077  17.143 -0.3162  0.4567 -0.0500
18701TIP3    H277519   1.328   5.200  17.062 -0.2983  0.1230 -0.5651
18702TIP3   OH277520   3.982   5.877  12.622  0.2951  0.4412 -0.4079
18702TIP3    H177521   4.030   5.958  12.638  0.2547  0.0358  2.1156
18702TIP3    H277522   4.050   5.810  12.612  0.3083  0.6212 -1.6971
18703TIP3   OH277523   2.596   3.369  13.959 -0.3239  0.1589 -0.2300
18703TIP3    H177524   2.540   3.419  13.900  0.9729  0.0350 -1.6413
18703TIP3    H277525   2.609   3.285  13.915  0.0567 -0.2379  0.6100
18704TIP3   OH277526   4.218   4.566   0.043 -1.1382 -0.1193 -0.0275
18704TIP3    H177527   4.261   4.647   0.017  2.6984 -1.8715  0.2766
18704TIP3    H277528   4.185   4.583   0.131  1.3169  0.6439  0.8213
18705TIP3   OH277529   2.131   3.473  17.229  0.3577  0.4642 -0.2071
18705TIP3    H177530   2.148   3.396  17.283  2.2240  0.7741 -0.2946
18705TIP3    H277531   2.054   3.450  17.177  0.2430 -0.9095  0.5454
18706TIP3   OH277532   2.162   0.636   1.117  0.5700 -0.2310 -0.5129
18706TIP3    H177533   2.072   0.661   1.139  0.1907 -1.7602 -0.1851
18706TIP3    H277534   2.191   0.585   1.193  3.0477  3.1969  1.0750
18707TIP3   OH277535   4.307   2.452  16.641 -0.0319 -0.4066 -0.3021
18707TIP3    H177536   4.229   2.447  16.696 -0.3536 -2.2875 -0.8453
18707TIP3    H277537   4.369   2.390  16.682  1.5455  1.6333  0.5983
18708TIP3   OH277538   4.723   5.245   6.120 -0.3117 -0.1111  0.2517
18708TIP3    H177539   4.781   5.248   6.195  2.8719  0.4849 -2.0335
18708TIP3    H277540   4.654   5.308   6.140 -0.2733 -0.8707  3.1091
18709TIP3   OH277541   3.989   0.477  11.861  0.4527  0.3253  0.2442
18709TIP3    H177542   4.057   0.529  11.904  2.4015 -1.1950 -0.8264
18709TIP3    H277543   3.983   0.514  11.773  0.5208 -0.0638  0.0708
18710TIP3   OH277544   3.922   1.012  14.253  0.2380  0.1359  0.7530
18710TIP3    H177545   3.988   0.944  14.249 -0.0929 -0.1451 -0.6076
18710TIP3    H277546   3.906   1.026  14.346 -1.7895 -3.6920  1.1428
18711TIP3   OH277547   0.825   2.409  16.874 -0.4692 -0.1910 -0.1456
18711TIP3    H177548   0.894   2.444  16.930 -0.7878  1.2631 -0.6105
18711TIP3    H277549   0.840   2.451  16.789 -1.9382  0.2116 -0.2440
18712TIP3   OH277550   2.810   5.988   3.829 -0.4245 -0.1889  0.1783
18712TIP3    H177551   2.860   5.986   3.747  1.5714  1.3253  1.2824
18712TIP3    H277552   2.817   5.899   3.863  1.4938 -0.0587  0.2365
18713TIP3   OH277553   0.299   0.914  17.203  0.1542  0.3401 -0.3328
18713TIP3    H177554   0.326   0.969  17.129 -2.3220  2.0367 -0.1062
18713TIP3    H277555   0.318   0.967  17.280  1.9587 -1.0874  0.2833
18714TIP3   OH277556   6.332   3.478  17.228  0.1344 -0.0358  0.1245
18714TIP3    H177557   6.406   3.429  17.264 -0.4795  0.3578  2.0779
18714TIP3    H277558   6.267   3.412  17.207 -0.2718 -0.1984  1.7337
18715TIP3   OH277559   5.506   1.608   1.760 -0.3127  0.1073 -0.3041
18715TIP3    H177560   5.474   1.518   1.752  0.3222 -0.2249  0.6719
18715TIP3    H277561   5.490   1.647   1.674 -0.6948 -0.9065 -0.7077
18716TIP3   OH277562   4.066   2.986  14.949  0.0871 -0.1656 -0.1543
18716TIP3    H177563   4.016   3.052  14.900  0.6388 -0.1606 -0.7179
18716TIP3    H277564   4.059   2.907  14.896  0.2369 -0.3055  0.0340
18717TIP3   OH277565   6.369   5.809  16.437 -0.2398  0.4442  0.3768
18717TIP3    H177566   6.373   5.796  16.532 -5.2713  0.1301  0.8408
18717TIP3    H277567   6.408   5.895  16.423  2.4265 -0.3115  2.3322
18718TIP3   OH277568   2.639   2.599  16.165 -0.1567 -0.0270  0.4760
18718TIP3    H177569   2.727   2.627  16.137 -0.5227  1.0232  0.3261
18718TIP3    H277570   2.646   2.504  16.174  1.0600  0.0647  0.7027
18719TIP3   OH277571   3.223   6.206  11.181  0.3402 -0.0318 -0.4269
18719TIP3    H177572   3.186   6.236  11.099  2.1294  1.3557 -0.7779
18719TIP3    H277573   3.226   6.284  11.236 -0.7529 -0.9167  0.9763
18720TIP3   OH277574   1.212   3.859   5.677 -0.5258  0.0577  0.2390
18720TIP3    H177575   1.287   3.917   5.662 -0.8026  0.2316 -0.5140
18720TIP3    H277576   1.181   3.837   5.590 -2.3403  1.2718  0.5266
18721TIP3   OH277577   2.702   0.287  11.673 -0.2339 -1.0958 -0.6157
18721TIP3    H177578   2.746   0.273  11.589  0.3459 -1.3589 -0.2720
18721TIP3    H277579   2.760   0.247  11.738 -0.1788 -0.0295  0.0244
18722TIP3   OH277580   3.875   2.727   4.280 -0.3951  0.1839  0.5450
18722TIP3    H177581   3.957   2.765   4.249  0.4841 -1.7388  0.3589
18722TIP3    H277582   3.880   2.734   4.375 -0.2247  0.4714  0.5171
18723TIP3   OH277583   6.296   6.073  14.342  0.0120 -0.3756  0.2262
18723TIP3    H177584   6.272   6.163  14.323  0.5502 -0.1956  0.3703
18723TIP3    H277585   6.317   6.035  14.257 -0.1288 -0.3389  0.1753
18724TIP3   OH277586   0.929   3.595   4.478 -0.1775 -0.1420 -0.3588
18724TIP3    H177587   0.995   3.642   4.528 -1.1018  1.8877 -0.9272
18724TIP3    H277588   0.850   3.600   4.532 -0.6543  0.2610 -1.0808
18725TIP3   OH277589   5.868   6.210  14.061 -0.3662  0.6292 -0.7540
18725TIP3    H177590   5.777   6.209  14.032 -1.3038 -4.2356  1.3413
18725TIP3    H277591   5.865   6.249  14.149 -0.5047  0.2630 -0.5939
18726TIP3   OH277592   4.166   6.388   0.058  0.9844 -0.4566  0.7674
18726TIP3    H177593   4.237   6.397  -0.005  0.6541  3.2936  0.7129
18726TIP3    H277594   4.089   6.366   0.005  1.1031  0.7310  0.0738
18727TIP3   OH277595   5.514   6.201  11.980  0.2282 -0.3219 -0.0498
18727TIP3    H177596   5.532   6.148  11.902  1.6214  0.2946 -0.1718
18727TIP3    H277597   5.423   6.230  11.969 -0.8329 -3.0886  0.2957
18728TIP3   OH277598   1.412   4.814  14.503 -0.3064 -0.2096 -0.7787
18728TIP3    H177599   1.343   4.791  14.441 -1.1336  1.2860 -0.4618
18728TIP3    H277600   1.405   4.748  14.572 -0.6102 -0.7812 -1.3485
18729TIP3   OH277601   4.384   1.094  13.853 -0.1465 -0.3783  0.9002
18729TIP3    H177602   4.320   1.151  13.895  0.9091 -0.0260  2.1236
18729TIP3    H277603   4.392   1.127  13.764 -1.3361 -0.1660  0.8643
18730TIP3   OH277604   4.488   2.253  16.706  0.5712  0.5072  0.1802
18730TIP3    H177605   4.503   2.166  16.743  0.4437  0.4582  0.1144
18730TIP3    H277606   4.572   2.276  16.666  1.4971  1.5582  2.5408
18731TIP3   OH277607   0.413   4.102  11.931 -0.2270  0.1437 -0.3790
18731TIP3    H177608   0.449   4.170  11.988 -1.4693 -0.6312  1.4295
18731TIP3    H277609   0.322   4.129  11.916 -0.3141 -0.3816 -0.8363
18732TIP3   OH277610   2.073   4.955   4.505 -0.6083 -0.7277 -0.8719
18732TIP3    H177611   2.136   4.884   4.520  0.5441  0.3803 -0.3057
18732TIP3    H277612   1.993   4.910   4.478 -0.1644 -2.2955  0.2535
18733TIP3   OH277613   1.420   5.212   3.685  0.0406  0.5867  0.2409
18733TIP3    H177614   1.427   5.212   3.780 -0.4257  1.2080  0.2811
18733TIP3    H277615   1.494   5.264   3.655  0.8743 -0.5874  0.1928
18734TIP3   OH277616   6.612   5.688  13.794  0.0143  0.3164 -0.7615
18734TIP3    H177617   6.590   5.775  13.760  1.5577  1.9905  2.0727
18734TIP3    H277618   6.708   5.687  13.793  0.1053 -0.1242  1.8247
18735TIP3   OH277619   2.621   2.482   5.684 -0.2470 -0.1382 -0.0045
18735TIP3    H177620   2.551   2.478   5.749 -1.4029  0.0292 -1.1920
18735TIP3    H277621   2.686   2.419   5.715  0.8125  2.1880  3.0121
18736TIP3   OH277622   5.311   2.242   5.452 -0.1482 -0.0498  0.1835
18736TIP3    H177623   5.227   2.207   5.422  0.3274  0.0589 -1.3453
18736TIP3    H277624   5.353   2.169   5.495 -0.0949 -0.7649 -1.0412
18737TIP3   OH277625   3.023   0.289   5.084 -0.7020 -0.0129  0.0351
18737TIP3    H177626   2.988   0.200   5.085  0.0244 -0.3854 -2.1285
18737TIP3    H277627   2.962   0.337   5.027 -0.2934  0.4955  0.0227
18738TIP3   OH277628   2.993   6.287   2.889  0.3618  0.4008  0.5492
18738TIP3    H177629   2.941   6.207   2.886 -0.4621  0.9484 -0.9397
18738TIP3    H277630   3.084   6.256   2.892  0.0887 -0.6197 -0.6463
18739TIP3   OH277631   2.448   2.088   6.254 -0.0796 -0.3497  0.7059
18739TIP3    H177632   2.433   1.999   6.286  0.4109 -0.0425  1.8565
18739TIP3    H277633   2.361   2.121   6.232 -0.2314 -1.2183 -0.0678
18740TIP3   OH277634   6.284   1.830  16.853 -0.2044  0.2061  0.3279
18740TIP3    H177635   6.377   1.853  16.859  0.1248 -1.0066  0.1820
18740TIP3    H277636   6.266   1.831  16.759  0.3490 -1.9936  0.1409
18741TIP3   OH277637   0.084   3.897   2.910  0.0934  0.3791  0.1440
18741TIP3    H177638  -0.007   3.885   2.939 -0.4193  1.6986 -0.8183
18741TIP3    H277639   0.113   3.976   2.956  1.2245 -0.7146  1.4246
18742TIP3   OH277640   4.657   1.537  13.999 -0.1043 -0.2307  0.3633
18742TIP3    H177641   4.653   1.480  13.922  1.3090 -1.2408  0.9789
18742TIP3    H277642   4.659   1.476  14.073 -4.3157  0.7148  1.4700
18743TIP3   OH277643   2.854   6.595  12.293  0.2706  1.1012  0.1373
18743TIP3    H177644   2.876   6.582  12.386  0.2969 -1.0312 -0.1324
18743TIP3    H277645   2.923   6.549  12.245 -1.0055  0.1828 -0.8685
18744TIP3   OH277646   2.393   1.805   2.463  0.6546 -0.3692  0.7669
18744TIP3    H177647   2.347   1.846   2.389 -0.5799  1.7131  2.5644
18744TIP3    H277648   2.338   1.732   2.488  0.1419 -0.0058  0.7216
18745TIP3   OH277649   5.784   6.218  15.887  0.9577 -0.2546  0.2718
18745TIP3    H177650   5.728   6.141  15.896  2.2527 -1.0815  1.8576
18745TIP3    H277651   5.767   6.251  15.798 -1.0065 -1.2381  0.2431
18746TIP3   OH277652   1.218   5.502  16.256 -0.6099 -0.2264  0.3836
18746TIP3    H177653   1.182   5.583  16.221  0.0969 -0.7967 -1.8535
18746TIP3    H277654   1.152   5.470  16.318 -1.4855  1.3561  0.3057
18747TIP3   OH277655   1.697   4.453  13.844  0.2808 -0.0685  0.1646
18747TIP3    H177656   1.760   4.382  13.856  0.9202  0.2497 -1.1974
18747TIP3    H277657   1.618   4.410  13.811  0.1815 -0.3027  0.6853
18748TIP3   OH277658   4.951   1.957   5.331  0.2111  0.3219 -0.3159
18748TIP3    H177659   4.925   1.869   5.355  0.8417 -0.3897 -2.0930
18748TIP3    H277660   4.885   1.986   5.269  0.8207  0.5094 -0.8883
18749TIP3   OH277661   2.916   0.036  15.854 -0.1155 -0.5381 -0.2506
18749TIP3    H177662   2.848   0.053  15.919  0.9059  0.6001  0.5731
18749TIP3    H277663   2.885  -0.041  15.807 -1.8979 -0.1397  0.1751
18750TIP3   OH277664   0.725   4.137   4.825  0.6202  0.0966 -0.0386
18750TIP3    H177665   0.810   4.098   4.807  1.5379  2.1643 -0.4286
18750TIP3    H277666   0.745   4.221   4.866 -1.0763  2.0365 -2.8553
18751TIP3   OH277667   6.318   3.113   0.745  0.1816 -0.0460 -0.5581
18751TIP3    H177668   6.226   3.135   0.728 -0.0038 -0.0496  0.3565
18751TIP3    H277669   6.337   3.156   0.829  0.4268 -1.6367  0.2436
18752TIP3   OH277670   4.114   5.292   4.492 -0.3004 -0.0762  0.3245
18752TIP3    H177671   4.069   5.299   4.409 -1.9335  0.3224  1.2128
18752TIP3    H277672   4.206   5.281   4.468 -0.7914 -0.5037 -1.5243
18753TIP3   OH277673   6.250   6.063  13.933 -0.3407  0.3392 -0.1604
18753TIP3    H177674   6.319   6.117  13.971 -0.6602  0.1518  0.7024
18753TIP3    H277675   6.251   6.086  13.840  3.0371 -1.9322 -0.8928
18754TIP3   OH277676   0.212   5.477   4.941  0.0475  0.0968  0.2294
18754TIP3    H177677   0.171   5.530   5.009  1.4957  2.7451 -0.8002
18754TIP3    H277678   0.147   5.474   4.871 -0.5519 -0.6665  0.8014
18755TIP3   OH277679   6.083   1.817  14.723  0.2843 -0.1073  0.3343
18755TIP3    H177680   6.158   1.860  14.682 -1.1054 -0.0700 -2.3764
18755TIP3    H277681   6.020   1.887  14.737 -0.6422 -0.6387 -0.9024
18756TIP3   OH277682   4.293   1.073  10.763  0.0320 -0.1959 -0.2845
18756TIP3    H177683   4.260   1.013  10.696  1.2230  0.9865 -2.0222
18756TIP3    H277684   4.269   1.160  10.730 -0.9829  0.3652  1.7799
18757TIP3   OH277685   4.516   0.718   6.929 -0.0619  0.1497  0.2069
18757TIP3    H177686   4.441   0.694   6.875  0.6253  1.1053 -1.2244
18757TIP3    H277687   4.589   0.671   6.890 -0.0837 -1.9237  2.4599
18758TIP3   OH277688   2.075   4.103   1.866 -0.1690 -0.4364  0.2610
18758TIP3    H177689   2.140   4.171   1.885  1.6232 -1.9807 -0.0017
18758TIP3    H277690   2.012   4.108   1.937  1.4118 -0.2206  1.7045
18759TIP3   OH277691   6.445   4.283  15.335  0.0230 -0.0528  0.0724
18759TIP3    H177692   6.526   4.273  15.285  0.5107  0.0311  0.8349
18759TIP3    H277693   6.457   4.228  15.412 -0.4628  0.3095  0.4138
18760TIP3   OH277694   4.080   0.393   4.789 -0.3254 -0.2560 -0.2082
18760TIP3    H177695   4.152   0.416   4.730 -0.3540 -0.4227 -0.3087
18760TIP3    H277696   4.078   0.298   4.787  0.0919 -0.2834  0.5649
18761TIP3   OH277697   4.588   5.212  13.336 -0.4589  0.5099 -0.0986
18761TIP3    H177698   4.507   5.229  13.287 -0.7590  1.6566  0.7488
18761TIP3    H277699   4.651   5.183  13.270 -2.2035 -2.8593 -0.4926
18762TIP3   OH277700   1.379   3.015   1.641  0.3701  0.0780  0.0812
18762TIP3    H177701   1.380   3.042   1.733 -2.5069 -0.9119  0.5084
18762TIP3    H277702   1.314   3.071   1.600  0.1698 -0.8312 -0.8887
18763TIP3   OH277703   5.228   2.693   5.824 -0.4960  0.2939 -0.2666
18763TIP3    H177704   5.146   2.710   5.778 -0.2415  0.0674 -0.8184
18763TIP3    H277705   5.294   2.689   5.755 -0.0055  0.5477  0.1753
18764TIP3   OH277706   6.701   5.281  13.981  0.0538 -0.0053 -0.5428
18764TIP3    H177707   6.632   5.284  14.048 -0.2223  1.3083 -0.8636
18764TIP3    H277708   6.753   5.204  14.004 -2.1248 -1.7098 -0.9021
18765TIP3   OH277709   5.360   2.925  16.955  0.2313  0.0973 -0.3563
18765TIP3    H177710   5.370   2.865  16.881  0.7978 -2.6369  1.7772
18765TIP3    H277711   5.449   2.936  16.988  0.5278  4.0407 -1.9240
18766TIP3   OH277712   4.704   4.671  16.391 -0.2223 -0.4923  0.1731
18766TIP3    H177713   4.798   4.658  16.374 -0.5958 -1.8031 -1.0305
18766TIP3    H277714   4.702   4.714  16.477  1.4865 -0.2120  0.1160
18767TIP3   OH277715   5.157   6.574  12.047 -0.1340 -0.5704 -0.2634
18767TIP3    H177716   5.103   6.631  11.993  1.7322  0.5456 -1.0476
18767TIP3    H277717   5.162   6.618  12.132 -0.5526 -0.7519 -0.1420
18768TIP3   OH277718   2.247   3.064  10.560 -0.2450  0.0170 -0.4956
18768TIP3    H177719   2.207   3.043  10.644 -0.9365 -0.5887 -0.9734
18768TIP3    H277720   2.317   3.000  10.550 -0.3110 -0.0550 -0.4927
18769TIP3   OH277721   0.481   0.905  11.993 -0.0195  0.0000 -0.3227
18769TIP3    H177722   0.523   0.890  12.077  1.2569  1.7355 -0.5971
18769TIP3    H277723   0.401   0.852  11.996 -0.8702  1.2484  2.6192
18770TIP3   OH277724   1.758   2.280   0.890 -0.0071 -0.7799  0.1047
18770TIP3    H177725   1.830   2.289   0.953  1.0016 -1.0835 -0.9742
18770TIP3    H277726   1.756   2.364   0.844  0.0539 -0.9873 -0.2781
18771TIP3   OH277727   5.046   5.702   0.855  0.3815  0.5077  0.3672
18771TIP3    H177728   5.079   5.785   0.821 -2.9207  1.7116 -0.2726
18771TIP3    H277729   4.998   5.664   0.782 -1.2420 -0.1563  1.7193
18772TIP3   OH277730   1.691   1.307  11.981 -0.3336 -0.3495  0.0194
18772TIP3    H177731   1.666   1.374  11.918  2.4693 -1.4726 -2.5156
18772TIP3    H277732   1.654   1.226  11.947 -0.8259 -0.6372  1.1871
18773TIP3   OH277733   1.626   5.600  15.246 -0.5523 -0.0295 -0.3948
18773TIP3    H177734   1.715   5.573  15.221  0.3587  2.0578  0.3623
18773TIP3    H277735   1.577   5.518  15.253  0.3898 -1.1190 -4.0158
18774TIP3   OH277736   3.638   0.766   2.557  0.0375 -0.4666  0.6663
18774TIP3    H177737   3.714   0.709   2.563  0.2681 -0.5893 -2.0180
18774TIP3    H277738   3.672   0.854   2.574  0.0438 -0.8521  2.9194
18775TIP3   OH277739   2.259   4.285   0.544 -0.3481  0.1339  0.5144
18775TIP3    H177740   2.347   4.248   0.555  0.3337  0.3049 -3.0958
18775TIP3    H277741   2.265   4.372   0.583  1.0640  0.1056  0.4216
18776TIP3   OH277742   4.428   1.712  11.435  0.6107  0.4137 -0.3652
18776TIP3    H177743   4.468   1.689  11.351  0.9515  0.7950 -0.3120
18776TIP3    H277744   4.502   1.728  11.493  0.5073 -3.7021  1.1905
18777TIP3   OH277745   3.394   6.201  13.540  0.1371 -0.0539 -0.1621
18777TIP3    H177746   3.315   6.169  13.496 -0.9269 -0.8317  2.1715
18777TIP3    H277747   3.383   6.296  13.542 -0.3090 -0.0921 -0.6046
18778TIP3   OH277748   1.458   2.500   1.883  0.5413  0.3811 -0.0620
18778TIP3    H177749   1.420   2.574   1.930 -2.2804 -0.9284 -0.1021
18778TIP3    H277750   1.397   2.483   1.811  2.1275 -0.8113 -1.2027
18779TIP3   OH277751   0.634   4.418  10.579  0.4045  0.4040 -0.3877
18779TIP3    H177752   0.609   4.464  10.659  0.9459 -1.1375  0.7250
18779TIP3    H277753   0.637   4.326  10.605  0.6788 -0.1220 -2.1778
18780TIP3   OH277754   2.685   2.054   0.712 -0.2969  0.2816 -0.1457
18780TIP3    H177755   2.698   1.993   0.640  0.3009 -1.2863  1.2317
18780TIP3    H277756   2.679   2.140   0.670  0.7170 -0.4970 -1.9809
18781TIP3   OH277757   4.315   5.313  16.283  0.1125  0.0758 -0.0893
18781TIP3    H177758   4.256   5.325  16.358  0.6748 -1.8290  0.7329
18781TIP3    H277759   4.289   5.228  16.247  0.7248  0.3713 -1.2523
18782TIP3   OH277760   1.029   2.079   5.211  0.4641 -0.0301  0.1026
18782TIP3    H177761   1.063   2.100   5.298  3.8281 -0.7465 -0.8650
18782TIP3    H277762   1.069   1.994   5.191 -0.7533 -0.1740 -1.9048
18783TIP3   OH277763   6.599   4.040   2.507  0.1635  0.1122  0.0103
18783TIP3    H177764   6.507   4.020   2.526  0.2428 -1.1601 -0.8386
18783TIP3    H277765   6.647   3.967   2.545  0.5547 -0.8703 -2.1790
18784TIP3   OH277766   2.855   6.663  11.864  0.2016  0.5852 -0.2647
18784TIP3    H177767   2.924   6.597  11.868 -0.3327  0.0551  0.5134
18784TIP3    H277768   2.802   6.646  11.941 -0.6464  1.1542 -0.7120
18785TIP3   OH277769   6.102   6.721   4.230 -0.3581 -0.7648  0.2903
18785TIP3    H177770   6.093   6.794   4.291  0.5477 -1.5987  1.4684
18785TIP3    H277771   6.148   6.653   4.281 -1.0201 -2.0820 -0.8165
18786TIP3   OH277772   2.326   2.488   0.384  0.2273 -0.3152 -0.0326
18786TIP3    H177773   2.289   2.420   0.441  1.0572 -0.8576 -0.1293
18786TIP3    H277774   2.366   2.550   0.444 -0.6748  0.1849  0.0644
18787TIP3   OH277775   0.548   0.481   3.827 -0.4628  0.0459  0.4662
18787TIP3    H177776   0.595   0.565   3.824  0.4261 -0.4540 -0.0587
18787TIP3    H277777   0.479   0.495   3.892 -0.3410  1.1870  0.3788
18788TIP3   OH277778   4.656   5.569  14.776 -0.2217 -0.5211  0.1925
18788TIP3    H177779   4.648   5.477  14.750 -0.8199 -0.2777 -0.5128
18788TIP3    H277780   4.598   5.578  14.851  0.8548 -1.0258  1.1089
18789TIP3   OH277781   4.355   6.530  14.697  0.2861 -0.3986 -0.3682
18789TIP3    H177782   4.348   6.604  14.758  0.3897  0.7278 -1.6635
18789TIP3    H277783   4.446   6.503  14.703  0.0087 -1.1317  0.8805
18790TIP3   OH277784   6.527   0.238   0.716  0.0821  0.5052 -0.2694
18790TIP3    H177785   6.527   0.153   0.760 -2.4511 -0.2021 -1.4947
18790TIP3    H277786   6.538   0.302   0.787  1.0431 -0.7512  0.7695
18791TIP3   OH277787   5.989   3.724   1.809 -0.3067 -0.2501 -0.0274
18791TIP3    H177788   6.034   3.667   1.871  0.4788 -0.2392 -0.5711
18791TIP3    H277789   6.059   3.765   1.758 -0.9361 -1.0085 -1.5871
18792TIP3   OH277790   3.394   2.277   2.707  0.3475 -0.5730 -0.1570
18792TIP3    H177791   3.414   2.232   2.625 -0.3854  0.2366 -0.7984
18792TIP3    H277792   3.384   2.369   2.683 -2.0251 -0.6026  0.4292
18793TIP3   OH277793   5.901   6.373  15.472  0.3285 -0.5355 -0.4098
18793TIP3    H177794   5.864   6.287  15.492 -0.5839 -0.0632 -0.0321
18793TIP3    H277795   5.896   6.380  15.377  2.1290 -1.6458 -0.6480
18794TIP3   OH277796   5.882   1.742   3.170 -0.3834 -0.8800  0.3639
18794TIP3    H177797   5.891   1.648   3.155 -1.9153 -1.3317  1.9111
18794TIP3    H277798   5.886   1.752   3.265 -0.6737  0.5749  0.2506
18795TIP3   OH277799   4.771   6.751  15.197 -0.5543  0.1294  0.1453
18795TIP3    H177800   4.702   6.709  15.248 -0.0263 -2.0080 -0.7860
18795TIP3    H277801   4.748   6.734  15.106  1.6046 -1.4895 -0.1866
18796TIP3   OH277802   1.522   4.213  11.426  1.1574  0.0651  0.3873
18796TIP3    H177803   1.520   4.125  11.388  0.4365  0.4710 -0.5933
18796TIP3    H277804   1.599   4.254  11.388 -0.1628  0.8451 -1.6511
18797TIP3   OH277805   5.580   0.754   3.824  0.1652  0.6137  0.2287
18797TIP3    H177806   5.658   0.746   3.770  0.8107  0.7580  1.1203
18797TIP3    H277807   5.585   0.841   3.862  0.0950  0.2598  1.0813
18798TIP3   OH277808   3.432   4.309   4.259  0.4482  0.5207 -0.4553
18798TIP3    H177809   3.442   4.344   4.171  1.0467  0.8868 -0.2544
18798TIP3    H277810   3.425   4.386   4.315 -0.0613  0.2903 -0.1973
18799TIP3   OH277811   3.415   2.527  11.991  0.3739  0.0608 -0.2018
18799TIP3    H177812   3.458   2.582  12.057  0.1780  0.1050 -0.1121
18799TIP3    H277813   3.433   2.571  11.908  1.0651 -0.2721 -0.2367
18800TIP3   OH277814   5.100   5.240   4.871  0.7658  0.0744 -0.0861
18800TIP3    H177815   5.164   5.271   4.808 -0.0130  0.7887 -0.5421
18800TIP3    H277816   5.151   5.189   4.935  1.4683 -1.3429 -1.6994
18801TIP3   OH277817   4.635   3.490   3.003 -0.1236  0.6378 -0.0836
18801TIP3    H177818   4.719   3.521   2.968 -0.8962  0.8730 -1.8560
18801TIP3    H277819   4.571   3.552   2.969 -1.0374  0.4353  1.2194
18802TIP3   OH277820   0.249   6.074  14.534 -0.1586  0.1902 -0.0755
18802TIP3    H177821   0.197   6.095  14.456  1.4625  0.7816 -1.0344
18802TIP3    H277822   0.280   6.158  14.566  0.5098 -0.1843  0.2822
18803TIP3   OH277823   6.157   5.983  11.392 -0.2428  0.3288  0.4710
18803TIP3    H177824   6.219   6.056  11.397  1.8787 -1.3675  0.8464
18803TIP3    H277825   6.204   5.909  11.432 -3.0684 -0.7586  2.0959
18804TIP3   OH277826   0.938   2.494   0.284  0.5005 -0.8353  0.3956
18804TIP3    H177827   0.852   2.452   0.279  0.2168 -0.1334 -1.2529
18804TIP3    H277828   0.919   2.584   0.311  0.0578  0.7883 -4.3857
18805TIP3   OH277829   4.188   6.176  10.815 -0.0881  0.2289  0.2908
18805TIP3    H177830   4.093   6.173  10.822 -0.0386  1.2090  2.3257
18805TIP3    H277831   4.219   6.101  10.866  0.2627 -1.2073 -1.9122
18806TIP3   OH277832   2.080   0.353   3.826  0.0937  1.0515 -0.3141
18806TIP3    H177833   2.021   0.278   3.815 -1.5561  2.1681  0.3813
18806TIP3    H277834   2.165   0.315   3.848 -0.6000 -0.6161 -0.4213
18807TIP3   OH277835   4.965   2.394  14.852  0.4759  0.2380  0.0333
18807TIP3    H177836   4.987   2.446  14.929  0.2814  2.2792 -1.2209
18807TIP3    H277837   5.018   2.431  14.782  0.7039 -1.6186 -0.8335
18808TIP3   OH277838   4.433   0.418  16.599 -0.1607 -0.0097 -0.2936
18808TIP3    H177839   4.374   0.441  16.527 -0.4273 -1.1347 -0.4627
18808TIP3    H277840   4.402   0.471  16.673 -1.5002 -0.6680 -0.3418
18809TIP3   OH277841   1.034   3.071   4.149 -0.1436 -0.7517 -0.0729
18809TIP3    H177842   1.026   3.071   4.245 -1.8681 -0.5405 -0.1939
18809TIP3    H277843   1.012   2.982   4.123  0.3541 -0.8168 -0.2951
18810TIP3   OH277844   6.558   4.598   5.000 -0.1314  0.0903  0.0502
18810TIP3    H177845   6.581   4.514   4.960 -2.3488  0.0635 -1.3319
18810TIP3    H277846   6.540   4.577   5.091 -1.7437 -1.2100 -0.5196
18811TIP3   OH277847   1.675   5.386   3.946  0.0151  0.1226 -0.0141
18811TIP3    H177848   1.768   5.409   3.940 -0.2603  0.9932 -1.7615
18811TIP3    H277849   1.634   5.438   3.877 -1.6959 -0.6282  0.4014
18812TIP3   OH277850   4.803   3.577  12.937  0.1303 -0.1226 -0.3020
18812TIP3    H177851   4.754   3.527  13.002  0.6408  1.3755  1.2972
18812TIP3    H277852   4.865   3.513  12.901  1.1784 -0.6097  2.1115
18813TIP3   OH277853   4.770   4.960   4.693  0.9707 -0.3719  0.3610
18813TIP3    H177854   4.838   4.958   4.626  1.7672 -0.1594  1.1407
18813TIP3    H277855   4.815   4.935   4.774  0.4055  0.9290  1.1129
18814TIP3   OH277856   2.428   2.904  13.932 -0.2089 -0.7711  0.1656
18814TIP3    H177857   2.334   2.916  13.918 -0.0752  1.9001  1.0287
18814TIP3    H277858   2.452   2.835  13.870 -2.5362 -0.8089 -0.8176
18815TIP3   OH277859   5.893   1.186   0.332 -0.1801  0.1424  0.0857
18815TIP3    H177860   5.819   1.152   0.282 -0.7575 -1.8824  2.1505
18815TIP3    H277861   5.883   1.281   0.327 -0.9836  0.0159 -2.3864
18816TIP3   OH277862   3.901   1.026   1.210  0.9401 -0.2528  0.1935
18816TIP3    H177863   3.808   1.005   1.211  1.3484 -2.4294 -0.3648
18816TIP3    H277864   3.930   1.013   1.301  1.2155 -2.7081 -0.1587
18817TIP3   OH277865   4.869   5.596   3.338 -0.2659  0.8334 -0.1316
18817TIP3    H177866   4.925   5.542   3.392 -0.8534 -0.1459 -0.4743
18817TIP3    H277867   4.805   5.535   3.301 -0.6924  1.6929 -0.8563
18818TIP3   OH277868   5.803   0.573  11.562  0.4000 -0.6983  0.5792
18818TIP3    H177869   5.801   0.633  11.487  1.0331 -2.1857 -0.6858
18818TIP3    H277870   5.888   0.587  11.602  0.7589 -1.0870 -0.0270
18819TIP3   OH277871   5.972   6.594   5.516 -0.4227  0.5939  0.0435
18819TIP3    H177872   5.964   6.543   5.596  3.0480  0.4769  0.4687
18819TIP3    H277873   6.007   6.533   5.451 -2.5897  0.8479 -1.4886
18820TIP3   OH277874   6.671   1.429   4.529  0.1128 -0.3469 -0.1284
18820TIP3    H177875   6.668   1.505   4.586  0.2274 -0.0665 -0.4941
18820TIP3    H277876   6.763   1.423   4.502  0.2414 -0.9959  0.4049
18821TIP3   OH277877   5.862   3.321  16.357  0.6014  0.2518  0.5610
18821TIP3    H177878   5.917   3.382  16.308 -0.6354  0.4043 -0.7160
18821TIP3    H277879   5.776   3.363  16.359 -0.3563 -1.5137 -0.5907
18822TIP3   OH277880   3.683   2.652   6.742 -0.2417 -0.1154 -0.0433
18822TIP3    H177881   3.636   2.706   6.807 -0.1216 -0.7848  0.6087
18822TIP3    H277882   3.620   2.644   6.670 -0.2956  0.8215 -0.1238
18823TIP3   OH277883   0.395   5.144  11.446  0.3632 -0.5907  0.3165
18823TIP3    H177884   0.419   5.109  11.532  0.7606  0.8203  0.8045
18823TIP3    H277885   0.324   5.088  11.416 -0.5621 -0.4163  2.0750
18824TIP3   OH277886   3.006   3.749  13.219  0.2296  0.2212 -0.1027
18824TIP3    H177887   3.016   3.676  13.281  0.4138 -0.3490 -0.7954
18824TIP3    H277888   3.059   3.723  13.144 -0.8374  0.4279 -0.9412
18825TIP3   OH277889   5.308   2.105  14.452  0.2277  0.6557 -0.0086
18825TIP3    H177890   5.353   2.185  14.424  0.8412  0.0985 -0.6203
18825TIP3    H277891   5.260   2.132  14.530  0.3535  1.6499 -0.2590
18826TIP3   OH277892   3.464   2.905   5.307 -0.1409  0.1403 -0.2342
18826TIP3    H177893   3.485   2.939   5.220  2.3159  0.0327  0.2496
18826TIP3    H277894   3.468   2.982   5.364  0.2200 -0.1113  0.0787
18827TIP3   OH277895   6.527   1.030   3.407 -0.2045 -0.5376 -0.1977
18827TIP3    H177896   6.536   0.966   3.336 -0.2986  1.4365 -2.0797
18827TIP3    H277897   6.433   1.034   3.423 -0.1218 -1.5781  0.6512
18828TIP3   OH277898   5.503   6.069   0.634 -0.2166 -0.5508 -0.8147
18828TIP3    H177899   5.537   6.014   0.564 -0.1997 -0.8486 -0.5739
18828TIP3    H277900   5.540   6.156   0.617  0.0777 -0.7069 -0.9668
18829TIP3   OH277901   5.521   4.634   2.221 -0.4768 -0.2065  1.1627
18829TIP3    H177902   5.542   4.577   2.294 -0.2966 -2.2736 -0.4004
18829TIP3    H277903   5.445   4.593   2.179 -1.0816  1.3611  0.6347
18830TIP3   OH277904   4.084   3.636   1.631  0.0505 -0.1530  0.2895
18830TIP3    H177905   4.047   3.656   1.717 -0.3707  0.8073 -0.1077
18830TIP3    H277906   4.176   3.661   1.638  0.4318 -1.6379  0.9715
18831TIP3   OH277907   2.536   1.822   2.691  0.0523  0.3535  0.2387
18831TIP3    H177908   2.524   1.732   2.720 -1.2321  0.5829  0.4982
18831TIP3    H277909   2.487   1.827   2.608  0.9087  0.5675 -0.2657
18832TIP3   OH277910   1.767   2.465   4.421 -0.0816  0.4079 -0.0521
18832TIP3    H177911   1.787   2.382   4.464 -0.9569  0.8144  1.1756
18832TIP3    H277912   1.842   2.480   4.363  0.8817 -0.4139  0.9350
18833TIP3   OH277913   1.138   6.486  10.358  0.0682  0.1202 -0.1938
18833TIP3    H177914   1.125   6.499  10.452 -1.4748 -0.6784 -0.2645
18833TIP3    H277915   1.180   6.566  10.328  0.1976  0.5605  1.0999
18834TIP3   OH277916   1.160   2.878  13.058  0.3032 -0.2238  0.6617
18834TIP3    H177917   1.161   2.816  13.131 -1.5097 -0.5292  0.4692
18834TIP3    H277918   1.237   2.855  13.006 -0.4583 -2.5524  0.4541
18835TIP3   OH277919   1.460   0.462   0.100  0.1022  0.3947  0.5004
18835TIP3    H177920   1.370   0.478   0.127 -1.5929 -1.4168 -3.2841
18835TIP3    H277921   1.493   0.398   0.163 -1.5108  0.5265  1.5295
18836TIP3   OH277922   2.680   3.561   3.548 -0.3254  0.2485  0.4079
18836TIP3    H177923   2.631   3.643   3.560 -0.4105  0.1320  0.8776
18836TIP3    H277924   2.678   3.546   3.454 -1.7581 -0.1055  0.4733
18837TIP3   OH277925   4.961   5.454  13.310  0.4807  0.5137  0.6080
18837TIP3    H177926   4.901   5.506  13.256  1.0983  0.6254  0.0089
18837TIP3    H277927   5.033   5.514  13.329  0.9688  0.0290  0.3186
18838TIP3   OH277928   5.892   1.065   1.059  0.2367  0.2457  0.0082
18838TIP3    H177929   5.850   1.127   1.119 -1.3317 -0.8115  0.0753
18838TIP3    H277930   5.859   0.979   1.088  0.9905 -0.4550 -1.1577
18839TIP3   OH277931   1.793   6.380  16.775  0.4114  0.0792 -0.1056
18839TIP3    H177932   1.812   6.374  16.682  1.5426 -2.1491  0.1780
18839TIP3    H277933   1.877   6.364  16.818 -0.6568 -2.7453  1.2399
18840TIP3   OH277934   3.714   2.355   3.304  0.5439 -0.0971  0.0880
18840TIP3    H177935   3.797   2.401   3.314  0.8760 -0.5679 -0.4545
18840TIP3    H277936   3.672   2.362   3.390  1.8740 -1.2435  0.8716
18841TIP3   OH277937   2.710   6.735  14.335  0.1155  0.4324  0.1588
18841TIP3    H177938   2.764   6.808  14.306  0.9814 -0.3367 -0.2067
18841TIP3    H277939   2.747   6.658  14.290 -1.6158 -0.0425 -0.5564
18842TIP3   OH277940   1.029   2.316  17.127  0.4776 -0.1586  0.1861
18842TIP3    H177941   1.090   2.389  17.134  1.4658 -0.9019 -0.4366
18842TIP3    H277942   1.056   2.255  17.196  1.0781 -0.9318 -0.7097
18843TIP3   OH277943   4.089   6.103   5.440  0.1340  0.5829 -0.1212
18843TIP3    H177944   4.077   6.196   5.459  1.2866  0.6866  0.1505
18843TIP3    H277945   4.170   6.080   5.485  0.2157 -0.3914 -0.7528
18844TIP3   OH277946   3.161   6.113  13.433  0.2067  0.1074  0.3825
18844TIP3    H177947   3.117   6.151  13.509  0.7917  3.1241 -0.6829
18844TIP3    H277948   3.108   6.140  13.358  2.2218  1.3482 -0.6717
18845TIP3   OH277949   5.315   3.216   4.720 -0.2652 -0.6298  0.4781
18845TIP3    H177950   5.410   3.220   4.735 -0.4771  0.9818  1.6091
18845TIP3    H277951   5.280   3.293   4.765 -2.0202 -0.6407 -0.7730
18846TIP3   OH277952   1.263   0.181  13.163 -0.3646  0.4257  0.0860
18846TIP3    H177953   1.287   0.273  13.152 -2.1842  0.7037 -2.6029
18846TIP3    H277954   1.216   0.178  13.246  0.1765  1.7875  0.4719
18847TIP3   OH277955   3.686   5.648  12.431 -0.5300  0.4628  0.3699
18847TIP3    H177956   3.620   5.579  12.440  0.7074 -0.6762  1.2757
18847TIP3    H277957   3.680   5.698  12.512 -0.2979  0.3420  0.4655
18848TIP3   OH277958   6.467   1.174  12.815 -0.2290  1.1241 -0.2597
18848TIP3    H177959   6.412   1.095  12.815  0.6187  0.5093 -1.0651
18848TIP3    H277960   6.413   1.240  12.772 -0.8704  0.9368  0.2329
18849TIP3   OH277961   4.735   6.711   0.743  0.0114  0.1163 -0.0267
18849TIP3    H177962   4.684   6.711   0.663  0.8024  2.5333 -0.6149
18849TIP3    H277963   4.671   6.726   0.813 -0.8165 -2.9503  0.0179
18850TIP3   OH277964   1.577   4.165   3.450 -0.0668  0.6520 -0.5242
18850TIP3    H177965   1.490   4.126   3.458 -0.5058  1.9234  1.9179
18850TIP3    H277966   1.607   4.176   3.540  2.7595  0.0755 -1.3018
18851TIP3   OH277967   2.476   4.008   5.790  0.1256 -0.1768  0.7811
18851TIP3    H177968   2.464   3.914   5.805 -1.7441  0.0254  0.7726
18851TIP3    H277969   2.392   4.038   5.755  0.7792  1.4584  0.5256
18852TIP3   OH277970   2.171   3.465  13.500  0.5552  0.1142 -0.3121
18852TIP3    H177971   2.192   3.460  13.407  0.2769  2.1099 -0.5217
18852TIP3    H277972   2.081   3.433  13.506  0.1961  0.9819 -0.9033
18853TIP3   OH277973   5.404   1.127  12.098 -0.0873  0.1367  0.5119
18853TIP3    H177974   5.374   1.121  12.007  1.0874 -1.6120  0.1712
18853TIP3    H277975   5.342   1.075  12.148 -1.5437  2.2306  1.0037
18854TIP3   OH277976   6.652   6.361  12.276 -0.8745  0.6047  0.0603
18854TIP3    H177977   6.603   6.363  12.194  0.5018  2.7939 -0.8020
18854TIP3    H277978   6.741   6.385  12.251 -0.0392 -0.2353  2.0028
18855TIP3   OH277979   5.687   2.094   3.006  0.3541 -0.2180 -0.5860
18855TIP3    H177980   5.778   2.094   2.978  0.7971  1.5809  0.6798
18855TIP3    H277981   5.656   2.182   2.986  0.0767  0.4880  2.4252
18856TIP3   OH277982   2.718   6.217  12.278 -0.0020 -0.4210  0.2139
18856TIP3    H177983   2.785   6.168  12.230  2.6645  3.4852 -0.6395
18856TIP3    H277984   2.751   6.219  12.368 -1.5715 -2.3386  0.8874
18857TIP3   OH277985   0.513   6.295   3.126 -0.6840 -0.1446  0.4151
18857TIP3    H177986   0.439   6.276   3.069 -0.1927 -2.0259  0.3443
18857TIP3    H277987   0.511   6.225   3.192 -0.2202  1.0035  1.6897
18858TIP3   OH277988   6.381   4.352  14.967 -0.3021 -0.3637 -0.1226
18858TIP3    H177989   6.351   4.299  15.041 -0.2944 -3.0272 -1.8996
18858TIP3    H277990   6.471   4.323  14.952 -0.1483  0.4808 -0.8770
18859TIP3   OH277991   5.398   0.077   1.102 -0.8260  0.0507 -0.0675
18859TIP3    H177992   5.443  -0.002   1.072 -0.7233  0.2396 -0.4224
18859TIP3    H277993   5.324   0.087   1.042  0.0607  1.0981 -1.0456
18860TIP3   OH277994   3.318   5.116  15.117 -0.3283 -0.0055  0.1360
18860TIP3    H177995   3.337   5.099  15.024 -0.6916  0.6773 -0.0723
18860TIP3    H277996   3.401   5.103  15.161  0.0825  0.6359 -0.4330
18861TIP3   OH277997   5.534   0.847   0.537 -0.3406  0.2025  0.1477
18861TIP3    H177998   5.614   0.847   0.589 -0.1958  1.5855 -0.0479
18861TIP3    H277999   5.472   0.899   0.589 -0.9614 -0.4263  0.0537
18862TIP3   OH278000   0.596   2.746  14.947  0.3607  0.1755 -0.1823
18862TIP3    H178001   0.617   2.838  14.932  1.2996  0.0768  0.4481
18862TIP3    H278002   0.508   2.735  14.910  0.0838  1.4085  0.0721
18863TIP3   OH278003   1.543   6.756   0.280  0.2523  0.3270 -0.2073
18863TIP3    H178004   1.626   6.770   0.327  0.4584  2.2962 -1.0940
18863TIP3    H278005   1.566   6.762   0.188 -0.7976  0.3386 -0.4796
18864TIP3   OH278006   0.720   2.680   6.053  0.2898 -0.0266  0.1228
18864TIP3    H178007   0.625   2.674   6.059  0.2533 -0.0453 -0.4050
18864TIP3    H278008   0.743   2.622   5.981  0.7718 -0.5731  0.7060
18865TIP3   OH278009   0.406   5.123   3.766 -0.2165  0.3364  0.7952
18865TIP3    H178010   0.433   5.131   3.674 -1.6219 -3.9649 -0.2377
18865TIP3    H278011   0.317   5.156   3.768 -0.2401  0.2894  0.5789
18866TIP3   OH278012   0.234   6.304  15.577  0.0277 -0.1426 -0.4038
18866TIP3    H178013   0.308   6.290  15.517 -0.2799  0.7357 -1.0141
18866TIP3    H278014   0.269   6.364  15.643 -1.1667  3.7499 -2.9612
18867TIP3   OH278015   6.277   6.364   1.354  0.1710 -0.6510  0.0980
18867TIP3    H178016   6.191   6.404   1.368  1.2583  1.0970  2.4386
18867TIP3    H278017   6.328   6.431   1.308  0.9451 -0.7459  0.7923
18868TIP3   OH278018   6.163   3.291  15.693 -0.5671  0.1477  0.0611
18868TIP3    H178019   6.124   3.252  15.615 -0.0245 -0.6385  0.1722
18868TIP3    H278020   6.149   3.385  15.683 -1.0310  0.0038 -0.6887
18869TIP3   OH278021   1.978   1.740  16.474 -0.8394  0.0260 -0.1488
18869TIP3    H178022   2.037   1.709  16.405 -2.9610  0.5743 -2.3350
18869TIP3    H278023   2.015   1.705  16.554  3.2935  1.5607 -1.1412
18870TIP3   OH278024   3.048   1.656  16.101 -0.1360  0.0426  0.4092
18870TIP3    H178025   2.978   1.693  16.154 -0.1870 -0.4620  0.7048
18870TIP3    H278026   3.062   1.569  16.138 -0.3659 -0.4355 -0.5922
18871TIP3   OH278027   3.109   0.874  12.086  0.2430 -0.6142 -0.2421
18871TIP3    H178028   3.151   0.951  12.126 -0.4973 -0.9216  1.1948
18871TIP3    H278029   3.176   0.806  12.090  0.2378 -0.5954  0.3738
18872TIP3   OH278030   4.218   4.064   2.821  0.1071 -0.4727 -0.3472
18872TIP3    H178031   4.206   3.989   2.764  0.6273 -1.7257  1.1074
18872TIP3    H278032   4.143   4.062   2.880  1.9535 -2.2836  2.2141
18873TIP3   OH278033   5.038   3.990  17.280 -0.3041 -0.0031 -0.4499
18873TIP3    H178034   5.052   3.972  17.187 -1.4129 -1.8704 -0.3002
18873TIP3    H278035   5.073   3.913  17.324 -0.7671  0.3843  0.6137
18874TIP3   OH278036   5.658   4.628  13.021  0.2076  0.3771 -0.3278
18874TIP3    H178037   5.609   4.590  13.093 -0.1636  1.6710  0.1374
18874TIP3    H278038   5.619   4.589  12.942 -0.5736  0.2742  0.0989
18875TIP3   OH278039   1.693   5.030  12.300  0.1044 -0.4445 -0.3619
18875TIP3    H178040   1.747   5.105  12.276 -0.8881  0.6330  0.6053
18875TIP3    H278041   1.755   4.962  12.325  1.0415  0.7089  0.5904
18876TIP3   OH278042   2.408   3.238   3.803 -0.6729 -0.1505 -0.1771
18876TIP3    H178043   2.488   3.226   3.855 -0.5791  0.9009 -0.0669
18876TIP3    H278044   2.402   3.159   3.750  0.2782 -0.3736  0.0356
18877TIP3   OH278045   5.727   6.687  11.887 -0.2482  0.1521  0.3642
18877TIP3    H178046   5.755   6.705  11.797  1.0457 -0.1299  0.6770
18877TIP3    H278047   5.715   6.773  11.926 -1.0357  0.2747 -0.1362
18878TIP3   OH278048   3.525   3.483  14.199 -0.0112  0.4258  0.1387
18878TIP3    H178049   3.507   3.392  14.173  0.7102 -0.2212  1.8204
18878TIP3    H278050   3.508   3.485  14.293  0.7827  1.8474  0.2724
18879TIP3   OH278051   5.423   3.360  15.235 -0.3457 -0.2445 -0.7875
18879TIP3    H178052   5.457   3.413  15.308 -0.8745 -1.1621  0.1524
18879TIP3    H278053   5.490   3.293  15.221  0.0413  0.2883 -1.5765
18880TIP3   OH278054   1.785   0.465   1.815 -0.4993 -0.1614  0.0290
18880TIP3    H178055   1.797   0.372   1.836 -1.8296 -0.0532  1.4957
18880TIP3    H278056   1.816   0.510   1.893 -0.0748  0.6352 -0.5907
18881TIP3   OH278057   3.999   1.589  16.942 -0.5588  0.7275 -0.0788
18881TIP3    H178058   3.936   1.658  16.962 -0.6883  0.8020 -0.7152
18881TIP3    H278059   3.981   1.566  16.851 -0.2704  0.1125  0.0106
18882TIP3   OH278060   6.163   0.415   4.124 -0.0332 -0.3655 -0.7874
18882TIP3    H178061   6.141   0.506   4.102 -0.0157 -0.4430 -1.1338
18882TIP3    H278062   6.100   0.363   4.076 -0.7355 -0.5120  0.2688
18883TIP3   OH278063   1.527   0.862   4.686  0.3371 -0.1117  0.1450
18883TIP3    H178064   1.451   0.807   4.707  0.7687 -0.3960  1.0021
18883TIP3    H278065   1.498   0.951   4.704 -0.0766 -0.1267 -0.4017
18884TIP3   OH278066   1.501   2.117   3.456 -0.0911  0.4827 -0.3402
18884TIP3    H178067   1.572   2.077   3.505  1.6600  2.9820 -0.6647
18884TIP3    H278068   1.539   2.139   3.370 -1.4897  1.0744 -0.8474
18885TIP3   OH278069   4.442   0.224  11.448 -0.0591 -0.2239 -0.2798
18885TIP3    H178070   4.424   0.136  11.414 -0.4125 -0.1588 -0.2646
18885TIP3    H278071   4.432   0.216  11.543 -1.3144  0.1035 -0.3599
18886TIP3   OH278072   0.420   1.713   1.981 -0.1848 -0.0224  0.1796
18886TIP3    H178073   0.429   1.804   2.010  0.6417 -0.1660  0.3994
18886TIP3    H278074   0.509   1.687   1.957 -0.6481 -0.2571 -1.4414
18887TIP3   OH278075   2.382   3.512   6.269 -0.4329  0.9550 -0.1838
18887TIP3    H178076   2.390   3.469   6.354 -0.3395  1.4237  0.0495
18887TIP3    H278077   2.464   3.561   6.260  0.8617 -1.3457 -1.8271
18888TIP3   OH278078   2.032   4.336   4.584  0.5595 -0.7166 -0.5535
18888TIP3    H178079   2.067   4.405   4.640  0.3462 -0.8263 -0.2849
18888TIP3    H278080   2.056   4.363   4.495  0.0429 -0.0472 -0.4899
18889TIP3   OH278081   2.612   5.142   0.639  0.1875 -0.3945 -0.0300
18889TIP3    H178082   2.619   5.206   0.568  2.6877 -0.3866  0.1454
18889TIP3    H278083   2.694   5.150   0.686  0.2088 -3.1443  0.5347
18890TIP3   OH278084   2.154   2.051  13.088  0.4025  0.6734 -0.0333
18890TIP3    H178085   2.181   1.965  13.120  2.1780  1.5671  0.9769
18890TIP3    H278086   2.182   2.052  12.996 -2.2567 -0.8567 -0.9832
18891TIP3   OH278087   3.587   3.806   2.589 -0.4634 -0.1218 -0.0730
18891TIP3    H178088   3.565   3.836   2.501 -1.3735 -2.7943 -0.8558
18891TIP3    H278089   3.551   3.873   2.647 -0.3318  1.4204 -1.6786
18892TIP3   OH278090   5.550   2.136   4.242 -0.0771 -0.6746 -0.0421
18892TIP3    H178091   5.489   2.162   4.173 -0.0899 -0.8725 -0.1044
18892TIP3    H278092   5.631   2.116   4.195  0.6880  1.5330  0.1895
18893TIP3   OH278093   0.514   2.171  12.552  0.0941  0.0115 -0.4070
18893TIP3    H178094   0.501   2.210  12.638  0.6563  1.9049 -1.1356
18893TIP3    H278095   0.467   2.087  12.556  1.3332 -0.6696  2.2193
18894TIP3   OH278096   4.909   3.887  17.034 -0.4256  0.8853 -0.8041
18894TIP3    H178097   4.924   3.843  16.950  1.5750 -0.3882  0.1611
18894TIP3    H278098   4.907   3.817  17.099 -0.4648  1.9611  0.4090
18895TIP3   OH278099   3.802   4.603   5.242  0.3745  0.9868 -0.1614
18895TIP3    H178100   3.861   4.664   5.287  2.6325 -0.2386 -1.2939
18895TIP3    H278101   3.798   4.635   5.152 -0.2556  0.7164 -0.2375
18896TIP3   OH278102   1.723   3.632  10.637 -0.8326  0.2401 -0.0235
18896TIP3    H178103   1.781   3.708  10.635 -0.5484  0.0301  0.2230
18896TIP3    H278104   1.649   3.657  10.582 -0.8582  0.7915  0.2595
18897TIP3   OH278105   1.920   4.474  13.358  0.3551  0.0391  1.2434
18897TIP3    H178106   1.891   4.551  13.408 -1.7278 -0.7420  1.3504
18897TIP3    H278107   1.839   4.440  13.319  1.6485 -0.3800 -1.2714
18898TIP3   OH278108   6.246   4.286  16.641 -0.0940  0.4743 -0.0328
18898TIP3    H178109   6.308   4.224  16.678  1.7235  2.1988 -0.0207
18898TIP3    H278110   6.276   4.301  16.552 -0.6026  1.2013 -0.0941
18899TIP3   OH278111   1.585   4.447   3.393 -0.2617 -0.1396 -0.0718
18899TIP3    H178112   1.514   4.498   3.431  0.2165  0.9768 -0.6285
18899TIP3    H278113   1.563   4.356   3.412 -1.6773  0.2115  0.0212
18900TIP3   OH278114   5.876   3.883  13.174  0.2458  0.1828  0.0734
18900TIP3    H178115   5.919   3.797  13.166 -1.5451 -0.6026 -2.2192
18900TIP3    H278116   5.835   3.881  13.261  1.9882 -0.3495  0.9420
18901TIP3   OH278117   2.859   6.373  15.388 -0.3985 -0.1860 -0.2889
18901TIP3    H178118   2.916   6.312  15.435 -0.4015 -0.1359 -0.2198
18901TIP3    H278119   2.815   6.319  15.322 -3.5595 -1.1657  2.4033
18902TIP3   OH278120   4.259   4.831  14.725  0.0801 -0.2486  0.0371
18902TIP3    H178121   4.189   4.766  14.715  0.1262 -0.2387 -0.3437
18902TIP3    H278122   4.315   4.818  14.649  0.4344 -0.1812  0.2850
18903TIP3   OH278123   1.687   4.708  14.994 -0.1618 -0.0475  0.7638
18903TIP3    H178124   1.767   4.723  15.044  0.1166  1.0476  0.0071
18903TIP3    H278125   1.624   4.771  15.029 -0.0153  0.6129 -0.1468
18904TIP3   OH278126   1.678   1.121  16.421  0.0804 -0.2728 -0.3590
18904TIP3    H178127   1.770   1.099  16.403 -0.5024 -2.4293 -1.0274
18904TIP3    H278128   1.682   1.190  16.487  2.1788 -0.6121 -0.0587
18905TIP3   OH278129   6.681   5.980  11.009  0.0882  0.1920 -0.2193
18905TIP3    H178130   6.650   5.913  11.069  2.1707 -1.1439 -0.5650
18905TIP3    H278131   6.651   5.951  10.923  0.4328  0.0410 -0.2901
18906TIP3   OH278132   4.127   3.880  14.009 -0.1854 -0.3909 -0.1871
18906TIP3    H178133   4.146   3.883  13.915  0.5950 -1.4925 -0.0930
18906TIP3    H278134   4.032   3.868  14.014 -0.3875  0.8174 -0.7955
18907TIP3   OH278135   0.568   5.188   2.714 -0.3394  0.4053  0.2920
18907TIP3    H178136   0.533   5.193   2.625  0.4447  0.4374 -0.0309
18907TIP3    H278137   0.575   5.279   2.742 -0.3564  0.4082  0.2874
18908TIP3   OH278138   0.876   5.802   6.374  0.4960 -0.1799  0.0198
18908TIP3    H178139   0.895   5.838   6.287  0.2191  0.1884  0.1082
18908TIP3    H278140   0.801   5.745   6.361  0.5797 -0.2812 -0.0187
18909TIP3   OH278141   3.084   3.424  16.942 -0.1580 -0.3916  0.2874
18909TIP3    H178142   3.012   3.400  16.999  0.2770  0.6352  1.3089
18909TIP3    H278143   3.108   3.513  16.969  1.0704 -0.4673 -0.4483
18910TIP3   OH278144   6.461   3.529   1.934  0.1330  0.1780 -0.4298
18910TIP3    H178145   6.482   3.617   1.963 -1.5268  0.1397  1.1233
18910TIP3    H278146   6.441   3.481   2.015  2.9793 -2.2662 -0.9884
18911TIP3   OH278147   6.058   0.757   0.427 -0.0127 -0.3921 -0.1979
18911TIP3    H178148   6.002   0.835   0.423 -0.2285 -0.5337  0.0476
18911TIP3    H278149   6.057   0.732   0.520  1.1650  0.1271 -0.0222
18912TIP3   OH278150   0.024   4.341  12.238 -0.0645 -0.0792 -0.1731
18912TIP3    H178151  -0.006   4.422  12.281 -0.1250 -1.0215  1.6597
18912TIP3    H278152   0.076   4.297  12.304  2.2560 -0.3266 -2.0327
18913TIP3   OH278153   5.062   5.023   6.097  0.6716 -0.4708  0.4492
18913TIP3    H178154   5.068   5.115   6.122 -0.0521 -0.4922  0.7275
18913TIP3    H278155   5.099   4.974   6.171  1.4966 -0.3906  0.1008
18914TIP3   OH278156   3.702   5.489  10.423 -0.2654 -0.3099  0.0574
18914TIP3    H178157   3.732   5.543  10.497 -0.1588 -0.3785  0.0660
18914TIP3    H278158   3.778   5.485  10.365 -0.4586  0.0236 -0.2184
18915TIP3   OH278159   1.590   6.588  12.757  0.1890 -0.1753  0.1590
18915TIP3    H178160   1.555   6.649  12.823  1.7432  1.0838 -0.1216
18915TIP3    H278161   1.639   6.643  12.697  0.6444 -1.5859 -0.8160
18916TIP3   OH278162   0.617   2.996  15.307 -0.2122 -0.3663 -0.5921
18916TIP3    H178163   0.575   3.033  15.385 -2.7646 -0.4196 -1.8593
18916TIP3    H278164   0.704   2.971  15.338 -0.5836  0.9908  1.8549
18917TIP3   OH278165   3.130   3.225  16.742  0.3368  0.3497 -0.0661
18917TIP3    H178166   3.130   3.280  16.820  1.8244  0.7832 -0.3246
18917TIP3    H278167   3.174   3.145  16.769 -0.6171 -0.1686 -0.0406
18918TIP3   OH278168   3.230   2.268  16.282  0.0188 -0.2032  0.5618
18918TIP3    H178169   3.190   2.307  16.360  0.6919 -1.5146  1.5965
18918TIP3    H278170   3.162   2.274  16.215 -0.3205  1.6234  0.9945
18919TIP3   OH278171   0.415   6.256   5.045 -0.2109  0.4405 -0.0555
18919TIP3    H178172   0.426   6.172   5.001 -4.2345  0.0460 -0.6798
18919TIP3    H278173   0.412   6.235   5.138  0.3204  0.1412 -0.1036
18920TIP3   OH278174   1.983   2.712  14.997  0.3678 -0.1603 -0.6643
18920TIP3    H178175   1.903   2.665  14.974 -0.2934  0.7301 -0.2265
18920TIP3    H278176   1.992   2.698  15.091  0.7310 -0.2568 -0.7124
18921TIP3   OH278177   4.280   5.332   4.755 -0.3145  0.3627 -0.0017
18921TIP3    H178178   4.320   5.410   4.715 -0.9643  1.2859  1.0842
18921TIP3    H278179   4.224   5.296   4.686 -1.1571  1.7305 -0.0836
18922TIP3   OH278180   2.437   0.688  15.965  0.5547  0.4845 -0.3704
18922TIP3    H178181   2.366   0.739  15.926  0.0625 -0.4331 -0.6997
18922TIP3    H278182   2.487   0.752  16.016 -0.7300  1.0813  0.1900
18923TIP3   OH278183   0.783   2.987   4.430 -0.3105 -0.3414 -0.4250
18923TIP3    H178184   0.764   2.973   4.338  0.5946  0.1206 -0.7026
18923TIP3    H278185   0.847   2.919   4.452  0.7423  0.5559 -0.6044
18924TIP3   OH278186   1.160   2.828   5.680  0.3513  0.2616  0.6925
18924TIP3    H178187   1.140   2.853   5.770 -2.4304  0.6241  0.0497
18924TIP3    H278188   1.097   2.759   5.659  2.7937 -1.9016 -0.1333
18925TIP3   OH278189   6.484   2.311  16.503  0.2245 -1.0830 -0.0456
18925TIP3    H178190   6.561   2.362  16.528 -0.5313  0.3777 -0.5628
18925TIP3    H278191   6.439   2.366  16.439 -1.5430 -1.6459  0.6552
18926TIP3   OH278192   2.125   2.217  15.368  0.0959  0.0329 -0.2102
18926TIP3    H178193   2.117   2.131  15.409 -2.3643  1.4995  2.7853
18926TIP3    H278194   2.043   2.229  15.320  0.3094  0.8067 -0.3995
18927TIP3   OH278195   0.530   4.928  12.458 -0.2767 -0.2006 -0.0792
18927TIP3    H178196   0.602   4.985  12.485 -0.7898  0.6450 -0.4574
18927TIP3    H278197   0.573   4.850  12.424  0.4368 -0.0695  0.4877
18928TIP3   OH278198   0.705   0.648  16.394 -0.0247 -0.3244 -0.0036
18928TIP3    H178199   0.724   0.679  16.482  0.3772  0.1790 -0.2602
18928TIP3    H278200   0.767   0.696  16.338 -2.4335  1.8874 -0.9627
18929TIP3   OH278201   1.176   6.138  13.627 -1.0403  0.1593 -0.0029
18929TIP3    H178202   1.178   6.080  13.703 -2.8121  1.9710  1.5353
18929TIP3    H278203   1.260   6.183  13.629 -0.3638 -1.0532 -0.2017
18930TIP3   OH278204   2.838   4.132   4.354  0.0376 -0.7178  0.0675
18930TIP3    H178205   2.796   4.217   4.369 -0.3640 -1.1403  1.5065
18930TIP3    H278206   2.794   4.096   4.277  1.2447  0.9951 -1.5256
18931TIP3   OH278207   5.873   6.084  13.287  0.1158  0.2702 -0.0439
18931TIP3    H178208   5.792   6.127  13.315  0.4195  1.3369 -0.7378
18931TIP3    H278209   5.860   6.069  13.193 -0.1259 -1.5120  0.2388
18932TIP3   OH278210   3.979   6.581  11.661  0.1547  0.2531  0.2589
18932TIP3    H178211   3.906   6.621  11.710 -0.0725 -0.4328  0.4923
18932TIP3    H278212   4.045   6.650  11.656 -0.3701  0.7709  0.3557
18933TIP3   OH278213   3.523   2.120   0.380  0.1026  0.8152 -0.4067
18933TIP3    H178214   3.601   2.143   0.328 -0.1810 -0.7373 -1.5955
18933TIP3    H278215   3.559   2.078   0.458  0.5410 -2.4176 -2.1790
18934TIP3   OH278216   2.544   5.449  16.176 -0.4520 -0.0876  0.5964
18934TIP3    H178217   2.531   5.363  16.136  0.7890  0.1929 -0.4810
18934TIP3    H278218   2.635   5.448  16.206  0.4435  1.7041 -1.7388
18935TIP3   OH278219   1.678   6.205   4.521  0.3060 -0.5458 -0.0472
18935TIP3    H178220   1.591   6.210   4.561  0.4495  0.4775  0.1580
18935TIP3    H278221   1.733   6.167   4.589  0.3581  0.3553  0.4361
18936TIP3   OH278222   5.233   4.104  15.498 -0.3069  0.0125 -0.0358
18936TIP3    H178223   5.154   4.149  15.526 -0.7375  0.1637 -1.4080
18936TIP3    H278224   5.305   4.153  15.538 -0.6828  2.5949 -2.2221
18937TIP3   OH278225   0.878   1.317  17.147  0.2581 -0.3518 -0.2344
18937TIP3    H178226   0.956   1.314  17.203 -1.1920  0.6536  2.0158
18937TIP3    H278227   0.818   1.254  17.187 -1.0017  0.7502 -0.3241
18938TIP3   OH278228   6.216   0.179   3.268 -0.5170 -0.1963 -0.4656
18938TIP3    H178229   6.221   0.274   3.273  0.3613 -0.2440 -0.2232
18938TIP3    H278230   6.305   0.152   3.246 -1.1313 -0.8600 -2.3776
18939TIP3   OH278231   1.141   5.247  13.411 -0.0451  0.1728  0.1723
18939TIP3    H178232   1.180   5.331  13.389  2.6942 -0.2365  2.7919
18939TIP3    H278233   1.192   5.216  13.486 -1.3514 -3.5194 -0.2563
18940TIP3   OH278234   0.244   1.091   0.976 -0.0429 -0.1093 -0.0745
18940TIP3    H178235   0.336   1.072   0.993  0.2540 -0.2406 -1.7387
18940TIP3    H278236   0.220   1.035   0.903 -0.6927  1.8020 -1.4131
18941TIP3   OH278237   6.283   4.534   0.516 -0.0305  0.2917  0.7023
18941TIP3    H178238   6.189   4.526   0.533 -0.2419  0.2191 -0.4323
18941TIP3    H278239   6.315   4.444   0.517 -0.0918  0.2671  0.4436
18942TIP3   OH278240   1.572   2.774  15.943  0.2088 -1.1925  0.1467
18942TIP3    H178241   1.479   2.774  15.966  0.0838 -3.3671 -0.1603
18942TIP3    H278242   1.603   2.860  15.971 -2.1928  0.1854 -1.0827
18943TIP3   OH278243   0.418   1.061  13.276  1.0217 -0.2865 -0.6499
18943TIP3    H178244   0.386   1.130  13.218  1.2367 -0.6177 -1.1613
18943TIP3    H278245   0.411   0.981  13.225 -0.4049 -0.8459  0.3726
18944TIP3   OH278246   0.635   5.556  15.538 -0.2292  0.0531  0.0758
18944TIP3    H178247   0.558   5.554  15.482 -0.9309 -1.8437  1.0295
18944TIP3    H278248   0.702   5.509  15.488 -0.7089 -1.2147  0.6064
18945TIP3   OH278249   3.970   0.959   5.459 -0.1454  0.4312  0.1635
18945TIP3    H178250   3.983   1.035   5.403  0.4497  0.3726  0.2152
18945TIP3    H278251   3.931   0.893   5.402 -0.8589  0.8371  0.1689
18946TIP3   OH278252   3.778   2.032  11.760  0.1792  0.3718  0.3825
18946TIP3    H178253   3.757   1.992  11.675 -0.5427  1.1871  0.1575
18946TIP3    H278254   3.704   2.090  11.778  0.4789  0.4529  1.4258
18947TIP3   OH278255   0.511   4.022  12.457 -0.0803  0.6675 -0.3853
18947TIP3    H178256   0.513   4.117  12.466 -2.6638  0.8087 -0.3667
18947TIP3    H278257   0.576   4.002  12.390  1.8512  2.2011  0.9304
18948TIP3   OH278258   2.445   2.183  12.456  0.3947  0.3545 -0.2391
18948TIP3    H178259   2.496   2.102  12.452  0.2243  0.1470  1.1832
18948TIP3    H278260   2.480   2.237  12.385 -0.3798 -1.4396 -2.0673
18949TIP3   OH278261   5.751   1.677  13.215  0.2988 -0.0161  0.2100
18949TIP3    H178262   5.706   1.674  13.131 -0.0398  0.1819  0.3832
18949TIP3    H278263   5.831   1.626  13.201  0.6229  0.6492 -0.4598
18950TIP3   OH278264   5.979   2.699  16.662 -0.0196 -0.0213 -0.1051
18950TIP3    H178265   5.906   2.639  16.677  0.2469 -0.0834  1.0255
18950TIP3    H278266   6.040   2.649  16.608 -0.3778 -0.3148 -0.2400
18951TIP3   OH278267   3.725   0.279   3.314 -0.3619  0.2446 -0.2691
18951TIP3    H178268   3.689   0.191   3.329  0.7377  0.1059  2.0459
18951TIP3    H278269   3.652   0.338   3.332 -0.5664 -0.1462  0.2156
18952TIP3   OH278270   3.423   4.625   4.361  0.1237 -0.2137  0.3843
18952TIP3    H178271   3.356   4.586   4.305  0.1473  2.2073 -1.5040
18952TIP3    H278272   3.378   4.697   4.406  1.3125  1.2328 -0.6609
18953TIP3   OH278273   2.459   4.490  14.691  0.0850 -0.6026 -0.3309
18953TIP3    H178274   2.490   4.533  14.611 -0.5502 -0.3516 -0.4486
18953TIP3    H278275   2.462   4.396  14.670  0.1603 -0.5505 -0.5592
18954TIP3   OH278276   3.766   1.055  17.125 -0.8345 -0.4235  0.0198
18954TIP3    H178277   3.734   1.123  17.184  0.2228 -0.9430  1.2294
18954TIP3    H278278   3.687   1.008  17.098 -1.4126  0.2881  0.4164
18955TIP3   OH278279   1.151   0.399  14.347  0.2655 -0.0606 -0.3622
18955TIP3    H178280   1.112   0.362  14.427 -0.9702 -1.0234 -1.3641
18955TIP3    H278281   1.119   0.342  14.277 -2.6159  3.3943 -2.1733
18956TIP3   OH278282   5.628   2.951  17.064  0.3385 -0.0962  0.1712
18956TIP3    H178283   5.644   2.979  17.154 -3.2742 -0.7977  1.2237
18956TIP3    H278284   5.665   2.863  17.060  1.6429  0.4127  0.5226
18957TIP3   OH278285   2.197   2.981  17.286  0.3569  0.3353 -0.1102
18957TIP3    H178286   2.179   2.918  17.356 -2.1622 -0.3658 -1.2482
18957TIP3    H278287   2.184   2.931  17.205 -0.4182  1.9600 -1.0474
18958TIP3   OH278288   4.547   3.491  16.455 -0.1745 -0.4570 -0.2117
18958TIP3    H178289   4.546   3.572  16.507  1.1089 -0.2811 -0.4107
18958TIP3    H278290   4.553   3.421  16.519 -1.5648 -0.4337 -0.0229
18959TIP3   OH278291   1.612   4.706   0.860  0.2456 -0.4549 -0.9070
18959TIP3    H178292   1.605   4.751   0.776  0.5477  0.3999 -0.4937
18959TIP3    H278293   1.574   4.768   0.923 -1.0448 -1.5515 -0.5577
18960TIP3   OH278294   5.248   2.960  14.529 -0.5976  0.0679 -0.2303
18960TIP3    H178295   5.239   3.037  14.471 -1.6343  2.2682  2.6026
18960TIP3    H278296   5.159   2.927  14.537 -0.8370  1.0488  1.5950
18961TIP3   OH278297   2.807   4.609   4.278  0.2260  0.2591  0.7936
18961TIP3    H178298   2.861   4.656   4.341  0.6278 -0.3658  0.9294
18961TIP3    H278299   2.744   4.560   4.332  0.7240 -0.4638  0.7324
18962TIP3   OH278300   1.724   1.378   5.903  0.1841  0.2084  0.3185
18962TIP3    H178301   1.793   1.324   5.865 -0.6599 -0.8238  0.2278
18962TIP3    H278302   1.759   1.467   5.900  1.3278 -0.2454 -0.1300
18963TIP3   OH278303   0.408   6.395   1.517  0.3197  0.6988  0.4382
18963TIP3    H178304   0.375   6.308   1.540 -0.1220  0.7574  0.0378
18963TIP3    H278305   0.423   6.438   1.602 -1.4658  0.9855  0.6416
18964TIP3   OH278306   3.739   6.617  11.449 -0.3084  0.0499 -0.3707
18964TIP3    H178307   3.706   6.633  11.537 -2.0956  0.7565 -1.1164
18964TIP3    H278308   3.681   6.549  11.414  1.2765 -1.2573 -0.5278
18965TIP3   OH278309   2.906   3.337  15.771  0.1940  0.2837  0.0031
18965TIP3    H178310   2.994   3.299  15.768 -0.6215 -1.7596  0.3463
18965TIP3    H278311   2.848   3.262  15.781 -1.6728  1.4995 -1.0843
18966TIP3   OH278312   6.322   6.212  15.004 -0.1368  0.1223  0.1440
18966TIP3    H178313   6.355   6.255  15.082 -1.0109 -0.0196  0.6068
18966TIP3    H278314   6.369   6.254  14.932  0.3896  0.5320  0.7145
18967TIP3   OH278315   4.323   4.958  15.582  0.4841  0.1917 -0.7223
18967TIP3    H178316   4.408   4.916  15.571  0.5222  0.1340 -0.2308
18967TIP3    H278317   4.342   5.042  15.624  0.1873 -0.4467  0.7556
18968TIP3   OH278318   6.374   0.148  12.811 -0.1130 -0.0596  0.1163
18968TIP3    H178319   6.329   0.207  12.871 -0.3757  0.2503 -0.3767
18968TIP3    H278320   6.466   0.152  12.837 -0.0323  1.0388 -0.2895
18969TIP3   OH278321   5.904   5.788  13.545 -0.0313  0.9297  0.3771
18969TIP3    H178322   5.909   5.875  13.586 -1.0199 -0.1540  2.9966
18969TIP3    H278323   5.818   5.755  13.569  1.0995 -1.5957  1.2286
18970TIP3   OH278324   1.349   1.366   3.577  0.0209  0.3093 -0.1827
18970TIP3    H178325   1.357   1.325   3.663  0.9824  2.2870  0.7082
18970TIP3    H278326   1.437   1.364   3.541 -0.4255 -0.7615 -1.2897
18971TIP3   OH278327   0.186   6.741  16.502 -0.5247 -0.5347 -0.4278
18971TIP3    H178328   0.153   6.710  16.418  0.5548 -1.7139 -0.4367
18971TIP3    H278329   0.231   6.823  16.481 -2.2208  0.3790 -0.6219
18972TIP3   OH278330   1.601   1.022  12.077  0.5073 -0.2189 -0.0160
18972TIP3    H178331   1.600   1.088  12.146  1.6697  1.8926 -1.8736
18972TIP3    H278332   1.523   0.969  12.093 -0.6397  1.7554  1.4305
18973TIP3   OH278333   3.279   3.383  12.718 -0.2669  0.1940  0.0877
18973TIP3    H178334   3.268   3.475  12.693  0.0640  0.0871 -0.4805
18973TIP3    H278335   3.234   3.375  12.802 -1.5130  0.5634 -0.5064
18974TIP3   OH278336   4.300   3.620   4.859 -0.1318 -0.5919 -0.2137
18974TIP3    H178337   4.321   3.696   4.914  0.9995 -0.9407 -0.1239
18974TIP3    H278338   4.385   3.592   4.825 -0.6488 -1.2743 -0.9705
18975TIP3   OH278339   1.340   1.125  15.426  0.0818 -0.1671  0.7217
18975TIP3    H178340   1.261   1.093  15.469  0.0770  0.3339  1.1025
18975TIP3    H278341   1.359   1.208  15.471 -0.3822  0.7840 -0.7695
18976TIP3   OH278342   1.428   4.066  11.048 -0.1273 -0.0470 -0.1102
18976TIP3    H178343   1.411   4.008  10.974  0.1562  0.4176 -0.5489
18976TIP3    H278344   1.376   4.030  11.119 -1.1909  0.0631 -0.8093
18977TIP3   OH278345   0.912   0.870  15.200  0.1143  0.3512  0.3617
18977TIP3    H178346   0.861   0.857  15.120  0.3371  1.2415  0.0636
18977TIP3    H278347   0.846   0.878  15.269 -0.1008  0.1596  0.1806
18978TIP3   OH278348   5.396   5.517   1.284 -0.0091  0.1934  0.4511
18978TIP3    H178349   5.449   5.596   1.288 -0.9100  0.7766  1.2490
18978TIP3    H278350   5.426   5.473   1.204 -0.1438  1.8145 -0.5483
18979TIP3   OH278351   1.643   5.337  12.482 -0.2531 -0.1023 -0.1978
18979TIP3    H178352   1.665   5.328  12.389  0.5002  0.3184 -0.0718
18979TIP3    H278353   1.563   5.286  12.493 -0.5711  0.1656 -1.1564
18980TIP3   OH278354   3.651   3.210  12.146  0.5746  0.8177 -0.2553
18980TIP3    H178355   3.615   3.181  12.230 -0.5736  4.0362  0.5104
18980TIP3    H278356   3.728   3.155  12.132 -0.8345 -1.7998  1.3970
18981TIP3   OH278357   3.027   0.573   2.159 -0.0577  0.3018 -0.4925
18981TIP3    H178358   3.024   0.533   2.246 -1.5926 -0.9386 -1.0688
18981TIP3    H278359   3.059   0.503   2.102  0.1887  0.8651 -1.0574
18982TIP3   OH278360   5.408   1.917   6.588  0.0715  0.3220 -0.5749
18982TIP3    H178361   5.432   1.940   6.498 -1.5435  0.0255 -1.1126
18982TIP3    H278362   5.467   1.969   6.643  1.2990  0.2624 -1.7911
18983TIP3   OH278363   5.258   1.883   2.871  0.5411 -0.3343 -0.6640
18983TIP3    H178364   5.268   1.825   2.946  0.3999 -0.3424 -0.6500
18983TIP3    H278365   5.304   1.963   2.896 -1.1001  0.3944  0.2335
18984TIP3   OH278366   3.261   1.667  12.224 -0.7561 -0.3555 -0.1102
18984TIP3    H178367   3.275   1.745  12.169 -0.2185  0.5617  1.2685
18984TIP3    H278368   3.315   1.682  12.301  0.1650 -2.6122 -0.2476
18985TIP3   OH278369   5.772   6.274   5.555  0.5191  0.8211  0.3779
18985TIP3    H178370   5.841   6.337   5.574  0.8057  0.4688  0.5211
18985TIP3    H278371   5.792   6.199   5.612  0.9776  0.0434 -0.7772
18986TIP3   OH278372   3.516   1.707   3.773 -0.1402 -0.0734  0.4614
18986TIP3    H178373   3.541   1.624   3.813 -1.7394 -0.7241  0.2116
18986TIP3    H278374   3.448   1.742   3.831  1.0487  1.4669  0.9816
18987TIP3   OH278375   5.365   4.381   4.177  0.4547 -0.2205 -0.5462
18987TIP3    H178376   5.395   4.375   4.267  0.2153  1.2506 -0.3497
18987TIP3    H278377   5.287   4.326   4.173  0.3285 -0.0922  0.1916
18988TIP3   OH278378   3.345   2.976   0.759  0.0730 -0.3307 -0.0594
18988TIP3    H178379   3.299   2.930   0.689  1.1490  0.2428 -1.1626
18988TIP3    H278380   3.300   3.061   0.766  0.1274 -0.2903 -0.2146
18989TIP3   OH278381   3.610   2.131   4.395 -0.7515 -0.2169 -0.0955
18989TIP3    H178382   3.604   2.160   4.304  0.6883  1.1728  0.2179
18989TIP3    H278383   3.679   2.065   4.395 -0.8969 -0.3718 -0.0315
18990TIP3   OH278384   5.307   3.663   2.242  0.3618 -0.2441  0.0023
18990TIP3    H178385   5.345   3.612   2.170 -0.9517 -1.5562  0.2020
18990TIP3    H278386   5.248   3.725   2.198  0.9246  0.1812 -0.1581
18991TIP3   OH278387   4.160   2.173   4.767  0.6564  0.0923 -0.7259
18991TIP3    H178388   4.195   2.104   4.711  1.9117 -0.6150  0.8488
18991TIP3    H278389   4.102   2.128   4.827 -0.1608  0.7423 -1.0119
18992TIP3   OH278390   3.286   0.523   0.954 -0.0355  0.3192  0.0839
18992TIP3    H178391   3.198   0.509   0.988  0.4278 -1.4225  0.6763
18992TIP3    H278392   3.281   0.605   0.906 -2.5959 -0.9381 -1.9738
18993TIP3   OH278393   1.687   4.801   5.351  0.0704  0.6043 -0.2675
18993TIP3    H178394   1.694   4.714   5.390 -2.3700  0.6289  0.3849
18993TIP3    H278395   1.745   4.799   5.275 -1.6974 -2.4595 -1.7237
18994TIP3   OH278396   4.384   3.093   2.521 -0.5051 -0.1132  0.0876
18994TIP3    H178397   4.317   3.131   2.577 -0.9046 -0.7660  0.0622
18994TIP3    H278398   4.366   3.130   2.434 -0.4528  0.1845  0.2026
18995TIP3   OH278399   6.506   2.830   3.363  0.2051 -0.7531 -0.7100
18995TIP3    H178400   6.546   2.907   3.323 -0.9310 -0.5560 -1.5310
18995TIP3    H278401   6.546   2.824   3.450  0.5497  0.5646 -0.7576
18996TIP3   OH278402   1.111   4.898   5.833 -0.8896 -0.2260 -0.0289
18996TIP3    H178403   1.206   4.909   5.839 -0.8969  0.0409 -0.3360
18996TIP3    H278404   1.076   4.962   5.895 -0.9236  1.3828 -1.6029
18997TIP3   OH278405   0.842   2.490   4.441 -0.4175 -0.0489  0.0206
18997TIP3    H178406   0.831   2.560   4.506 -0.0026 -0.7728  0.9045
18997TIP3    H278407   0.798   2.415   4.480 -0.2310 -0.4737 -0.5856
18998TIP3   OH278408   1.613   6.533  13.117 -0.0957  0.2291  0.0311
18998TIP3    H178409   1.617   6.473  13.042 -0.8109  0.3377 -0.0974
18998TIP3    H278410   1.582   6.479  13.190  0.2894  0.2001  0.1779
18999TIP3   OH278411   1.527   2.016  14.680  0.9259 -0.4290  0.1864
18999TIP3    H178412   1.578   1.935  14.674  0.0761 -0.9422 -0.3304
18999TIP3    H278413   1.449   1.991  14.729  1.0309  0.2827  0.7272
19000TIP3   OH278414   1.988   3.078  15.853 -0.2340 -0.2477 -0.2049
19000TIP3    H178415   2.002   3.022  15.930 -1.7310  1.4079  1.3641
19000TIP3    H278416   2.045   3.154  15.868 -0.2486 -0.0772 -0.9592
19001TIP3   OH278417   2.647   0.865   1.222  0.1385  0.8667  0.1410
19001TIP3    H178418   2.597   0.787   1.245  1.9962 -0.2098  0.8025
19001TIP3    H278419   2.589   0.938   1.241 -1.3178 -0.3210  0.4185
19002TIP3   OH278420   0.945   6.483   4.796 -0.4120 -0.2199 -0.5623
19002TIP3    H178421   0.983   6.519   4.876  0.9527 -1.5894 -0.5343
19002TIP3    H278422   0.863   6.443   4.825 -0.1213 -0.3613  0.1036
19003TIP3   OH278423   3.006   4.614   5.570  0.3147 -0.1850 -0.0455
19003TIP3    H178424   3.013   4.701   5.609  0.4004  0.9830 -2.4412
19003TIP3    H278425   3.097   4.583   5.564  0.4069  0.1325 -0.3393
19004TIP3   OH278426   3.183   0.125  13.111  0.3445 -0.0731  0.1986
19004TIP3    H178427   3.170   0.215  13.141 -0.6408  0.0463 -0.5452
19004TIP3    H278428   3.270   0.102  13.144  1.9908  2.1920 -2.1107
19005TIP3   OH278429   5.139   0.163  14.343  0.0240 -0.2781 -0.0579
19005TIP3    H178430   5.148   0.082  14.394 -0.8370 -0.3665 -0.0276
19005TIP3    H278431   5.125   0.231  14.408  1.2566 -0.0110 -0.0552
19006TIP3   OH278432   5.906   1.835  16.453  0.1473  0.3824  0.6165
19006TIP3    H178433   5.967   1.799  16.388  0.3009  1.8300 -0.0681
19006TIP3    H278434   5.931   1.927  16.462 -0.4860  0.4416  2.0398
19007TIP3   OH278435   4.694   6.709  10.483  0.3209 -1.0251  0.2135
19007TIP3    H178436   4.756   6.636  10.478  0.2997 -1.2872  2.6056
19007TIP3    H278437   4.746   6.785  10.457  0.3949 -1.7724 -2.1331
19008TIP3   OH278438   3.106   0.240  16.776 -0.2335 -0.4999 -0.0144
19008TIP3    H178439   3.198   0.253  16.801 -0.6021  0.9030  0.6996
19008TIP3    H278440   3.104   0.257  16.682 -0.6787  5.6758  0.7499
19009TIP3   OH278441   2.107   4.303   4.910 -0.1795  0.0563 -0.6848
19009TIP3    H178442   2.129   4.362   4.982 -1.8778  0.1178 -0.1776
19009TIP3    H278443   2.140   4.348   4.832  0.7398  0.4811 -0.0785
19010TIP3   OH278444   4.481   2.031  12.506 -0.1125  0.6632  0.9180
19010TIP3    H178445   4.547   2.020  12.574  0.6972  0.9634  0.2070
19010TIP3    H278446   4.413   2.084  12.547  0.9217  1.8752  1.1563
19011TIP3   OH278447   0.891   3.561   2.375  0.5220  0.4339 -0.2900
19011TIP3    H178448   0.961   3.552   2.311  2.2924  2.2471  1.2762
19011TIP3    H278449   0.896   3.481   2.427  1.2043  0.3989 -0.3982
19012TIP3   OH278450   6.568   5.320   4.439  0.2222  0.2410 -0.2602
19012TIP3    H178451   6.551   5.412   4.416  1.1203  0.5682  0.3191
19012TIP3    H278452   6.496   5.297   4.498 -0.5402  0.2658 -1.1641
19013TIP3   OH278453   3.779   1.602  16.453  0.5890 -0.0921 -0.4369
19013TIP3    H178454   3.694   1.615  16.410  2.0210  0.7877 -3.2677
19013TIP3    H278455   3.774   1.653  16.533 -0.6478  2.1950 -1.8781
19014TIP3   OH278456   4.363   5.490  11.536  0.5413  0.4926  0.1655
19014TIP3    H178457   4.397   5.412  11.492 -1.0706  0.6308 -1.4090
19014TIP3    H278458   4.291   5.458  11.590 -1.3103  1.0680 -1.8728
19015TIP3   OH278459   2.682   3.991   4.770  0.2134 -0.0470  0.5814
19015TIP3    H178460   2.594   3.984   4.734  0.5579 -1.4981 -0.0523
19015TIP3    H278461   2.739   3.979   4.694  0.9782  1.1321  0.9338
19016TIP3   OH278462   0.164   0.350   2.770 -0.2778  0.2696 -0.4256
19016TIP3    H178463   0.211   0.423   2.809  0.6948 -0.9342  0.7529
19016TIP3    H278464   0.092   0.332   2.830 -1.7722  1.5263 -1.7637
19017TIP3   OH278465   2.827   1.178   3.615 -0.5169  0.0069  0.3672
19017TIP3    H178466   2.741   1.162   3.576 -1.0269  1.0157  1.0308
19017TIP3    H278467   2.845   1.270   3.595 -0.3698  0.2832  1.6659
19018TIP3   OH278468   4.263   2.671  16.957 -0.1550 -0.2642  0.2793
19018TIP3    H178469   4.309   2.646  17.037  0.6602  0.8899  0.2017
19018TIP3    H278470   4.230   2.589  16.921 -0.4896 -0.8101  1.7623
19019TIP3   OH278471   3.929   1.206  15.959  0.3502  0.0590 -0.1551
19019TIP3    H178472   3.901   1.148  15.889 -0.3734 -0.4293  0.5260
19019TIP3    H278473   3.854   1.263  15.975  1.5920  2.4487 -2.0032
19020TIP3   OH278474   0.972   3.034  11.107  0.4277  0.4146 -0.3738
19020TIP3    H178475   0.925   2.984  11.174  0.5902  0.4204 -0.2551
19020TIP3    H278476   1.064   3.013  11.121  0.6896  2.1759  0.8855
19021TIP3   OH278477   0.076   2.944  16.676  0.0641 -0.9880  0.3353
19021TIP3    H178478   0.063   3.034  16.703 -0.1119 -0.9588  0.1603
19021TIP3    H278479   0.016   2.932  16.602 -0.1295 -1.3345  0.5425
19022TIP3   OH278480   5.174   1.240   1.460  0.3639  0.2513 -0.0251
19022TIP3    H178481   5.199   1.149   1.471  0.2890  0.3432  0.9489
19022TIP3    H278482   5.085   1.237   1.425 -0.7714 -0.0787  2.6330
19023TIP3   OH278483   2.477   5.027  14.957  0.3436  0.4527 -0.1144
19023TIP3    H178484   2.482   5.081  14.878 -1.4121  0.7723 -0.0541
19023TIP3    H278485   2.554   4.971  14.953  1.7767  2.3435 -0.6247
19024TIP3   OH278486   4.133   4.890  11.746  0.2107  0.6600  0.0722
19024TIP3    H178487   4.055   4.838  11.767  0.6762 -0.1572 -0.1599
19024TIP3    H278488   4.099   4.972  11.711 -0.5470  0.6498  0.7461
19025TIP3   OH278489   0.322   6.757   0.873  0.3646  0.6505  0.5212
19025TIP3    H178490   0.257   6.760   0.943 -0.2042  0.4047  0.0041
19025TIP3    H278491   0.403   6.732   0.918  0.3669  2.0241  1.3412
19026TIP3   OH278492   0.102   5.418   1.793 -0.2115  0.1267 -0.7468
19026TIP3    H178493   0.009   5.437   1.781 -0.4549 -0.4141  0.1289
19026TIP3    H278494   0.131   5.384   1.709 -0.6738  0.8233 -1.1931
19027TIP3   OH278495   1.032   2.013  11.807 -0.0743 -0.8773  0.1976
19027TIP3    H178496   1.094   2.016  11.880  0.5614  1.2129 -0.3666
19027TIP3    H278497   1.064   1.943  11.751  0.8138 -0.9316  0.7556
19028TIP3   OH278498   4.402   1.024   1.640 -0.8352 -0.5205  0.4346
19028TIP3    H178499   4.439   0.959   1.700 -1.4362 -0.0624  1.3175
19028TIP3    H278500   4.376   0.973   1.563  0.8055 -0.9796  0.1407
19029TIP3   OH278501   1.812   1.976  12.275 -0.2847 -0.0662  0.2625
19029TIP3    H178502   1.862   1.955  12.196 -1.2809  1.6006 -0.8846
19029TIP3    H278503   1.841   2.064  12.300  1.6799 -1.3889  3.1897
19030TIP3   OH278504   4.129   6.482   6.378  0.0984  0.6629 -0.6439
19030TIP3    H178505   4.179   6.563   6.389  0.0182  0.8507 -1.5779
19030TIP3    H278506   4.166   6.443   6.299  1.3535 -1.1234  0.7523
19031TIP3   OH278507   4.805   3.201  15.976  0.4583  0.1218 -0.0236
19031TIP3    H178508   4.820   3.122  15.924 -0.0244 -1.0799  1.5693
19031TIP3    H278509   4.830   3.273  15.919  0.8139 -1.1784 -1.5698
19032TIP3   OH278510   5.815   2.699   0.980 -0.2994 -0.0009 -0.1559
19032TIP3    H178511   5.765   2.657   1.050 -0.7428  0.7715 -0.0075
19032TIP3    H278512   5.749   2.731   0.918 -0.0431  1.5558  0.3351
19033TIP3   OH278513   4.793   1.534   3.856 -0.1805  0.1867 -0.3886
19033TIP3    H178514   4.716   1.496   3.814  0.7365  0.0560 -2.0004
19033TIP3    H278515   4.867   1.505   3.803  0.8039  2.0352 -0.1104
19034TIP3   OH278516   1.267   1.920  12.576  0.2193 -0.1660  0.0762
19034TIP3    H178517   1.295   1.905  12.666 -1.4414  2.2745  1.1179
19034TIP3    H278518   1.206   1.849  12.558  0.7575 -0.8249  0.7631
19035TIP3   OH278519   0.565   1.128  10.952 -0.1531 -0.2306  0.0568
19035TIP3    H178520   0.494   1.065  10.942 -0.0712 -0.5047  1.1072
19035TIP3    H278521   0.633   1.080  10.999  0.6791  0.0766 -0.8049
19036TIP3   OH278522   6.076   0.682  11.589 -0.3859  0.1288 -0.2288
19036TIP3    H178523   6.047   0.708  11.677 -0.4137 -1.1945  0.1682
19036TIP3    H278524   6.050   0.755  11.533  0.2557  1.3220  0.9611
19037TIP3   OH278525   5.845   2.159  11.142  0.4004 -0.4059  0.2064
19037TIP3    H178526   5.807   2.086  11.092  0.2937  0.1677 -0.5548
19037TIP3    H278527   5.873   2.118  11.224 -1.1842 -0.9909  0.4993
19038TIP3   OH278528   4.543   3.088  13.277  0.3149 -0.1608 -0.7303
19038TIP3    H178529   4.479   3.044  13.334 -1.1604  1.1631 -1.2752
19038TIP3    H278530   4.603   3.131  13.338 -0.3454  0.0027 -0.1831
19039TIP3   OH278531   4.120   0.765   1.861 -0.4961  0.0275  0.5792
19039TIP3    H178532   4.138   0.709   1.936 -0.2559 -0.0059  0.5005
19039TIP3    H278533   4.031   0.742   1.834 -1.1950  1.1520  1.8081
19040TIP3   OH278534   2.271   0.678   4.740  0.1525  0.0123 -0.9806
19040TIP3    H178535   2.285   0.593   4.699 -0.2644 -0.2844 -0.5324
19040TIP3    H278536   2.183   0.671   4.777  1.1487 -0.4138  1.5211
19041TIP3   OH278537   5.045   6.269   2.300  0.2405 -0.2888  0.0408
19041TIP3    H178538   5.136   6.257   2.328  0.1342 -1.2775 -0.0192
19041TIP3    H278539   4.997   6.197   2.340 -0.6829  0.6838  0.7429
19042TIP3   OH278540   1.219   2.051   2.429 -0.1526  0.2116  0.8034
19042TIP3    H178541   1.246   2.037   2.520 -0.8435  0.0650  0.9907
19042TIP3    H278542   1.263   1.981   2.381  0.3844  0.4145  0.9856
19043TIP3   OH278543   2.262   6.218   0.850 -0.0426  0.6632 -0.1647
19043TIP3    H178544   2.305   6.253   0.929 -1.5881  0.6800  0.7094
19043TIP3    H278545   2.206   6.289   0.820 -1.6257 -0.3008  0.4009
19044TIP3   OH278546   0.543   4.793   1.571  0.6402 -0.2145 -0.3003
19044TIP3    H178547   0.464   4.816   1.619  0.5794 -1.2170  0.1168
19044TIP3    H278548   0.574   4.876   1.534  1.4142  0.9015  2.5504
19045TIP3   OH278549   4.161   6.144   0.237 -0.3725 -0.6890 -0.7873
19045TIP3    H178550   4.168   6.237   0.215 -2.0392 -0.0206  1.1175
19045TIP3    H278551   4.132   6.102   0.156 -0.1277  0.5528 -1.5387
19046TIP3   OH278552   6.567   5.408   5.552 -0.5069 -0.5445  0.3915
19046TIP3    H178553   6.495   5.397   5.491 -0.2189 -0.1659 -0.0260
19046TIP3    H278554   6.646   5.389   5.500 -0.3415 -1.7857  1.0475
19047TIP3   OH278555   3.145   3.502  13.365  0.1797 -0.0473  0.1681
19047TIP3    H178556   3.178   3.493  13.275  1.8747  0.0010  0.7540
19047TIP3    H278557   3.216   3.543  13.413 -0.8716  0.3442  1.4612
19048TIP3   OH278558   4.002   4.067   0.318 -1.1493 -0.2928 -0.4333
19048TIP3    H178559   4.009   4.119   0.398 -1.2300 -1.2388  0.2018
19048TIP3    H278560   4.082   4.088   0.269 -0.8338 -0.1172  0.1457
19049TIP3   OH278561   6.576   4.854  11.929 -0.7261  0.3831  0.1369
19049TIP3    H178562   6.553   4.924  11.868 -0.2838  0.6189  0.2379
19049TIP3    H278563   6.506   4.789  11.917  0.0337 -0.1909 -1.5850
19050TIP3   OH278564   1.478   0.192   4.542  0.3888 -0.7527 -0.5163
19050TIP3    H178565   1.413   0.148   4.488  0.8518 -1.1368 -0.7658
19050TIP3    H278566   1.562   0.162   4.508  0.7026 -0.1242 -0.3162
19051TIP3   OH278567   4.992   0.945   3.730 -0.5702  0.0626  0.4033
19051TIP3    H178568   4.899   0.934   3.710 -0.6408 -0.6338  1.0344
19051TIP3    H278569   5.011   1.036   3.709 -0.9436 -0.2399 -1.4898
19052TIP3   OH278570   6.515   1.301  11.304  0.1655  0.2619  0.2518
19052TIP3    H178571   6.596   1.352  11.311  0.1752  0.2061  0.5743
19052TIP3    H278572   6.452   1.362  11.265 -0.2925  1.0962  2.1676
19053TIP3   OH278573   6.570   5.324   2.577 -0.0935  0.6659 -0.2457
19053TIP3    H178574   6.507   5.378   2.627 -1.2447 -0.2260 -0.6811
19053TIP3    H278575   6.642   5.384   2.557 -0.6274  1.6294  0.5974
19054TIP3   OH278576   3.665   6.461   3.626 -0.3602  0.0105  0.5860
19054TIP3    H178577   3.662   6.437   3.719  2.5031 -0.0015  0.7444
19054TIP3    H278578   3.758   6.473   3.607 -0.7256 -1.2452 -2.6015
19055TIP3   OH278579   5.974   2.328   1.837 -0.0835  0.5414  0.6111
19055TIP3    H178580   6.029   2.406   1.846 -0.2006  0.6552  0.3651
19055TIP3    H278581   5.977   2.307   1.743  0.5097 -0.1655  0.7759
19056TIP3   OH278582   3.182   6.611   5.458 -0.5208  0.6744 -0.5050
19056TIP3    H178583   3.148   6.573   5.539 -0.9448  0.8610 -0.5890
19056TIP3    H278584   3.277   6.602   5.465 -0.6030 -0.2061 -0.4318
19057TIP3   OH278585   1.165   4.478  11.684 -0.1676 -0.1884  0.3809
19057TIP3    H178586   1.130   4.524  11.761  1.1921  1.3514  0.1379
19057TIP3    H278587   1.114   4.512  11.611  1.0824  1.3014  0.1534
19058TIP3   OH278588   0.476   3.440   3.751 -0.9710 -0.2378 -0.6189
19058TIP3    H178589   0.442   3.486   3.828  0.9704 -0.3485  0.3555
19058TIP3    H278590   0.472   3.506   3.681  1.0253  1.2484  0.5575
19059TIP3   OH278591   6.048   6.394   3.537  0.1830  0.6184  0.0116
19059TIP3    H178592   6.067   6.358   3.451 -0.3718  0.6163 -0.1141
19059TIP3    H278593   6.131   6.390   3.584 -0.0299 -1.6032  0.2888
19060TIP3   OH278594   1.153   4.971   3.739 -0.3213  0.7970 -0.5695
19060TIP3    H178595   1.237   4.973   3.695 -0.5492  1.5224 -0.9762
19060TIP3    H278596   1.089   4.954   3.669 -0.6866  1.9692 -0.5323
19061TIP3   OH278597   1.807   5.895   2.867 -0.7767  0.3697  0.2132
19061TIP3    H178598   1.875   5.950   2.905  0.2824  1.0426 -2.4283
19061TIP3    H278599   1.729   5.914   2.919  0.5708  1.0351  2.1077
19062TIP3   OH278600   0.728   4.802   2.687 -0.4282 -0.2969  0.4935
19062TIP3    H178601   0.767   4.745   2.754 -3.9729  1.7426  4.8393
19062TIP3    H278602   0.782   4.881   2.688  0.5814 -0.9439 -0.5333
19063TIP3   OH278603   3.315   0.756  10.593 -0.3375 -0.3272 -0.2775
19063TIP3    H178604   3.286   0.812  10.665  1.2822 -1.7328  1.5601
19063TIP3    H278605   3.242   0.758  10.531 -1.5993  1.3328  1.1552
19064TIP3   OH278606   1.453   6.652  14.317  0.2940  0.3793 -0.2911
19064TIP3    H178607   1.457   6.746  14.330  0.9210  0.1843  1.1252
19064TIP3    H278608   1.535   6.619  14.353 -1.5651 -1.0619  3.1560
19065TIP3   OH278609   6.188   3.967   5.264  0.0768  0.1574 -0.2725
19065TIP3    H178610   6.120   4.032   5.278  1.5639  2.1430 -1.6752
19065TIP3    H278611   6.166   3.928   5.179 -0.7731 -1.2197  0.5326
19066TIP3   OH278612   5.855   1.878  14.157 -0.2296 -0.5540 -0.2578
19066TIP3    H178613   5.867   1.784  14.174 -1.5625 -0.5958  0.5721
19066TIP3    H278614   5.801   1.909  14.230 -0.7547  0.6364 -1.1238
19067TIP3   OH278615   3.743   3.502   1.643 -0.7008 -0.7174 -0.2026
19067TIP3    H178616   3.834   3.475   1.650 -0.9608 -1.4838  0.3605
19067TIP3    H278617   3.693   3.424   1.665 -1.4893 -0.0708  0.3518
19068TIP3   OH278618   3.359   2.167  15.731 -0.2820  0.1281 -0.0006
19068TIP3    H178619   3.267   2.157  15.758  0.3658 -0.5209  2.1108
19068TIP3    H278620   3.382   2.081  15.694 -0.6708  0.4929 -1.1549
19069TIP3   OH278621   1.361   4.606   3.858  0.1421  0.0496 -0.0313
19069TIP3    H178622   1.366   4.554   3.938  0.9619  0.5473  0.2451
19069TIP3    H278623   1.446   4.593   3.815 -0.0445  0.3164 -0.4899
19070TIP3   OH278624   0.195   3.099  12.427  0.5773 -0.2674  0.3033
19070TIP3    H178625   0.256   3.031  12.398  0.8367  0.4402 -0.8878
19070TIP3    H278626   0.244   3.151  12.490  0.5958 -0.7711  0.7123
19071TIP3   OH278627   5.466   4.092  16.330  0.3830 -0.6101 -0.5883
19071TIP3    H178628   5.404   4.023  16.354  2.4864 -2.5687 -0.5084
19071TIP3    H278629   5.411   4.170  16.319 -1.9214 -1.9385  0.6634
19072TIP3   OH278630   1.895   5.995   5.541 -0.4927  0.2536 -0.2304
19072TIP3    H178631   1.975   6.027   5.499  0.1282  1.0289  1.4579
19072TIP3    H278632   1.909   6.010   5.634 -2.7061  0.6164  0.1006
19073TIP3   OH278633   2.569   4.092   3.881 -0.0584 -0.6126  0.9118
19073TIP3    H178634   2.625   4.019   3.906 -1.0598 -1.7587 -0.0631
19073TIP3    H278635   2.503   4.097   3.951 -0.4841 -1.1985  0.5573
19074TIP3   OH278636   6.261   0.542  11.430 -0.5401  0.3649  0.2141
19074TIP3    H178637   6.289   0.581  11.512  1.7243  0.9146 -0.7361
19074TIP3    H278638   6.182   0.591  11.406 -0.1991  1.4174  1.1638
19075TIP3   OH278639   5.211   0.495  10.924 -0.1394  0.3748 -0.1930
19075TIP3    H178640   5.247   0.407  10.940 -1.9738 -0.2740  0.5896
19075TIP3    H278641   5.123   0.492  10.960 -1.7340  1.3207 -3.6011
19076TIP3   OH278642   4.420   3.489   0.860  0.4386 -0.4367  0.5078
19076TIP3    H178643   4.362   3.554   0.820  0.8774 -0.7028 -0.5876
19076TIP3    H278644   4.508   3.515   0.834  0.6088 -1.5925 -0.1823
19077TIP3   OH278645   6.303   3.196   2.459 -0.1792 -0.5494  0.5095
19077TIP3    H178646   6.376   3.145   2.424 -0.1890 -1.2322  1.4165
19077TIP3    H278647   6.344   3.268   2.505 -0.1824  0.6612 -1.3008
19078TIP3   OH278648   5.302   6.627   3.673 -0.3025 -0.0041 -0.2612
19078TIP3    H178649   5.366   6.698   3.682 -0.9409  0.4890  0.5846
19078TIP3    H278650   5.310   6.599   3.582 -0.1252  1.2597 -0.6645
19079TIP3   OH278651   6.689   4.599   0.324  0.1951  0.2230  0.6909
19079TIP3    H178652   6.716   4.623   0.412  1.0688 -0.1430  0.5261
19079TIP3    H278653   6.619   4.661   0.303 -0.8133 -0.4065  2.0623
19080TIP3   OH278654   6.669   2.182   2.522  0.1861 -0.0342  0.6273
19080TIP3    H178655   6.748   2.180   2.576  0.1521  0.0176  0.6807
19080TIP3    H278656   6.670   2.100   2.474  1.9179  1.2548 -1.7738
19081TIP3   OH278657   2.901   5.136   5.824  0.2098 -0.2594  0.6078
19081TIP3    H178658   2.857   5.115   5.742  0.4258  2.2245 -0.2441
19081TIP3    H278659   2.832   5.133   5.890 -0.0817 -1.7354  0.2556
19082TIP3   OH278660   6.674   2.468  16.644 -0.0279 -0.1370  0.2450
19082TIP3    H178661   6.755   2.467  16.694 -0.4389 -0.9883  0.9328
19082TIP3    H278662   6.631   2.550  16.669  0.2230 -0.0973  0.5422
19083TIP3   OH278663   2.637   2.547   4.951 -0.1939 -0.0277 -0.1071
19083TIP3    H178664   2.689   2.477   4.911 -0.5877  0.9012 -2.4382
19083TIP3    H278665   2.567   2.502   4.999  0.3415 -1.2281 -0.4251
19084TIP3   OH278666   1.054   4.798  13.231 -0.0578  0.2293  0.3545
19084TIP3    H178667   1.027   4.735  13.298 -1.5156  0.3567 -0.0703
19084TIP3    H278668   1.126   4.756  13.185 -0.3252 -0.6769  0.7491
19085TIP3   OH278669   4.952   0.954   5.732 -0.7280  0.0666 -0.1737
19085TIP3    H178670   4.957   0.859   5.741 -1.0281 -0.5159 -4.4459
19085TIP3    H278671   4.861   0.975   5.751 -0.0327  0.1473  4.0060
19086TIP3   OH278672   3.808   3.371   4.008 -0.3998 -0.1973  0.0434
19086TIP3    H178673   3.830   3.283   4.040  2.2095  0.8647  1.4247
19086TIP3    H278674   3.831   3.369   3.915 -1.2837 -1.2205 -0.1759
19087TIP3   OH278675   5.353   2.675  16.451  0.5999 -0.8009  0.1634
19087TIP3    H178676   5.290   2.692  16.521 -0.1114 -1.0450 -0.4098
19087TIP3    H278677   5.434   2.716  16.481 -0.4563  1.6842 -0.1637
19088TIP3   OH278678   5.002   4.093  16.832 -0.1156 -0.4431  0.2864
19088TIP3    H178679   4.969   4.030  16.895 -0.6422 -0.5661 -0.1017
19088TIP3    H278680   5.096   4.099  16.850 -0.3178 -0.2016  1.3166
19089TIP3   OH278681   4.995   1.066  15.284 -0.5043 -0.1747 -0.3407
19089TIP3    H178682   4.973   1.041  15.194 -2.6373 -0.4495  0.2063
19089TIP3    H278683   5.087   1.042  15.294 -0.3636 -0.6020 -2.2754
19090TIP3   OH278684   2.933   0.538  12.250  0.3387 -0.0093 -0.6348
19090TIP3    H178685   2.932   0.503  12.339 -0.4987 -0.9304 -0.9998
19090TIP3    H278686   3.025   0.562  12.236  0.6636 -0.7594  0.1172
19091TIP3   OH278687   3.849   0.661   4.801 -0.4939 -0.0064  0.3664
19091TIP3    H178688   3.913   0.669   4.730 -1.4429 -0.9805 -0.6506
19091TIP3    H278689   3.771   0.706   4.769 -0.7853 -0.0585  0.9869
19092TIP3   OH278690   6.719   5.396  12.564  0.3137 -0.2077  0.1276
19092TIP3    H178691   6.725   5.333  12.492  2.0485 -0.4003  0.4180
19092TIP3    H278692   6.625   5.402  12.581  0.0179 -1.8973 -0.6202
19093TIP3   OH278693   3.609   0.491  11.260  0.3853  0.4304 -0.2936
19093TIP3    H178694   3.515   0.505  11.272  0.5056  3.2784 -1.7681
19093TIP3    H278695   3.616   0.403  11.224 -1.6471 -0.0626  0.4119
19094TIP3   OH278696   1.223   1.265   3.210 -0.2113  0.1035  0.8607
19094TIP3    H178697   1.193   1.234   3.295 -0.6311 -0.8434  0.3735
19094TIP3    H278698   1.145   1.301   3.169  0.1036  1.0748  1.0843
19095TIP3   OH278699   4.799   5.805  12.672  0.3313 -0.4797 -0.4294
19095TIP3    H178700   4.827   5.736  12.732  0.8212 -0.0208 -0.1075
19095TIP3    H278701   4.879   5.830  12.626 -0.2170 -1.5055 -2.0235
19096TIP3   OH278702   4.593   1.783  14.235 -0.2334 -0.0682 -0.5645
19096TIP3    H178703   4.646   1.772  14.156  0.4759  0.5012 -0.1811
19096TIP3    H278704   4.504   1.797  14.202  0.3570  2.2072 -1.3866
19097TIP3   OH278705   3.937   1.444  12.804 -0.3119 -0.3255  0.2146
19097TIP3    H178706   3.896   1.432  12.719 -1.8637  0.6337  0.7764
19097TIP3    H278707   3.887   1.514  12.845  0.5248 -0.6246  1.8406
19098TIP3   OH278708   0.018   3.095   1.241  0.5277  0.4734 -0.1117
19098TIP3    H178709  -0.059   3.046   1.211  1.5574 -1.5038  0.3058
19098TIP3    H278710   0.077   3.094   1.166  1.3184 -0.6154  0.5017
19099TIP3   OH278711   6.185   3.467  11.490 -0.3864  0.4896  0.5572
19099TIP3    H178712   6.206   3.431  11.403 -0.4447 -0.4688  0.9307
19099TIP3    H278713   6.267   3.460  11.539 -1.0207 -1.5351  1.4315
19100TIP3   OH278714   3.182   5.701   1.845 -0.0841  0.3318  0.2278
19100TIP3    H178715   3.143   5.688   1.932 -1.8974  1.5614 -0.3457
19100TIP3    H278716   3.127   5.649   1.786  2.6297 -2.5916  0.0227
19101TIP3   OH278717   4.687   3.587  14.786  0.2097 -0.2600  0.0294
19101TIP3    H178718   4.609   3.559  14.834  0.4752 -1.2745 -0.1037
19101TIP3    H278719   4.744   3.510  14.787  0.4827 -0.0995 -1.3892
19102TIP3   OH278720   5.149   3.731   1.103 -0.7708 -0.4791  0.2772
19102TIP3    H178721   5.127   3.818   1.072  1.1419  0.2075  0.7410
19102TIP3    H278722   5.097   3.720   1.183 -0.2348  0.6590  0.7969
19103TIP3   OH278723   6.145   6.316   1.054 -0.3061 -0.3236 -0.1696
19103TIP3    H178724   6.103   6.313   1.140  0.4436  0.4173  0.2346
19103TIP3    H278725   6.078   6.355   0.996 -1.0559 -1.4505 -0.0916
19104TIP3   OH278726   4.357   4.899  14.982 -0.1227  0.7673 -0.1786
19104TIP3    H178727   4.315   4.982  15.002 -0.5403  0.1974  1.4548
19104TIP3    H278728   4.305   4.862  14.911 -0.4045  1.5200 -0.3734
19105TIP3   OH278729   0.948   6.243  13.714 -0.1242  0.3192  0.2887
19105TIP3    H178730   1.022   6.195  13.677 -0.5759 -1.2859  1.3687
19105TIP3    H278731   0.916   6.298  13.643  1.1752 -0.0922 -0.6275
19106TIP3   OH278732   5.788   3.231   4.039  0.3499  0.3143 -0.4088
19106TIP3    H178733   5.878   3.249   4.011 -0.5529  1.1161 -3.0221
19106TIP3    H278734   5.733   3.277   3.976 -1.9298 -0.6509  0.7573
19107TIP3   OH278735   6.096   4.130   4.984 -0.1277  0.6506 -0.1529
19107TIP3    H178736   6.072   4.138   5.076  0.0771  1.1774 -0.1429
19107TIP3    H278737   6.021   4.087   4.944  0.2358 -0.5882  0.4545
19108TIP3   OH278738   5.348   2.041  13.306  0.6602 -0.9336  0.6979
19108TIP3    H178739   5.387   2.128  13.316  1.7657 -1.1965 -1.0317
19108TIP3    H278740   5.386   2.006  13.226 -3.8257 -0.8167 -1.8256
19109TIP3   OH278741   2.633   0.867  10.534 -0.2689  0.9371 -0.0434
19109TIP3    H178742   2.579   0.811  10.478 -0.6257 -1.5893  2.5526
19109TIP3    H278743   2.587   0.867  10.618  2.0700  1.4056  1.3289
19110TIP3   OH278744   4.282   6.587   5.408 -0.4924 -0.0832  0.0302
19110TIP3    H178745   4.207   6.645   5.423 -0.7717 -0.3060 -0.4518
19110TIP3    H278746   4.327   6.626   5.333 -1.1270 -0.9018 -0.8052
19111TIP3   OH278747   2.136   3.245  12.015  0.2684 -0.2686  0.1572
19111TIP3    H178748   2.211   3.240  11.956 -0.8025 -0.7807 -1.1933
19111TIP3    H278749   2.062   3.212  11.964 -1.3951  2.4139  0.6321
19112TIP3   OH278750   1.269   3.156  16.438 -0.5772 -0.6444  0.1419
19112TIP3    H178751   1.328   3.199  16.500 -0.7637 -0.4889  0.2100
19112TIP3    H278752   1.327   3.102  16.384  0.1086  1.7967 -1.7972
19113TIP3   OH278753   4.914   0.609  13.486 -0.3421  0.6461 -0.1903
19113TIP3    H178754   4.980   0.608  13.556 -1.8875 -0.2786  1.3098
19113TIP3    H278755   4.849   0.672  13.516 -0.8913  0.4353 -0.9379
19114TIP3   OH278756   6.627   6.548   0.032  0.2599  0.2801  0.3078
19114TIP3    H178757   6.673   6.505  -0.040  1.2763 -0.2494  1.2482
19114TIP3    H278758   6.564   6.606  -0.011  0.9071  0.0439 -1.0011
19115TIP3   OH278759   5.312   4.585   2.656  0.0823  0.3836 -0.4109
19115TIP3    H178760   5.248   4.644   2.697  1.2324  0.4802  1.3147
19115TIP3    H278761   5.305   4.503   2.705 -0.0915 -0.2976 -1.5168
19116TIP3   OH278762   1.567   2.458   1.156 -0.3148  0.2149 -0.4335
19116TIP3    H178763   1.601   2.468   1.245  1.5390 -1.4822 -0.8736
19116TIP3    H278764   1.599   2.535   1.109 -1.5465  1.2659  0.3859
19117TIP3   OH278765   0.544   4.891  11.393  0.2035 -0.0682 -0.0418
19117TIP3    H178766   0.607   4.822  11.371 -0.0150 -0.4515  0.5101
19117TIP3    H278767   0.476   4.883  11.327  0.3519 -0.1506 -0.1863
19118TIP3   OH278768   1.775   5.566  12.501 -0.2551 -0.7932  0.2192
19118TIP3    H178769   1.726   5.487  12.477 -0.4922 -0.6678  0.2920
19118TIP3    H278770   1.708   5.630  12.525 -0.1074 -0.2668 -0.7371
19119TIP3   OH278771   6.350   3.192   5.876  0.1811 -0.0878  0.0713
19119TIP3    H178772   6.425   3.168   5.930 -0.6917 -1.2618  0.8162
19119TIP3    H278773   6.292   3.240   5.935  0.3201  0.7717 -0.4830
19120TIP3   OH278774   2.380   1.397  11.382 -0.3514 -0.3417  0.1100
19120TIP3    H178775   2.321   1.464  11.346 -0.3186  0.0104  0.6923
19120TIP3    H278776   2.463   1.411  11.336 -0.3378  0.0398  0.2436
19121TIP3   OH278777   5.451   6.688  16.073 -0.0957  0.4523  0.2726
19121TIP3    H178778   5.381   6.735  16.028 -1.4642 -0.5279  1.2801
19121TIP3    H278779   5.418   6.675  16.162  1.8142  0.8492  1.0904
19122TIP3   OH278780   5.520   2.261   0.551 -0.1934  0.1305  0.0677
19122TIP3    H178781   5.522   2.167   0.569  1.8249 -0.1558 -1.3009
19122TIP3    H278782   5.527   2.268   0.456  1.1662  1.6484  0.2185
19123TIP3   OH278783   0.521   6.188   0.616 -1.0780  0.4393  0.2516
19123TIP3    H178784   0.576   6.265   0.628  1.4204 -1.1238 -0.4317
19123TIP3    H278785   0.497   6.162   0.705  0.1563  0.5919  0.6445
19124TIP3   OH278786   6.461   4.552  12.761  0.1432  0.1541 -0.1245
19124TIP3    H178787   6.416   4.632  12.787  0.4101  0.4818 -0.6624
19124TIP3    H278788   6.429   4.486  12.823 -0.2375  0.6227  0.1899
19125TIP3   OH278789   0.264   0.617   2.136  0.1888 -0.3362 -0.1774
19125TIP3    H178790   0.194   0.663   2.089  0.6969  0.3195 -0.3121
19125TIP3    H278791   0.309   0.566   2.068 -0.5285 -1.2396  0.0150
19126TIP3   OH278792   2.040   0.858   5.377 -0.4596 -0.3065 -0.3005
19126TIP3    H178793   1.986   0.937   5.384  0.4913  0.3894 -0.7072
19126TIP3    H278794   2.085   0.852   5.461  0.1401  0.0934 -0.5844
19127TIP3   OH278795   4.364   3.950  12.116 -0.5292  0.5679  0.0863
19127TIP3    H178796   4.415   4.029  12.100  0.0874  0.0855 -0.3712
19127TIP3    H278797   4.350   3.949  12.211  0.0114  0.8867  0.1744
19128TIP3   OH278798   2.752   4.742   0.208  0.4972 -0.2928 -0.2474
19128TIP3    H178799   2.817   4.804   0.242  0.3295 -0.3207  0.1246
19128TIP3    H278800   2.712   4.788   0.134 -2.0114  1.4884  2.0189
19129TIP3   OH278801   1.713   6.664  15.199  1.1122  0.5913 -0.5857
19129TIP3    H178802   1.705   6.668  15.295  4.4163  1.4251 -0.2167
19129TIP3    H278803   1.786   6.604  15.184 -0.2999 -0.6925 -2.7271
19130TIP3   OH278804   2.558   3.150  11.920 -0.5262  0.1867 -0.2736
19130TIP3    H178805   2.518   3.236  11.905 -0.0306  0.2769 -1.1777
19130TIP3    H278806   2.552   3.137  12.014 -0.6472  1.2030 -0.1233
19131TIP3   OH278807   2.485   3.392   0.395  0.0597  0.6819  0.5589
19131TIP3    H178808   2.497   3.483   0.369 -1.1469  0.4347 -1.0201
19131TIP3    H278809   2.561   3.372   0.450  1.9064  1.7836 -1.4447
19132TIP3   OH278810   6.516   4.455  14.307 -0.4574 -1.1111 -0.0572
19132TIP3    H178811   6.467   4.449  14.225 -1.2865 -0.8912  0.4110
19132TIP3    H278812   6.570   4.377  14.308 -0.3213 -1.0345 -0.8912
19133TIP3   OH278813   2.175   3.027   2.859  0.0602 -0.2405 -0.5545
19133TIP3    H178814   2.239   2.957   2.843  0.2302 -0.5192  1.1620
19133TIP3    H278815   2.123   2.996   2.933 -0.0379  1.3016  0.0746
19134TIP3   OH278816   5.093   1.783  11.859 -0.0327 -0.3353  0.6529
19134TIP3    H178817   5.098   1.689  11.879  1.2680 -0.2340  0.8767
19134TIP3    H278818   5.065   1.823  11.941 -1.9862 -0.6283  0.1912
19135TIP3   OH278819   0.346   4.883  13.974  0.1356  0.7962 -0.5445
19135TIP3    H178820   0.323   4.812  13.914  0.2025 -0.5874  0.9998
19135TIP3    H278821   0.438   4.901  13.955  0.6360 -0.7900  0.2413
19136TIP3   OH278822   1.331   4.973  17.298 -0.1568  0.0280  0.0174
19136TIP3    H178823   1.374   4.891  17.276 -0.2978 -0.6907  2.2131
19136TIP3    H278824   1.249   4.948  17.339 -0.9676  1.3300 -0.6987
19137TIP3   OH278825   5.625   5.949   5.674 -0.5185  0.4130 -0.0916
19137TIP3    H178826   5.677   5.870   5.658  0.6790  0.6379  2.2493
19137TIP3    H278827   5.689   6.020   5.673 -1.2080  1.0433  0.2240
19138TIP3   OH278828   1.582   2.365   5.420 -0.3364  0.3481  0.4783
19138TIP3    H178829   1.620   2.423   5.486 -2.2870  0.8529  1.1993
19138TIP3    H278830   1.646   2.293   5.414 -0.4143 -0.1309  3.5060
19139TIP3   OH278831   1.438   5.247  11.920 -0.2523  0.1319  0.8974
19139TIP3    H178832   1.357   5.292  11.896  0.8254  1.5025 -0.3674
19139TIP3    H278833   1.434   5.240  12.015 -1.2590  1.3931  0.9737
19140TIP3   OH278834   4.866   2.404   2.978  0.4900 -0.4932 -0.4013
19140TIP3    H178835   4.961   2.414   2.971  0.8180 -0.1613  2.8811
19140TIP3    H278836   4.851   2.310   2.984  0.8753 -0.4790  1.1241
19141TIP3   OH278837   4.307   2.005   4.059 -0.1445 -0.5024 -0.1282
19141TIP3    H178838   4.400   1.985   4.048 -0.2983 -1.4091  0.1216
19141TIP3    H278839   4.262   1.937   4.009 -0.6586  1.3590 -2.3285
19142TIP3   OH278840   1.389   6.215   3.267 -0.2491 -0.2329 -0.1835
19142TIP3    H178841   1.443   6.209   3.189 -0.6541  0.6006 -0.5481
19142TIP3    H278842   1.431   6.157   3.331  1.1741  0.5335 -0.3897
19143TIP3   OH278843   5.713   5.673  10.771 -0.7583  0.2664  0.7290
19143TIP3    H178844   5.700   5.752  10.825  0.1403 -1.3046  3.4593
19143TIP3    H278845   5.636   5.619  10.789 -0.9614  0.1382 -0.4615
19144TIP3   OH278846   2.514   1.040   2.290 -0.5680  0.2568  0.3060
19144TIP3    H178847   2.477   1.009   2.208 -0.4126  1.0428 -0.0770
19144TIP3    H278848   2.584   1.099   2.264 -0.9543  1.0481  0.9851
19145TIP3   OH278849   0.486   1.768   5.665  0.0988  0.0039 -0.4348
19145TIP3    H178850   0.413   1.772   5.603 -0.8853 -2.2232  0.4462
19145TIP3    H278851   0.530   1.686   5.645 -0.9117 -1.3760  2.3915
19146TIP3   OH278852   5.412   4.909  15.084  0.3829 -0.2072  0.0045
19146TIP3    H178853   5.496   4.877  15.050  0.6239  0.8121 -0.4006
19146TIP3    H278854   5.422   5.005  15.085 -0.5806 -0.1057  0.4645
19147TIP3   OH278855   0.662   2.417  10.686  0.6457  0.1188  0.4508
19147TIP3    H178856   0.728   2.380  10.628  0.1011  1.2256 -0.9305
19147TIP3    H278857   0.624   2.341  10.732  2.0212 -0.6326  0.3822
19148TIP3   OH278858   6.763   5.344  10.916  0.1514 -0.0472  0.4850
19148TIP3    H178859   6.836   5.311  10.864 -0.0452  0.9987 -0.4931
19148TIP3    H278860   6.748   5.432  10.882  0.3964  0.9152  2.7299
19149TIP3   OH278861   3.568   2.633   3.315 -0.0338  0.0645 -0.2761
19149TIP3    H178862   3.586   2.595   3.229  1.8359  0.8163 -0.2617
19149TIP3    H278863   3.595   2.565   3.377  1.5159  0.6204 -0.2826
19150TIP3   OH278864   2.166   4.744  12.486 -0.2547 -0.0102 -0.2889
19150TIP3    H178865   2.091   4.803  12.490  0.0748  0.4149 -0.4034
19150TIP3    H278866   2.226   4.776  12.553  0.3143  0.3239 -0.9515
19151TIP3   OH278867   0.207   5.681  11.507  0.1605  0.0441  0.5794
19151TIP3    H178868   0.219   5.587  11.494 -1.0099  0.1147 -1.3537
19151TIP3    H278869   0.121   5.688  11.551 -0.5960  0.2515 -0.8816
19152TIP3   OH278870   5.916   6.703  11.661  0.4686  0.9046  1.0119
19152TIP3    H178871   5.999   6.748  11.679  2.2980 -2.3532  1.4256
19152TIP3    H278872   5.940   6.612  11.647 -3.2347 -0.6011  3.0181
19153TIP3   OH278873   0.917   5.076  14.830  0.5074 -0.7663 -0.2977
19153TIP3    H178874   0.928   5.005  14.768  2.2908 -1.5261  0.8188
19153TIP3    H278875   0.932   5.036  14.916  0.1522  0.6618  0.4709
19154TIP3   OH278876   0.061   3.204  13.002  0.2233 -0.7747 -0.3352
19154TIP3    H178877   0.034   3.165  12.919 -0.5271  0.8569 -0.9001
19154TIP3    H278878   0.065   3.298  12.985 -4.2882  0.2508  2.4717
19155TIP3   OH278879   2.236   1.491   5.199  0.4782  0.0845  0.0416
19155TIP3    H178880   2.142   1.470   5.195  0.6601 -0.7764  0.1424
19155TIP3    H278881   2.243   1.551   5.273 -0.3129  1.9905 -1.3489
19156TIP3   OH278882   6.585   5.485   1.837 -0.4141  0.2577  0.3627
19156TIP3    H178883   6.524   5.545   1.795 -1.9148 -0.0609  1.9416
19156TIP3    H278884   6.609   5.528   1.919  0.4959 -0.1984  0.3533
19157TIP3   OH278885   1.463   3.762  17.194  0.6328 -0.0572 -0.0248
19157TIP3    H178886   1.460   3.848  17.152 -1.0139 -0.0520  0.0424
19157TIP3    H278887   1.539   3.719  17.155  0.9787  1.1144 -0.6899
19158TIP3   OH278888   3.087   4.615  14.502  0.4400 -0.4198 -0.4407
19158TIP3    H178889   3.075   4.706  14.475 -0.1285  0.1397  1.5495
19158TIP3    H278890   2.999   4.576  14.496  0.4069 -0.4303  0.0920
19159TIP3   OH278891   6.044   5.837   4.999 -0.0681 -0.0660 -0.9170
19159TIP3    H178892   6.054   5.930   5.020 -1.0302  0.0933 -1.1081
19159TIP3    H278893   5.950   5.820   5.011  0.3590 -1.4501  0.8888
19160TIP3   OH278894   1.899   2.641  16.747 -0.1122  0.1745 -0.3006
19160TIP3    H178895   1.823   2.628  16.690  0.3015  1.7214 -1.2685
19160TIP3    H278896   1.975   2.634  16.689  0.2594  3.6227 -0.4421
19161TIP3   OH278897   6.392   2.161   0.212 -0.1583 -0.0639 -0.1997
19161TIP3    H178898   6.403   2.247   0.253 -1.3926  1.5554 -2.9505
19161TIP3    H278899   6.467   2.110   0.243  0.5441  1.9198  1.6544
19162TIP3   OH278900   2.238   0.786  15.551  0.3623  0.0956 -0.4049
19162TIP3    H178901   2.319   0.740  15.530 -0.3335 -0.3193 -2.3944
19162TIP3    H278902   2.247   0.810  15.643  2.5687 -0.2685 -0.4794
19163TIP3   OH278903   2.651   6.462  11.632 -0.0848 -0.3086  0.1122
19163TIP3    H178904   2.671   6.555  11.626 -0.3487 -0.2228  0.5627
19163TIP3    H278905   2.714   6.428  11.695 -0.9237 -0.1531  1.0643
19164TIP3   OH278906   4.756   6.205  14.149  0.0301  0.6846  0.2102
19164TIP3    H178907   4.704   6.130  14.120  0.6522  0.2024  0.3231
19164TIP3    H278908   4.760   6.263  14.073 -0.2982  0.5163  0.0655
19165TIP3   OH278909   5.344   4.461   5.705  0.2150  0.4301 -0.3731
19165TIP3    H178910   5.250   4.445   5.703  0.5377 -1.7869 -1.6738
19165TIP3    H278911   5.366   4.484   5.615  1.0233  0.0681 -0.2741
19166TIP3   OH278912   2.941   6.147   3.204  0.1340 -0.2203 -0.4647
19166TIP3    H178913   2.919   6.106   3.121 -0.4115 -2.9455  0.9287
19166TIP3    H278914   2.995   6.083   3.250 -1.3054  0.2645  2.1124
19167TIP3   OH278915   1.308   3.942   3.229 -0.3321 -0.7282 -0.0082
19167TIP3    H178916   1.247   3.886   3.277  0.4654 -0.1153  1.7990
19167TIP3    H278917   1.260   3.966   3.150 -1.8131 -1.5787  0.5806
19168TIP3   OH278918   3.060   4.824  13.913 -0.1555 -0.4250  0.5818
19168TIP3    H178919   3.142   4.840  13.960 -0.5480  0.1586  1.0889
19168TIP3    H278920   3.025   4.911  13.895 -0.9988 -0.6686  0.9789
19169TIP3   OH278921   6.644   5.943   4.608 -0.2478 -0.4073 -0.3897
19169TIP3    H178922   6.573   5.879   4.601 -0.1092 -0.4868 -1.1300
19169TIP3    H278923   6.703   5.906   4.674 -1.9223  0.6745  1.8745
19170TIP3   OH278924   5.181   2.818  15.650 -0.0228 -0.5800  0.0654
19170TIP3    H178925   5.201   2.726  15.668  0.8625 -0.3156  0.4829
19170TIP3    H278926   5.136   2.849  15.728  0.5110 -0.4204  0.3174
19171TIP3   OH278927   3.665   6.100   3.056 -0.3735 -0.4375 -0.4965
19171TIP3    H178928   3.705   6.180   3.090  0.2586 -1.6596  1.8268
19171TIP3    H278929   3.690   6.098   2.963  2.1661  0.5468  0.0973
19172TIP3   OH278930   0.241   2.228   1.324 -0.0072  0.6061 -0.5130
19172TIP3    H178931   0.204   2.300   1.273 -1.2062 -0.1403 -0.7657
19172TIP3    H278932   0.165   2.174   1.346  0.8398 -0.4927 -0.1997
19173TIP3   OH278933   5.667   1.099   4.055 -0.0652 -0.0500 -0.1882
19173TIP3    H178934   5.682   1.173   3.996  0.1493  0.0895  0.0423
19173TIP3    H278935   5.713   1.122   4.136  0.1606 -0.5147 -0.1775
19174TIP3   OH278936   5.202   0.379   6.200  0.6395  0.0483  0.0605
19174TIP3    H178937   5.251   0.409   6.123 -0.3677  0.1004 -0.5714
19174TIP3    H278938   5.113   0.413   6.187  0.0751 -1.2132  0.5064
19175TIP3   OH278939   6.692   2.845   2.431  0.2995  0.1704 -0.5649
19175TIP3    H178940   6.743   2.897   2.492 -1.2361  1.1240 -0.0220
19175TIP3    H278941   6.698   2.755   2.464  2.0167  0.1609 -0.8335
19176TIP3   OH278942   2.542   5.255   4.108  0.3024 -0.4163  0.4621
19176TIP3    H178943   2.593   5.180   4.077 -1.0777 -2.0791  1.9728
19176TIP3    H278944   2.578   5.330   4.061  0.4000 -2.2658 -2.6733
19177TIP3   OH278945   1.131   2.454   5.275  0.1038  0.6486 -0.3372
19177TIP3    H178946   1.170   2.495   5.198  0.7653  0.4006 -0.1416
19177TIP3    H278947   1.206   2.424   5.327 -0.3474  0.2212  0.0786
19178TIP3   OH278948   3.084   3.880  15.137  0.2819  0.0963 -0.1778
19178TIP3    H178949   3.065   3.974  15.142  0.4719  0.0882  1.8896
19178TIP3    H278950   3.047   3.844  15.218  1.1774 -1.4150 -0.4025
19179TIP3   OH278951   1.351   2.720   6.113  0.4423 -0.1683 -0.0020
19179TIP3    H178952   1.439   2.683   6.127  0.9271  0.5083 -1.1327
19179TIP3    H278953   1.345   2.791   6.178  1.2021  0.5258 -0.6579
19180TIP3   OH278954   3.171   1.388   1.821 -0.1779 -0.0778 -0.3830
19180TIP3    H178955   3.116   1.438   1.882 -0.8793 -1.1201 -0.1406
19180TIP3    H278956   3.110   1.356   1.754  0.2877 -0.4611 -0.6298
19181TIP3   OH278957   2.553   3.914  15.806 -0.6092 -0.1098  0.1104
19181TIP3    H178958   2.459   3.928  15.817 -0.5273 -0.6307  1.7427
19181TIP3    H278959   2.572   3.839  15.862  0.7020 -0.3157 -0.5897
19182TIP3   OH278960   2.804   3.466  14.783  0.1882  0.4519  0.3238
19182TIP3    H178961   2.729   3.517  14.814 -1.5779 -1.6894 -0.1003
19182TIP3    H278962   2.845   3.434  14.864 -1.3157 -0.9131  0.6140
19183TIP3   OH278963   5.409   1.240   0.244 -0.4501  0.3778  0.3258
19183TIP3    H178964   5.497   1.276   0.254 -1.4740  3.1400  0.4463
19183TIP3    H278965   5.381   1.270   0.157 -1.2784 -0.4486  0.2908
19184TIP3   OH278966   2.980   6.751  15.474 -0.3247 -0.3670  0.2178
19184TIP3    H178967   3.055   6.804  15.449  0.3760 -0.7144  1.4784
19184TIP3    H278968   2.978   6.680  15.410 -0.5455  0.5010 -0.7593
19185TIP3   OH278969   0.401   3.834   4.067  0.6891  0.2255  0.0454
19185TIP3    H178970   0.385   3.793   4.152 -0.2095  1.7694  0.6607
19185TIP3    H278971   0.421   3.925   4.088  1.3587  0.4260 -1.3503
19186TIP3   OH278972   0.010   1.753   0.646  0.5385  0.6891  0.5312
19186TIP3    H178973   0.059   1.735   0.727  1.6439  0.6514 -0.1313
19186TIP3    H278974   0.033   1.682   0.588  1.3397  1.7676 -0.5186
19187TIP3   OH278975   0.079   6.111  11.195  0.2413  0.0884  0.8257
19187TIP3    H178976   0.146   6.160  11.147 -0.5039 -0.5066 -0.8844
19187TIP3    H278977   0.028   6.067  11.127  0.4108 -2.4834  2.2367
19188TIP3   OH278978   4.052   0.625  13.453 -0.1068  0.6688 -0.2625
19188TIP3    H178979   4.054   0.709  13.498  0.7580  0.4508  0.1350
19188TIP3    H278980   4.090   0.642  13.367  3.1460  0.0957  0.9372
19189TIP3   OH278981   0.514   0.920   6.115 -0.1602  0.5713  0.8178
19189TIP3    H178982   0.492   0.991   6.175  0.6539  2.7024 -1.2520
19189TIP3    H278983   0.597   0.885   6.148 -1.1830 -0.3297  2.5613
19190TIP3   OH278984   0.554   6.400  10.883 -0.2689 -0.0335 -0.6453
19190TIP3    H178985   0.541   6.393  10.788  0.7678 -2.0024 -0.6820
19190TIP3    H278986   0.648   6.392  10.895 -0.4261 -0.1391  0.5766
19191TIP3   OH278987   0.917   2.677   0.693 -0.6449  0.1457 -0.2560
19191TIP3    H178988   0.996   2.623   0.695 -1.4756 -1.1100  0.5812
19191TIP3    H278989   0.891   2.678   0.601 -0.5206 -0.7769 -0.3135
19192TIP3   OH278990   1.661   0.421   3.693  0.1194 -0.7407 -0.3841
19192TIP3    H178991   1.735   0.362   3.709 -0.3333 -2.4361 -3.6199
19192TIP3    H278992   1.699   0.497   3.650  0.3674  0.2041  1.4096
19193TIP3   OH278993   6.512   4.303   6.520 -0.0561  0.1032  0.2361
19193TIP3    H178994   6.439   4.348   6.564  0.4577  1.6916 -0.4562
19193TIP3    H278995   6.470   4.254   6.449 -0.5796 -0.0088  0.6150
19194TIP3   OH278996   1.685   2.456  16.907  0.3234  0.2891 -0.4997
19194TIP3    H178997   1.658   2.443  16.998  0.1700 -1.7141 -0.7902
19194TIP3    H278998   1.766   2.506  16.913  1.3216 -1.3670  0.8882
19195TIP3   OH278999   5.944   5.754  12.707 -0.2644 -1.3103  0.6430
19195TIP3    H179000   6.015   5.778  12.766 -0.3462 -1.4129  0.7850
19195TIP3    H279001   5.876   5.720  12.765 -0.6264 -0.7420  0.5523
19196TIP3   OH279002   4.583   2.651  12.709  0.7100  0.1678 -0.1374
19196TIP3    H179003   4.492   2.624  12.709  0.1936  1.7148  1.3339
19196TIP3    H279004   4.620   2.613  12.629 -0.9449 -1.3258 -0.2428
19197TIP3   OH279005   5.115   2.951  17.110 -0.3790  0.3372 -0.0367
19197TIP3    H179006   5.206   2.948  17.082 -0.6182  0.4741 -0.8723
19197TIP3    H279007   5.116   2.921  17.201  0.7743  2.4870  0.7046
19198TIP3   OH279008   0.518   1.079   2.713  0.5244 -0.2470  0.7701
19198TIP3    H179009   0.424   1.098   2.710  0.5124 -0.3599  0.1678
19198TIP3    H279010   0.560   1.166   2.710  0.4588 -0.2209 -1.2577
19199TIP3   OH279011   2.341   5.846   6.622 -0.0844 -0.1339 -0.2143
19199TIP3    H179012   2.348   5.761   6.580 -1.2079 -0.0621 -0.5770
19199TIP3    H279013   2.250   5.852   6.649 -0.0216  0.9647 -0.2115
19200TIP3   OH279014   2.201   6.724   1.097 -0.0917  0.0419  0.0065
19200TIP3    H179015   2.162   6.805   1.063  0.0332  0.4552  0.8368
19200TIP3    H279016   2.128   6.675   1.133 -0.2063 -0.3458 -0.7237
19201TIP3   OH279017   3.515   5.916  13.981 -0.5615  0.1455  0.4630
19201TIP3    H179018   3.440   5.952  13.933 -0.4995 -0.8844 -0.4177
19201TIP3    H279019   3.582   5.901  13.915 -0.0171 -0.0959  1.0592
19202TIP3   OH279020   5.660   4.565   1.909 -0.4802  0.3113  0.4569
19202TIP3    H179021   5.611   4.500   1.960  3.0276 -1.8748  1.3999
19202TIP3    H279022   5.703   4.514   1.841 -0.3042  2.2832 -0.9744
19203TIP3   OH279023   5.865   0.081   5.890 -0.0089 -0.0055 -0.2140
19203TIP3    H179024   5.779   0.106   5.925 -1.0595 -1.3908 -1.6446
19203TIP3    H279025   5.923   0.083   5.966 -1.6171 -0.3792  1.0919
19204TIP3   OH279026   0.518   3.572  16.503 -0.1791 -1.0680  0.0254
19204TIP3    H179027   0.431   3.577  16.464 -0.6259 -0.4957  1.0357
19204TIP3    H279028   0.546   3.482  16.487 -0.0959 -0.7249 -2.0335
19205TIP3   OH279029   0.661   5.950  11.259 -0.1899  0.0213 -0.3318
19205TIP3    H179030   0.655   5.907  11.174  1.8972  0.1536 -0.6043
19205TIP3    H279031   0.623   6.037  11.245 -0.1258 -0.0608 -1.0420
19206TIP3   OH279032   1.470   5.376  15.277 -0.0099 -0.6108 -0.0021
19206TIP3    H179033   1.476   5.296  15.225  0.3545 -0.6390  0.0854
19206TIP3    H279034   1.400   5.358  15.341  0.4124 -1.0447  0.3442
19207TIP3   OH279035   4.461   3.157   0.142  0.2774  0.0866 -0.0106
19207TIP3    H179036   4.427   3.078   0.099  0.8975  0.4067 -1.1326
19207TIP3    H279037   4.403   3.170   0.217 -0.5136 -0.8084 -0.4403
19208TIP3   OH279038   6.287   4.356  16.383 -0.7294  0.6121  0.0646
19208TIP3    H179039   6.256   4.416  16.315 -0.6825  1.9273  1.1648
19208TIP3    H279040   6.306   4.275  16.336  3.2559  2.6065 -2.3251
19209TIP3   OH279041   0.946   3.689  16.406  0.1723  0.0388 -0.0399
19209TIP3    H179042   0.871   3.745  16.424  0.6834  0.6126  0.3181
19209TIP3    H279043   0.970   3.709  16.315  0.6297  0.7261  0.2297
19210TIP3   OH279044   0.925   1.944   3.173 -0.5268 -0.3958  0.0079
19210TIP3    H179045   0.976   2.013   3.130  0.4681  0.0495  1.7880
19210TIP3    H279046   0.945   1.865   3.123  1.7465 -0.1733  0.4550
19211TIP3   OH279047   5.230   2.214  15.407 -0.1405  0.1672 -0.1100
19211TIP3    H179048   5.272   2.258  15.333  0.2421 -0.5940 -0.3565
19211TIP3    H279049   5.303   2.175  15.455 -0.5871 -2.0793 -1.1235
19212TIP3   OH279050   5.409   5.725  14.634  0.1117 -0.2282  0.5510
19212TIP3    H179051   5.419   5.789  14.563 -0.0548 -1.3952 -0.5643
19212TIP3    H279052   5.351   5.768  14.697  2.5208  1.9700  1.4261
19213TIP3   OH279053   1.770   4.274   2.125 -0.2698  0.1432 -0.7214
19213TIP3    H179054   1.753   4.292   2.218 -1.3168 -1.5922 -0.5346
19213TIP3    H279055   1.820   4.193   2.125  1.1514  0.9919 -1.6466
19214TIP3   OH279056   0.404   5.862  14.572 -0.1943 -0.7259 -0.2489
19214TIP3    H179057   0.345   5.937  14.571  0.9403  0.2248  0.9232
19214TIP3    H279058   0.491   5.899  14.587  0.5783 -2.1732 -0.9381
19215TIP3   OH279059   0.899   5.662   0.989  0.2462  0.0611  0.1387
19215TIP3    H179060   0.989   5.643   0.962 -0.1782 -2.2306  0.1206
19215TIP3    H279061   0.883   5.603   1.063 -0.7959  1.4737  1.0876
19216TIP3   OH279062   0.493   4.839  15.667  0.0133 -0.4660 -0.7700
19216TIP3    H179063   0.480   4.824  15.573 -1.0122 -1.6155 -0.4752
19216TIP3    H279064   0.413   4.882  15.696  0.5835  0.4506 -0.5174
19217TIP3   OH279065   5.539   2.724   6.448  0.2090  0.5022 -0.5299
19217TIP3    H179066   5.445   2.722   6.427  0.4300  2.1760 -1.9397
19217TIP3    H279067   5.547   2.792   6.515  0.3089 -0.3921  0.3863
19218TIP3   OH279068   0.317   5.707   4.551 -0.2137  0.2434  0.1563
19218TIP3    H179069   0.225   5.711   4.526 -0.1484 -1.5841 -0.5141
19218TIP3    H279070   0.365   5.734   4.473 -0.1510 -0.0747  0.0838
19219TIP3   OH279071   5.733   5.385  16.591  0.2708 -0.0228  0.8911
19219TIP3    H179072   5.752   5.479  16.598 -0.1347  0.1840 -0.4447
19219TIP3    H279073   5.776   5.346  16.666  0.6005  1.2174  1.3753
19220TIP3   OH279074   1.170   6.279  13.366  0.5067  0.0180  0.2308
19220TIP3    H179075   1.263   6.273  13.344  0.0333 -1.3539 -1.6295
19220TIP3    H279076   1.157   6.212  13.434  0.8566  0.1736  0.4521
19221TIP3   OH279077   2.049   5.530   3.493  0.2663 -0.3469  0.1799
19221TIP3    H179078   1.984   5.484   3.546  0.8601 -0.7713  0.5497
19221TIP3    H279079   2.132   5.517   3.539  0.4517  1.1641  0.3320
19222TIP3   OH279080   4.982   1.235   2.790 -0.1305  0.1061 -0.2386
19222TIP3    H179081   5.073   1.234   2.818  0.3108 -0.1804 -1.6155
19222TIP3    H279082   4.934   1.192   2.861  0.7826  0.3451  0.5355
19223TIP3   OH279083   0.022   0.831  12.636  0.1327  0.5521  0.0147
19223TIP3    H179084   0.016   0.759  12.699 -0.0070 -0.1831 -0.8236
19223TIP3    H279085  -0.067   0.840  12.601  0.8964 -1.6418 -2.8708
19224TIP3   OH279086   3.350   3.198  15.533  0.4463 -0.0786  0.3211
19224TIP3    H179087   3.352   3.294  15.526  0.6067 -0.2054 -2.9488
19224TIP3    H279088   3.414   3.168  15.469 -1.6535 -2.3782 -0.8724
19225TIP3   OH279089   2.286   6.437   1.066 -0.1373  0.0305  0.1720
19225TIP3    H179090   2.229   6.492   1.120  0.1031 -0.0994  0.5608
19225TIP3    H279091   2.337   6.386   1.129  0.3856  0.1196 -0.1750
19226TIP3   OH279092   2.175   4.404   1.878 -0.0165 -0.7537 -0.1274
19226TIP3    H179093   2.238   4.413   1.806  0.0930  2.3429  0.2035
19226TIP3    H279094   2.229   4.410   1.957 -0.6091  1.8152  0.1589
19227TIP3   OH279095   2.220   3.665   0.101 -0.4649 -0.1317 -0.2359
19227TIP3    H179096   2.170   3.612   0.040  2.5555 -2.1010 -1.1786
19227TIP3    H279097   2.302   3.684   0.056 -0.3019  3.1814  1.1148
19228TIP3   OH279098   0.448   3.201  12.859 -0.1748  0.7775 -0.3110
19228TIP3    H179099   0.447   3.239  12.947  2.4740  0.2460  0.0436
19228TIP3    H279100   0.505   3.125  12.867  0.0047  0.6253 -2.4751
19229TIP3   OH279101   6.171   0.626  17.158 -0.6082 -0.4262  0.0284
19229TIP3    H179102   6.106   0.617  17.228 -0.4443 -1.7388  0.0356
19229TIP3    H279103   6.119   0.624  17.077 -0.5044 -3.5365 -0.0733
19230TIP3   OH279104   6.733   6.441  12.826  0.2334  0.3695 -0.2409
19230TIP3    H179105   6.818   6.485  12.832  0.2591  0.2482  0.2650
19230TIP3    H279106   6.721   6.399  12.911 -1.0450  1.6844  0.2678
19231TIP3   OH279107   2.917   4.817   3.882  0.3686 -0.5065 -0.2274
19231TIP3    H179108   2.967   4.785   3.808 -1.2567 -0.0979 -1.5621
19231TIP3    H279109   2.940   4.910   3.889  0.2036 -0.4431 -0.5105
19232TIP3   OH279110   0.665   2.969  10.953 -0.0406  0.0380  0.3109
19232TIP3    H179111   0.680   3.057  10.917 -0.6326  0.0622  0.1195
19232TIP3    H279112   0.721   2.966  11.031  0.8620  0.1691 -0.3227
19233TIP3   OH279113   4.279   0.708   4.064  0.2556 -0.3267 -0.0876
19233TIP3    H179114   4.227   0.764   4.123  0.7800 -1.4567  1.5422
19233TIP3    H279115   4.213   0.662   4.012 -0.2506  0.4599 -0.1610
19234TIP3   OH279116   3.643   5.540   1.749 -0.2358  0.0141  0.1047
19234TIP3    H179117   3.591   5.558   1.827 -0.2567  0.5784 -0.0336
19234TIP3    H279118   3.718   5.491   1.781 -0.1635  0.3775  0.5106
19235TIP3   OH279119   3.569   6.462  12.568 -0.4158  0.2797 -0.1161
19235TIP3    H179120   3.657   6.425  12.559 -0.0377  1.1318  0.0664
19235TIP3    H279121   3.513   6.400  12.521 -0.1538 -1.8235  2.1470
19236TIP3   OH279122   3.311   1.955  17.059 -0.4449 -0.4857 -0.2165
19236TIP3    H179123   3.392   1.999  17.084  0.2301 -2.4689  1.3948
19236TIP3    H279124   3.277   2.007  16.987  1.5463  1.1939 -0.0512
19237TIP3   OH279125   5.554   5.149   1.310  0.5332 -0.1033 -0.1651
19237TIP3    H179126   5.500   5.143   1.388  0.9744  0.2165  0.1691
19237TIP3    H279127   5.566   5.058   1.282  0.6149 -0.2393  0.3075
19238TIP3   OH279128   5.851   3.091   2.509 -0.3406 -0.4124  0.0513
19238TIP3    H179129   5.916   3.122   2.445  0.7117  0.7851  1.6201
19238TIP3    H279130   5.791   3.165   2.519  0.3420 -0.0138  1.4697
19239TIP3   OH279131   3.445   2.848   5.752 -0.2072  0.6842  0.6895
19239TIP3    H179132   3.413   2.928   5.793 -1.3952  0.4539  0.2365
19239TIP3    H279133   3.380   2.827   5.686 -0.5281 -1.2941  1.5718
19240TIP3   OH279134   5.345   2.829   0.868  0.0234 -0.0987 -0.1606
19240TIP3    H179135   5.367   2.814   0.960  0.2578  1.6537  0.1090
19240TIP3    H279136   5.263   2.782   0.855  0.5455 -1.2865  0.6259
19241TIP3   OH279137   4.198   1.905   2.298 -0.3634  0.4139  0.6509
19241TIP3    H179138   4.219   1.898   2.392  0.2818 -2.6509  0.3801
19241TIP3    H279139   4.283   1.902   2.254 -0.7106  1.1108 -0.0937
19242TIP3   OH279140   6.099   1.024   2.840  0.0634  0.7692 -0.3537
19242TIP3    H179141   6.187   1.054   2.861 -0.5402  1.8144  0.8739
19242TIP3    H279142   6.044   1.102   2.854 -1.0267  0.1808 -1.2485
19243TIP3   OH279143   2.273   1.158   3.021 -0.4103 -0.0457 -0.2671
19243TIP3    H179144   2.182   1.133   3.008 -0.6015 -0.0681  0.9309
19243TIP3    H279145   2.323   1.101   2.964 -1.1089 -0.4775 -0.4564
19244TIP3   OH279146   1.988   5.315   2.832  0.2016 -0.1731  0.0712
19244TIP3    H179147   1.915   5.366   2.868 -0.0101  0.2949 -1.0004
19244TIP3    H279148   1.956   5.282   2.749  1.7447  1.4747 -1.2553
19245TIP3   OH279149   5.345   1.835  14.771 -0.6353 -0.0993 -0.0997
19245TIP3    H179150   5.411   1.883  14.822 -0.0799  0.1708 -1.0534
19245TIP3    H279151   5.305   1.776  14.835  2.3749 -2.2646  0.0112
19246TIP3   OH279152   2.980   3.732  11.386  0.1668 -0.3877 -0.0502
19246TIP3    H179153   3.018   3.727  11.473 -1.8153  0.0706  0.8946
19246TIP3    H279154   3.055   3.739  11.327  1.5579  2.8304  1.8360
19247TIP3   OH279155   0.044   6.686   4.092  0.1023  0.3274  0.5011
19247TIP3    H179156   0.124   6.635   4.085  0.0443  0.2917  0.0972
19247TIP3    H279157   0.063   6.768   4.046  0.3440  0.8604  1.5186
19248TIP3   OH279158   2.715   1.494  16.299  0.1545 -0.4584 -0.4540
19248TIP3    H179159   2.783   1.489  16.231 -1.5945 -0.8513 -2.2671
19248TIP3    H279160   2.719   1.409  16.343 -0.0672 -1.0182 -1.4818
19249TIP3   OH279161   3.974   5.290   5.586  0.0328 -0.2304 -0.3180
19249TIP3    H179162   4.050   5.323   5.634 -0.4792  0.0871  0.2959
19249TIP3    H279163   3.948   5.211   5.633 -1.2640  0.7863  0.7718
19250TIP3   OH279164   3.432   4.371  16.014  0.3315  0.0478 -0.0447
19250TIP3    H179165   3.461   4.417  15.935  4.0455 -0.4506  0.8285
19250TIP3    H279166   3.486   4.292  16.016 -1.6767 -1.3659  1.5837
19251TIP3   OH279167   1.072   2.371  15.776  0.2213  0.1222  0.3764
19251TIP3    H179168   1.011   2.382  15.703 -0.4097 -1.3110  0.6564
19251TIP3    H279169   1.018   2.383  15.855  0.3742 -0.6995  0.6201
19252TIP3   OH279170   0.600   3.207   1.913 -0.3641  0.6825 -0.0940
19252TIP3    H179171   0.596   3.276   1.979 -1.4360  1.6227 -1.0999
19252TIP3    H279172   0.511   3.171   1.911 -0.1194  0.0888 -0.4255
19253TIP3   OH279173   2.218   2.145   2.245  0.0927 -0.5394 -0.4914
19253TIP3    H179174   2.185   2.058   2.269 -0.4633 -0.0303  0.6451
19253TIP3    H279175   2.149   2.205   2.272  0.9083  0.3413 -0.3356
19254TIP3   OH279176   1.854   2.231  11.896  0.0794 -0.0021 -0.7018
19254TIP3    H179177   1.853   2.327  11.888 -1.4469 -0.0034 -0.7988
19254TIP3    H279178   1.926   2.213  11.956  0.1208  1.2413 -0.3485
19255TIP3   OH279179   4.441   1.809   1.335 -0.5856  0.3458 -0.4205
19255TIP3    H179180   4.389   1.864   1.275 -1.1549  0.0593 -0.2010
19255TIP3    H279181   4.440   1.722   1.294  1.1590  0.6920 -1.2873
19256TIP3   OH279182   5.580   2.514   0.006  0.3885 -0.2565  0.9029
19256TIP3    H179183   5.607   2.495   0.096  1.3908 -1.4717  0.3808
19256TIP3    H279184   5.490   2.545   0.013  0.5106 -0.1854  2.3345
19257TIP3   OH279185   4.912   2.942  16.923 -0.1261 -0.1553 -0.2552
19257TIP3    H179186   4.985   2.950  16.985  0.1778  1.2303 -0.7647
19257TIP3    H279187   4.943   2.985  16.843 -1.2078 -0.2639 -0.7497
19258TIP3   OH279188   2.894   3.211   5.360 -0.3178 -0.1396 -0.3592
19258TIP3    H179189   2.919   3.252   5.277 -0.0298  1.3075  0.4192
19258TIP3    H279190   2.802   3.188   5.348 -0.3081  0.1511 -1.0443
19259TIP3   OH279191   5.156   2.903   3.309 -0.6477  0.1141 -0.3354
19259TIP3    H179192   5.111   2.985   3.329 -0.4928 -0.0145  0.6193
19259TIP3    H279193   5.142   2.849   3.387  1.4412  0.1996  0.1813
19260TIP3   OH279194   0.766   0.862  15.667  0.4619 -0.4756  0.2590
19260TIP3    H179195   0.848   0.860  15.717  0.7689 -1.0646 -0.2467
19260TIP3    H279196   0.771   0.785  15.611  1.2797  1.4242 -2.4741
19261TIP3   OH279197   3.971   3.471   6.734 -0.0352  0.3847 -0.0449
19261TIP3    H179198   3.952   3.401   6.672  0.1872  0.2372  0.0546
19261TIP3    H279199   3.885   3.496   6.768 -0.0777 -0.1221  0.2316
19262TIP3   OH279200   1.754   6.073  11.135  0.0670  0.4681  0.0359
19262TIP3    H179201   1.726   6.106  11.050 -0.3291 -2.2510 -0.9869
19262TIP3    H279202   1.673   6.047  11.178  0.4074  0.2632  0.5621
19263TIP3   OH279203   2.627   5.384   1.235 -0.9260  0.5033 -0.2624
19263TIP3    H179204   2.541   5.418   1.258 -1.3227 -0.9729  0.5632
19263TIP3    H279205   2.609   5.298   1.197  0.1676  0.3239 -0.3970
19264TIP3   OH279206   6.051   4.031   3.149  0.2542  0.2653  0.8052
19264TIP3    H179207   6.098   4.068   3.074  0.3397 -1.0779  0.1631
19264TIP3    H279208   6.119   3.999   3.208  0.1767  0.5466  1.0481
19265TIP3   OH279209   6.723   3.083  12.776  0.6562  0.1314 -0.1488
19265TIP3    H179210   6.699   3.170  12.742  2.0412  0.2275 -0.9513
19265TIP3    H279211   6.668   3.023  12.726 -1.8229  0.5947  1.8228
19266TIP3   OH279212   2.228   5.944   5.603 -0.0740 -0.4128 -0.5118
19266TIP3    H179213   2.213   5.982   5.517  0.8099 -0.1973 -0.5816
19266TIP3    H279214   2.313   5.980   5.631 -0.2175 -0.6943  0.3230
19267TIP3   OH279215   5.531   2.385  11.645  0.1223  0.2098  0.2343
19267TIP3    H179216   5.622   2.382  11.676  0.9090 -0.5298 -1.9630
19267TIP3    H279217   5.536   2.429  11.560 -1.6582  0.5772  0.2924
19268TIP3   OH279218   4.564   3.110  11.257 -0.3303 -0.4180 -0.0701
19268TIP3    H179219   4.644   3.058  11.269 -1.0311 -2.2847 -2.5444
19268TIP3    H279220   4.588   3.176  11.192 -0.4898 -0.1907  0.1002
19269TIP3   OH279221   5.048   1.055   0.835  0.2004  0.0584 -0.4789
19269TIP3    H179222   4.997   1.136   0.837 -1.0502 -0.6992 -0.8717
19269TIP3    H279223   5.112   1.065   0.906 -1.8921  0.1517  1.4988
19270TIP3   OH279224   0.263   6.134  10.395 -0.6077 -0.0169  0.0120
19270TIP3    H179225   0.336   6.088  10.437 -0.7142 -1.2028 -1.0262
19270TIP3    H279226   0.187   6.116  10.451 -0.4890 -0.4473  0.0342
19271TIP3   OH279227   1.643   1.901   3.605  0.7723  0.6015  0.2701
19271TIP3    H179228   1.616   1.928   3.693  0.8002  1.4744  0.0204
19271TIP3    H279229   1.627   1.806   3.603 -2.1081  1.0096  0.1895
19272TIP3   OH279230   2.140   0.193  15.889 -0.0313  0.2056  0.0304
19272TIP3    H179231   2.070   0.187  15.824  0.0118 -0.2329  0.0194
19272TIP3    H279232   2.123   0.121  15.949 -0.4886  1.0558  0.9313
19273TIP3   OH279233   2.702   5.122  12.381 -0.6755  0.1196  0.1286
19273TIP3    H179234   2.651   5.203  12.384 -1.3432 -0.2082 -1.4951
19273TIP3    H279235   2.654   5.065  12.321 -0.6639 -1.8243  1.8469
19274TIP3   OH279236   2.341   5.250   0.076 -0.6344  0.3978  0.1503
19274TIP3    H179237   2.247   5.234   0.067 -0.2421 -1.2438 -1.7342
19274TIP3    H279238   2.349   5.345   0.087 -2.3999  0.8112 -1.6544
19275TIP3   OH279239   1.454   0.210   2.487 -0.1218 -0.0058  0.3302
19275TIP3    H179240   1.508   0.209   2.566 -0.8785 -1.3749  0.8691
19275TIP3    H279241   1.367   0.234   2.518 -0.0399  1.2890 -0.3943
19276TIP3   OH279242   2.017   4.569   2.825 -0.4304  0.5577 -0.0522
19276TIP3    H179243   2.071   4.587   2.748  0.3196 -1.9725 -0.1780
19276TIP3    H279244   2.038   4.641   2.885  0.9307  1.1715 -1.1872
19277TIP3   OH279245   4.568   1.710   2.549 -0.0170 -0.5357 -0.3872
19277TIP3    H179246   4.529   1.623   2.537  0.7526 -1.0610  0.6710
19277TIP3    H279247   4.658   1.700   2.521  0.5461 -0.5709  1.3058
19278TIP3   OH279248   2.873   4.877  11.423 -0.2354  0.2673  0.1444
19278TIP3    H179249   2.855   4.820  11.348 -0.7232  0.2892  0.2376
19278TIP3    H279250   2.917   4.953  11.385 -1.3495  0.7227 -0.2712
19279TIP3   OH279251   4.431   2.151  13.371 -0.4894  0.2559 -0.5925
19279TIP3    H179252   4.363   2.084  13.371  1.2740 -1.6513  0.3557
19279TIP3    H279253   4.476   2.139  13.455  2.3904 -0.0855 -2.0733
19280TIP3   OH279254   3.790   0.880   0.310  0.2816  0.2790 -0.3349
19280TIP3    H179255   3.799   0.793   0.271 -0.9818  0.0917 -0.2442
19280TIP3    H279256   3.858   0.883   0.377 -0.6674 -1.2929  0.7814
19281TIP3   OH279257   3.047   3.971   4.115 -0.0117 -0.0620  0.4472
19281TIP3    H179258   3.127   4.008   4.151 -0.8504  0.3008  2.0552
19281TIP3    H279259   3.013   3.915   4.184 -1.9014  0.9477  0.4323
19282TIP3   OH279260   1.094   3.852   0.418 -0.5519 -0.2300  0.1777
19282TIP3    H179261   1.150   3.907   0.473  0.2714  0.3586 -1.1744
19282TIP3    H279262   1.154   3.785   0.383 -0.8912 -0.1861 -0.5093
19283TIP3   OH279263   5.694   3.833  13.406  0.5161  0.3655 -0.3836
19283TIP3    H179264   5.633   3.889  13.455  1.0440  1.1142 -0.5555
19283TIP3    H279265   5.762   3.811  13.469  0.0519 -0.5111 -0.1776
19284TIP3   OH279266   4.327   0.630  12.943  0.1163  0.3371  0.4547
19284TIP3    H179267   4.390   0.600  12.877 -0.2500  1.6995 -0.5610
19284TIP3    H279268   4.375   0.695  12.995  0.1164 -0.0275  0.9124
19285TIP3   OH279269   0.222   2.592  15.747  0.1691  0.3174  0.3999
19285TIP3    H179270   0.207   2.567  15.838 -0.5193 -1.0456 -0.0597
19285TIP3    H279271   0.218   2.510  15.699 -0.2242  1.0983 -0.9578
19286TIP3   OH279272   2.958   0.867  15.861  0.1038 -0.1731  0.2958
19286TIP3    H179273   3.010   0.837  15.786 -0.5835  0.7596 -0.5927
19286TIP3    H279274   2.954   0.962  15.850  0.7078  0.0851  2.0136
19287TIP3   OH279275   2.522   0.462   3.687 -0.3244 -0.6169  0.0286
19287TIP3    H179276   2.549   0.512   3.764 -0.9903  0.6492 -0.5239
19287TIP3    H279277   2.602   0.449   3.638 -0.1523  0.0133  0.1335
19288TIP3   OH279278   5.993   2.896   0.613 -0.0832 -0.1606  0.2500
19288TIP3    H179279   5.995   2.989   0.639  1.8086  0.2225 -1.0108
19288TIP3    H279280   6.072   2.859   0.652 -0.5358 -1.1210  0.2806
19289TIP3   OH279281   1.856   5.095   5.278  0.9099  0.7509 -0.7558
19289TIP3    H179282   1.869   5.005   5.248  0.8272  0.6025 -0.3502
19289TIP3    H279283   1.770   5.095   5.319  0.0668  1.4626 -2.4316
19290TIP3   OH279284   0.285   5.315   2.425  0.7627  0.5307 -0.0564
19290TIP3    H179285   0.223   5.294   2.354  0.4350  1.7605 -0.1442
19290TIP3    H279286   0.304   5.230   2.465 -1.0770  0.1296  0.0519
19291TIP3   OH279287   4.522   1.438  13.580 -0.2750 -0.0433  0.1491
19291TIP3    H179288   4.599   1.431  13.636 -0.8879 -0.0322  1.0233
19291TIP3    H279289   4.543   1.508  13.518 -0.1975  1.1034  1.4267
19292TIP3   OH279290   2.716   5.424   0.129  0.5042 -0.4669  0.0901
19292TIP3    H179291   2.651   5.406   0.060  0.4117 -0.8437  0.2756
19292TIP3    H279292   2.797   5.441   0.081  0.3891 -0.5124 -0.1229
19293TIP3   OH279293   3.402   5.434  11.337 -0.0595 -0.6870 -0.4244
19293TIP3    H179294   3.477   5.398  11.384 -1.2312 -1.5874  0.8429
19293TIP3    H279295   3.392   5.376  11.261  0.4779 -0.6055 -0.5608
19294TIP3   OH279296   0.297   5.705  12.566  0.3520 -0.0407  0.0779
19294TIP3    H179297   0.230   5.706  12.634 -0.3491 -0.6248 -0.5786
19294TIP3    H279298   0.321   5.613  12.558  0.1366 -0.0366 -0.7271
19295TIP3   OH279299   0.035   3.157   6.598 -0.2826 -0.1530  0.1851
19295TIP3    H179300   0.087   3.087   6.558  0.3777  0.5920 -0.2894
19295TIP3    H279301  -0.008   3.200   6.525  0.0463  0.5135  0.3714
19296TIP3   OH279302   0.569   1.544  13.069 -0.9902 -0.0381  0.0279
19296TIP3    H179303   0.502   1.574  13.129 -0.2131  1.7956  0.0404
19296TIP3    H279304   0.650   1.584  13.102 -0.1293 -1.0428 -0.7987
19297TIP3   OH279305   0.327   4.067   2.299  0.2958  0.1016  0.1609
19297TIP3    H179306   0.379   4.115   2.364 -0.2035  1.9187 -0.7173
19297TIP3    H279307   0.320   4.127   2.225 -1.6336 -0.7387 -0.4002
19298TIP3   OH279308   3.763   5.767   3.055 -0.7376  0.9668 -0.4144
19298TIP3    H179309   3.724   5.696   3.107  0.9999  0.0686 -0.2823
19298TIP3    H279310   3.857   5.755   3.065 -0.3948  3.0193 -0.7975
19299TIP3   OH279311   3.156   2.764  15.831  0.1943  0.2934 -0.0524
19299TIP3    H179312   3.206   2.721  15.900 -3.9393 -1.3726  2.2625
19299TIP3    H279313   3.142   2.853  15.863 -0.3198  0.0102  0.5525
19300TIP3   OH279314   6.732   3.225   2.570 -0.4121 -0.5047 -0.9184
19300TIP3    H179315   6.650   3.221   2.620 -0.2969  1.8004 -0.4070
19300TIP3    H279316   6.796   3.179   2.625 -1.1500 -1.5688 -0.9166
19301TIP3   OH279317   5.110   2.143   4.921 -0.4028  0.2457  0.5063
19301TIP3    H179318   5.016   2.129   4.928 -0.2376 -0.7372  1.0034
19301TIP3    H279319   5.147   2.055   4.927  0.4410  0.3864 -1.8265
19302TIP3   OH279320   1.178   2.296   6.452 -0.2363  0.3449  0.0300
19302TIP3    H179321   1.097   2.346   6.453 -0.4492 -0.0124  0.8899
19302TIP3    H279322   1.225   2.323   6.531 -0.0209 -0.2700  0.1203
19303TIP3   OH279323   0.821   0.195  13.106 -0.5137 -0.0981  0.5153
19303TIP3    H179324   0.831   0.290  13.101  1.5497 -0.1902  1.5455
19303TIP3    H279325   0.745   0.182  13.162  0.8344  1.0281  2.7431
19304TIP3   OH279326   6.411   6.090   0.230 -0.7596  0.4626  0.4527
19304TIP3    H179327   6.447   6.085   0.141 -1.3253 -1.6249  0.2905
19304TIP3    H279328   6.359   6.170   0.230 -2.0040 -0.2713 -1.5973
19305TIP3   OH279329   2.548   3.527   5.145 -0.2432 -0.4768  0.0399
19305TIP3    H179330   2.515   3.616   5.147  0.9319  0.1003 -2.3781
19305TIP3    H279331   2.555   3.502   5.237 -3.6308  0.6851  0.7733
19306TIP3   OH279332   4.349   4.588   4.547 -0.6241 -0.1137  0.0283
19306TIP3    H179333   4.257   4.568   4.560 -0.8633  0.6944 -0.3786
19306TIP3    H279334   4.391   4.562   4.629 -1.2454 -0.2772  0.2981
19307TIP3   OH279335   3.105   0.491   3.666 -0.6479 -0.3472  0.2009
19307TIP3    H179336   3.016   0.457   3.656 -0.8392  0.4417 -0.9703
19307TIP3    H279337   3.143   0.439   3.737 -1.7595 -1.2505  0.1550
19308TIP3   OH279338   4.153   3.402  14.160 -0.0610  0.0583 -0.2005
19308TIP3    H179339   4.097   3.474  14.131  0.3380  0.6838  0.5528
19308TIP3    H279340   4.127   3.329  14.104 -1.1149  0.5272 -0.3685
19309TIP3   OH279341   4.017   0.430   5.536  0.1629 -0.0188  0.1288
19309TIP3    H179342   4.033   0.440   5.443  0.8199 -0.6025  0.1622
19309TIP3    H279343   3.934   0.381   5.542  1.0610 -1.6774 -0.2252
19310TIP3   OH279344   1.651   0.273  17.175 -0.0155 -0.2767  0.5892
19310TIP3    H179345   1.611   0.358  17.162 -0.6132 -0.7433 -0.8014
19310TIP3    H279346   1.584   0.210  17.150  1.2332 -1.0936 -0.9498
19311TIP3   OH279347   6.190   0.649   2.682  0.0384 -0.3094 -0.1811
19311TIP3    H179348   6.141   0.608   2.611 -0.7254 -0.7676  0.5816
19311TIP3    H279349   6.122   0.678   2.744  0.6373  0.8941 -0.0621
19312TIP3   OH279350   2.193   3.176   4.398 -0.5468  0.3784 -0.2188
19312TIP3    H179351   2.217   3.228   4.321  1.7539  1.4338  1.1244
19312TIP3    H279352   2.268   3.118   4.413 -2.1824 -1.9793 -0.4376
19313TIP3   OH279353   1.360   2.582   4.537  0.5299  0.2880 -0.1470
19313TIP3    H179354   1.341   2.655   4.597  1.0212 -0.9039  1.5173
19313TIP3    H279355   1.286   2.582   4.476  0.7673  2.4826 -0.5251
19314TIP3   OH279356   5.827   3.261   5.495  0.3534  0.4748  0.0009
19314TIP3    H179357   5.770   3.201   5.448 -1.2210  2.7714 -1.1976
19314TIP3    H279358   5.853   3.326   5.430  1.3607  1.5392  1.3980
19315TIP3   OH279359   0.596   1.645   4.943 -0.9321 -0.5892  0.5683
19315TIP3    H179360   0.664   1.654   5.011 -0.6915 -1.1799  0.4103
19315TIP3    H279361   0.516   1.674   4.986 -1.1353 -2.6144  1.7120
19316TIP3   OH279362   5.445   3.017  14.706  0.3595 -0.5302 -0.0618
19316TIP3    H179363   5.372   3.020  14.645 -1.8332 -0.0195  2.4245
19316TIP3    H279364   5.489   2.935  14.686  0.7312  0.2941 -3.2645
19317TIP3   OH279365   2.519   2.921   0.177  0.1011  0.3597 -0.2532
19317TIP3    H179366   2.428   2.942   0.154  0.0606 -1.5441 -2.1942
19317TIP3    H279367   2.514   2.833   0.216  1.0644  0.3948 -0.0333
19318TIP3   OH279368   1.136   0.198   4.548 -0.0421 -0.0640  0.4207
19318TIP3    H179369   1.191   0.129   4.512 -1.4354 -1.8499  1.4932
19318TIP3    H279370   1.079   0.224   4.475 -0.5218 -1.1772  0.3735
19319TIP3   OH279371   3.892   6.093  16.566  0.2565 -0.0709 -0.3187
19319TIP3    H179372   3.851   6.133  16.642  0.5619  0.8520 -0.6293
19319TIP3    H279373   3.882   5.999  16.580 -0.1893  0.1022  0.5777
19320TIP3   OH279374   1.431   1.656   2.516 -0.0398 -0.5694  0.2441
19320TIP3    H179375   1.476   1.721   2.571  0.6921 -1.5767  0.8809
19320TIP3    H279376   1.359   1.624   2.571 -0.9707  0.3283 -0.4091
19321TIP3   OH279377   2.484   0.643   1.364 -0.2676 -0.7100  0.2613
19321TIP3    H179378   2.392   0.653   1.386  0.3962  2.5604  2.2138
19321TIP3    H279379   2.523   0.600   1.440 -0.0343 -1.4473 -0.2606
19322TIP3   OH279380   6.514   6.701   4.769 -0.5524  0.3175  0.0538
19322TIP3    H179381   6.443   6.746   4.723 -1.0713  1.4709  1.8814
19322TIP3    H279382   6.570   6.667   4.699 -1.2492  2.0415 -1.4234
19323TIP3   OH279383   2.614   3.353  12.402  0.3654  0.1206  0.0263
19323TIP3    H179384   2.521   3.332  12.396  0.6934 -1.0784 -1.4219
19323TIP3    H279385   2.638   3.328  12.492 -0.3061 -1.4795 -0.1945
19324TIP3   OH279386   5.476   4.245  13.756  0.2968 -0.0089 -0.2348
19324TIP3    H179387   5.417   4.299  13.704  0.3220  1.2735  1.0091
19324TIP3    H279388   5.511   4.181  13.694 -1.2423  0.1408 -1.3164
19325TIP3   OH279389   4.432   5.279   5.171 -0.0576  0.0814 -0.3650
19325TIP3    H179390   4.480   5.360   5.155 -0.1377 -0.0591 -1.3954
19325TIP3    H279391   4.498   5.211   5.168  0.3274  0.2351  2.4026
19326TIP3   OH279392   6.319   3.084   1.877  0.0370 -0.7014  0.8331
19326TIP3    H179393   6.384   3.044   1.935  0.7297  1.2536  1.4941
19326TIP3    H279394   6.371   3.135   1.815 -0.8379  0.0862  0.7383
19327TIP3   OH279395   6.641   5.921  14.545  0.1164 -0.0548 -0.2167
19327TIP3    H179396   6.715   5.921  14.607  0.4555  1.4492 -0.5787
19327TIP3    H279397   6.597   6.004  14.561 -1.7553 -1.0908  0.2393
19328TIP3   OH279398   5.807   6.310  11.249 -0.2182 -0.4076 -0.4036
19328TIP3    H179399   5.842   6.245  11.309  0.4915 -0.2418 -0.6318
19328TIP3    H279400   5.744   6.263  11.195  1.1695 -1.2058 -1.3897
19329TIP3   OH279401   0.785   1.737   1.137  0.2911 -0.0274  0.4374
19329TIP3    H179402   0.876   1.710   1.152  0.8900  2.3362  1.5457
19329TIP3    H279403   0.753   1.678   1.069  3.7596  1.2223 -2.6181
19330TIP3   OH279404   6.277   0.612   5.647  0.4182  0.2235 -0.1683
19330TIP3    H179405   6.309   0.532   5.604 -1.7455 -1.9564  2.0171
19330TIP3    H279406   6.202   0.639   5.594  0.2521 -0.0573 -0.0777
19331TIP3   OH279407   1.216   1.222   2.648  0.1333  0.1342 -0.4343
19331TIP3    H179408   1.193   1.144   2.697 -0.0812  0.3730 -0.1503
19331TIP3    H279409   1.262   1.278   2.710  0.7448  0.0188 -0.7754
19332TIP3   OH279410   4.818   2.452  13.156  0.5313 -0.1162  0.5475
19332TIP3    H179411   4.803   2.360  13.136  0.5500  0.0429 -0.2618
19332TIP3    H279412   4.886   2.479  13.093  2.9814 -0.3706  2.9019
19333TIP3   OH279413   2.535   5.075   0.002  0.2087 -0.8163 -0.1651
19333TIP3    H179414   2.544   5.088  -0.092  2.1334  0.6961  0.1614
19333TIP3    H279415   2.468   5.139   0.029 -0.9019 -1.7782 -0.5813
19334TIP3   OH279416   0.418   5.402   3.030 -0.0980  0.6908  0.3476
19334TIP3    H179417   0.464   5.471   2.982  1.0357  0.1953  0.6782
19334TIP3    H279418   0.338   5.387   2.980  0.5240  0.9590 -0.7614
19335TIP3   OH279419   1.873   5.998  12.995  0.1257 -0.0215  0.4851
19335TIP3    H179420   1.792   5.994  13.046  0.3076 -2.7360  0.7183
19335TIP3    H279421   1.926   6.063  13.040 -0.9978  0.0322  1.7978
19336TIP3   OH279422   5.135   1.990   5.605 -0.7252 -0.0655 -0.1412
19336TIP3    H179423   5.126   1.898   5.580 -2.0685  0.1848 -0.6369
19336TIP3    H279424   5.229   2.002   5.619 -0.5214 -1.4740 -0.2085
19337TIP3   OH279425   0.955   4.099  12.302 -0.0587 -0.1443 -0.4424
19337TIP3    H179426   0.990   4.010  12.307  0.9885  0.2814  0.1406
19337TIP3    H279427   0.903   4.109  12.383  3.4113  1.1825  1.8780
19338TIP3   OH279428   1.930   2.724  11.733  0.1381 -0.2399  0.0928
19338TIP3    H179429   2.010   2.776  11.746  0.2977 -0.4130 -0.1907
19338TIP3    H279430   1.879   2.775  11.669  0.1089 -0.2260  0.1271
19339TIP3   OH279431   4.849   6.305   2.742 -0.3942  0.1688 -0.1932
19339TIP3    H179432   4.887   6.315   2.829 -1.8275  1.1196  0.3641
19339TIP3    H279433   4.767   6.258   2.758 -0.6615  0.3400 -1.0386
19340TIP3   OH279434   3.757   0.243   0.551 -0.1385 -0.3271  0.1795
19340TIP3    H179435   3.747   0.335   0.573 -0.5199 -0.2449 -0.3334
19340TIP3    H279436   3.774   0.242   0.456  0.0700 -0.7671  0.2166
19341TIP3   OH279437   2.510   5.132   3.166  0.2568 -0.6559  0.3843
19341TIP3    H179438   2.418   5.118   3.187 -0.4602  1.4040 -1.0589
19341TIP3    H279439   2.542   5.193   3.232  0.2644 -0.4924  0.2312
19342TIP3   OH279440   3.008   2.524  16.957 -0.2066  0.2993 -0.0164
19342TIP3    H179441   3.061   2.548  16.882  0.1061 -0.7616 -0.1421
19342TIP3    H279442   2.918   2.520  16.924 -0.2836  1.3290  0.0269
19343TIP3   OH279443   3.578   3.047   2.395 -0.6415 -0.1416 -0.4945
19343TIP3    H179444   3.656   3.036   2.340 -0.1374  0.5140  0.0676
19343TIP3    H279445   3.562   3.141   2.395  0.0511  0.0143  1.3651
19344TIP3   OH279446   3.082   0.417  13.212  0.2689 -0.0012  0.8041
19344TIP3    H179447   3.114   0.469  13.138 -0.3702  0.2150  0.6710
19344TIP3    H279448   3.146   0.432  13.281 -0.4097  1.7798  1.1034
19345TIP3   OH279449   3.420   6.537   3.256  0.1865  0.2696 -0.4745
19345TIP3    H179450   3.514   6.543   3.277  0.2474  1.1917 -0.9343
19345TIP3    H279451   3.411   6.452   3.212  0.2888 -1.0842  1.9331
19346TIP3   OH279452   3.050   4.443   0.633 -0.3325  0.4425  0.1546
19346TIP3    H179453   3.044   4.516   0.572 -1.6026  1.0223  0.9427
19346TIP3    H279454   3.144   4.428   0.643 -0.0886  0.9660 -1.1868
19347TIP3   OH279455   6.401   2.264  15.932  0.1674 -0.0107 -0.3937
19347TIP3    H179456   6.376   2.205  15.862  2.7554 -0.0507 -1.4036
19347TIP3    H279457   6.435   2.341  15.888  1.3062  0.2080  0.7862
19348TIP3   OH279458   0.372   0.968  16.476 -0.4516 -0.0727 -0.4571
19348TIP3    H179459   0.347   0.933  16.390 -0.8591  0.6324 -0.6281
19348TIP3    H279460   0.404   0.892  16.523  0.2892 -0.3795 -1.4196
19349TIP3   OH279461   1.935   0.336  11.800  0.4928  0.2886  0.1742
19349TIP3    H179462   1.924   0.393  11.876  0.9614 -0.3023  0.6942
19349TIP3    H279463   1.967   0.394  11.731 -0.4840  0.9423  0.2535
19350TIP3   OH279464   5.575   0.945  16.689  0.1253  0.3528 -0.2898
19350TIP3    H179465   5.646   1.007  16.706 -0.5247  0.7389  1.1672
19350TIP3    H279466   5.555   0.907  16.775 -1.4167  0.2284 -0.6714
19351TIP3   OH279467   1.626   3.134   1.409 -0.2663  0.1051 -0.0302
19351TIP3    H179468   1.545   3.108   1.366  0.8660 -1.3182 -1.4449
19351TIP3    H279469   1.599   3.196   1.476 -2.3030  1.2658 -1.7844
19352TIP3   OH279470   2.291   3.132  15.595 -0.1548 -0.7542  0.2044
19352TIP3    H179471   2.316   3.040  15.604  0.6041 -0.3631  3.6551
19352TIP3    H279472   2.373   3.179  15.584 -0.3439 -0.3445  0.4994
19353TIP3   OH279473   5.350   0.757   5.589 -0.0124 -0.1367  0.1225
19353TIP3    H179474   5.289   0.781   5.519  0.2620  0.8986  0.2201
19353TIP3    H279475   5.366   0.664   5.576 -0.9819 -0.2410 -0.3955
19354TIP3   OH279476   1.219   1.329   0.726 -0.3892  0.0845 -0.2428
19354TIP3    H179477   1.231   1.351   0.818  0.7557 -2.3833  0.2906
19354TIP3    H279478   1.256   1.403   0.678  0.3144  0.7742  1.2958
19355TIP3   OH279479   3.282   1.285   5.472  0.0341 -0.0145  0.1026
19355TIP3    H179480   3.273   1.371   5.513 -1.2229  0.2933 -0.7409
19355TIP3    H279481   3.213   1.232   5.513  1.9767 -1.2474  2.0007
19356TIP3   OH279482   1.131   2.219   1.917 -0.4076  0.0969 -0.1144
19356TIP3    H179483   1.138   2.258   2.004  1.3793 -0.4972  0.0523
19356TIP3    H279484   1.042   2.239   1.889 -0.5778  1.5027  1.2703
19357TIP3   OH279485   3.689   3.323  16.330 -0.1656  0.2295 -1.0526
19357TIP3    H179486   3.658   3.413  16.339 -0.4252  0.2086 -1.6218
19357TIP3    H279487   3.637   3.288  16.257  0.3389 -0.1960 -1.2148
19358TIP3   OH279488   6.532   0.460  14.684  0.4223  0.0946 -0.0714
19358TIP3    H179489   6.560   0.501  14.602  0.0107 -1.8910 -1.2861
19358TIP3    H279490   6.487   0.530  14.731  2.0269  1.7026 -0.8115
19359TIP3   OH279491   4.893   0.978   0.484 -0.0438 -0.3550  0.0587
19359TIP3    H179492   4.974   1.025   0.504 -0.4217  0.0401  0.7035
19359TIP3    H279493   4.879   0.992   0.390  0.6914 -0.5267 -0.0798
19360TIP3   OH279494   4.601   3.717   1.948  0.2586 -0.6272  0.1493
19360TIP3    H179495   4.629   3.685   2.034 -0.6315 -1.3620  0.1857
19360TIP3    H279496   4.545   3.792   1.968  0.1145 -0.7499  0.2077
19361TIP3   OH279497   1.053   0.018   5.695 -0.3281  0.4954  0.0901
19361TIP3    H179498   1.069  -0.018   5.608  2.4158  0.1718  0.6263
19361TIP3    H279499   1.017  -0.054   5.745  0.9059 -0.2524 -0.0422
19362TIP3   OH279500   2.619   2.168   0.117 -0.7973 -0.3187  0.5600
19362TIP3    H179501   2.603   2.130   0.031  2.0634 -0.0798 -0.1829
19362TIP3    H279502   2.543   2.224   0.134 -2.6528 -2.3515 -0.5831
19363TIP3   OH279503   6.637   1.262   0.640  0.2411 -0.6557  0.8911
19363TIP3    H179504   6.572   1.332   0.636  0.3207 -0.6105  0.2195
19363TIP3    H279505   6.603   1.195   0.581 -1.1972 -2.3971  3.5211
19364TIP3   OH279506   3.838   1.228  12.963  0.4980 -0.2377 -0.1064
19364TIP3    H179507   3.861   1.239  13.055 -0.8957  1.3996  0.0800
19364TIP3    H279508   3.890   1.293  12.917  0.3482 -0.2922 -0.3533
19365TIP3   OH279509   4.273   5.170  12.327 -0.2107  0.0713  0.6740
19365TIP3    H179510   4.235   5.153  12.413 -0.1195  0.1924  0.7372
19365TIP3    H279511   4.324   5.091  12.307  0.6045  0.4610  1.1812
19366TIP3   OH279512   1.949   6.568   5.201  0.2725 -0.5615 -0.4255
19366TIP3    H179513   1.906   6.613   5.274  2.0498  1.0712 -0.3136
19366TIP3    H279514   2.028   6.530   5.240  0.1816 -1.4737 -1.1021
19367TIP3   OH279515   1.864   5.207   4.132 -0.2185  0.1781  0.2407
19367TIP3    H179516   1.944   5.184   4.178  0.4912  0.3216 -0.8988
19367TIP3    H279517   1.887   5.282   4.078 -1.7921  1.9498  1.8288
19368TIP3   OH279518   2.299   1.487  10.382  0.4178  0.5950  0.3819
19368TIP3    H179519   2.237   1.558  10.398 -0.5425 -0.5164  1.8717
19368TIP3    H279520   2.244   1.409  10.373  1.5054 -0.1243 -0.2943
19369TIP3   OH279521   3.573   3.131   5.738  0.2134  0.3570 -0.0319
19369TIP3    H179522   3.644   3.113   5.800 -0.7895  0.6310  1.2594
19369TIP3    H279523   3.493   3.123   5.791 -0.8127 -1.0419 -1.6723
19370TIP3   OH279524   2.360   6.239  15.955 -0.3887  0.4119  0.4598
19370TIP3    H179525   2.395   6.165  16.005 -0.2083 -0.3709 -0.7762
19370TIP3    H279526   2.267   6.220  15.945 -0.2430  0.0668 -0.3101
19371TIP3   OH279527   5.519   3.135   5.372 -0.1095  0.7089 -0.3734
19371TIP3    H179528   5.438   3.185   5.368 -0.7778 -0.0552  1.9597
19371TIP3    H279529   5.522   3.101   5.461  2.5669  0.3255 -0.5196
19372TIP3   OH279530   6.482   3.983   0.026  0.3220  0.1557  0.7833
19372TIP3    H179531   6.426   4.051  -0.013 -1.0135 -0.5594  1.3929
19372TIP3    H279532   6.503   3.925  -0.046  0.4929  0.5668  0.4982
19373TIP3   OH279533   6.233   2.270   0.688  0.2836  0.0588  0.0996
19373TIP3    H179534   6.162   2.296   0.629 -0.2536  1.8379  1.4286
19373TIP3    H279535   6.303   2.241   0.630 -0.2078  1.7683 -1.4537
19374TIP3   OH279536   1.277   6.220   2.104 -0.6690 -0.6933  0.6757
19374TIP3    H179537   1.327   6.173   2.036  0.7145  1.4463  0.1021
19374TIP3    H279538   1.186   6.197   2.086 -0.1188 -2.9195  0.3006
19375TIP3   OH279539   2.250   2.849  16.365  0.0350  0.0388 -0.5809
19375TIP3    H179540   2.306   2.771  16.366  1.1133  0.6671  3.2992
19375TIP3    H279541   2.310   2.921  16.351 -0.2516  0.4817  0.3951
19376TIP3   OH279542   1.387   3.284   4.979  0.0688 -0.0298  0.2434
19376TIP3    H179543   1.449   3.240   4.921 -1.3698  0.5480 -1.8627
19376TIP3    H279544   1.320   3.217   4.997 -0.9082  0.5474 -1.0671
19377TIP3   OH279545   4.050   3.384  10.504  0.3844 -0.3097  0.0333
19377TIP3    H179546   3.966   3.420  10.532  0.7575  1.1362 -0.5665
19377TIP3    H279547   4.090   3.351  10.584  0.3710  1.4411  0.8214
19378TIP3   OH279548   5.392   0.686   0.083  0.4640  0.1655 -0.6053
19378TIP3    H179549   5.318   0.723   0.131  0.3108  2.9709 -2.7501
19378TIP3    H279550   5.468   0.707   0.137 -0.1022 -1.5015  0.9297
19379TIP3   OH279551   1.984   6.221  10.505  0.4789 -0.4318  0.2844
19379TIP3    H179552   1.907   6.267  10.472 -0.3234 -1.6990  0.3500
19379TIP3    H279553   1.953   6.134  10.530  1.5262 -0.3523  2.1451
19380TIP3   OH279554   5.549   2.859  14.933 -0.0698  0.2194  0.7913
19380TIP3    H179555   5.536   2.764  14.933  0.6154  0.0737 -1.2918
19380TIP3    H279556   5.591   2.877  14.849 -1.6968  2.5828  0.4070
19381TIP3   OH279557   2.047   6.595  11.538  0.1302 -0.2669 -0.0332
19381TIP3    H179558   2.002   6.557  11.613  1.0917  0.7786  1.1097
19381TIP3    H279559   2.059   6.687  11.561 -1.6387  0.6933 -2.4859
19382TIP3   OH279560   2.530   4.510  14.069 -0.4628 -0.0290 -0.0684
19382TIP3    H179561   2.614   4.465  14.066 -0.4965 -0.1108  0.1944
19382TIP3    H279562   2.466   4.443  14.045 -0.5827 -0.3066  0.9690
19383TIP3   OH279563   6.198   4.716  17.049 -0.1946  0.1204  0.0873
19383TIP3    H179564   6.178   4.703  16.956  0.6791  0.9479 -0.2248
19383TIP3    H279565   6.130   4.775  17.080 -1.3836 -1.3198  0.3675
19384TIP3   OH279566   1.249   5.906  15.653  0.0820 -0.2106  0.3604
19384TIP3    H179567   1.307   5.836  15.682 -0.4721 -0.8322 -0.0217
19384TIP3    H279568   1.294   5.947  15.579  1.3710  1.1951  1.8490
19385TIP3   OH279569   6.245   1.951  14.495 -0.0429  0.3950 -0.5429
19385TIP3    H179570   6.221   1.891  14.424 -0.8974  1.2901 -1.0399
19385TIP3    H279571   6.314   2.005  14.458  0.1538  0.2668 -0.3685
19386TIP3   OH279572   2.398   4.089  12.809  0.2835 -0.4575  0.9566
19386TIP3    H179573   2.388   4.032  12.732  0.1507 -1.4481  1.6878
19386TIP3    H279574   2.439   4.169  12.774 -0.2905 -0.6562 -0.2337
19387TIP3   OH279575   6.107   6.274   3.295 -0.1838 -0.6178  0.9124
19387TIP3    H179576   6.058   6.322   3.228 -0.7331  1.1461  2.5129
19387TIP3    H279577   6.076   6.184   3.287 -1.5896 -0.0890  0.0222
19388TIP3   OH279578   1.453   5.104   2.052  0.1280 -0.0116  0.9225
19388TIP3    H179579   1.534   5.153   2.037  0.1595 -0.5982 -1.0501
19388TIP3    H279580   1.464   5.023   2.004 -1.8221  0.1064  0.1721
19389TIP3   OH279581   5.001   3.084   6.728 -0.3032  0.4504  0.5325
19389TIP3    H179582   4.943   3.153   6.760  0.5664  0.7998  1.4040
19389TIP3    H279583   4.961   3.003   6.759 -1.1145  0.5706 -0.1548
19390TIP3   OH279584   4.956   5.257  10.613 -0.0238 -0.6029 -0.4768
19390TIP3    H179585   4.951   5.297  10.700 -1.4984 -0.4976 -0.5972
19390TIP3    H279586   4.882   5.197  10.609  1.0543 -1.9523 -1.0192
19391TIP3   OH279587   5.216   1.352  15.397  0.1503  1.0287 -0.0233
19391TIP3    H179588   5.242   1.264  15.424 -1.2386  0.9374  1.1298
19391TIP3    H279589   5.266   1.368  15.317 -1.2187 -1.7132 -1.5589
19392TIP3   OH279590   4.987   4.543   3.090 -0.3822 -0.6731  0.1755
19392TIP3    H179591   5.083   4.546   3.092 -0.4148  0.5611  2.0320
19392TIP3    H279592   4.961   4.551   3.181 -2.3008  1.0987 -0.4585
19393TIP3   OH279593   2.377   0.114   4.454 -0.2051 -0.1354 -0.1082
19393TIP3    H179594   2.419   0.197   4.433  1.8050 -1.1282 -0.2391
19393TIP3    H279595   2.360   0.118   4.548  0.0705  0.3540 -0.0782
19394TIP3   OH279596   2.836   0.991  10.440 -0.4157  0.0771  0.3671
19394TIP3    H179597   2.880   0.930  10.381 -2.3460  0.3347 -1.4424
19394TIP3    H279598   2.773   0.937  10.488 -2.3180  0.5819 -1.4313
19395TIP3   OH279599   4.603   1.009  15.103 -0.1441 -0.1966 -0.6912
19395TIP3    H179600   4.664   1.081  15.085 -0.0258  0.0507  0.5924
19395TIP3    H279601   4.648   0.955  15.168 -0.8106 -0.6642 -0.6106
19396TIP3   OH279602   4.263   2.444  15.980 -0.4950  0.1115 -0.1845
19396TIP3    H179603   4.354   2.472  15.987 -0.2024 -0.2174 -2.2285
19396TIP3    H279604   4.247   2.396  16.062  1.4667 -0.6662 -0.1945
19397TIP3   OH279605   4.879   4.263   0.453  0.1178  0.0316  0.0031
19397TIP3    H179606   4.885   4.169   0.433  2.3411  0.8041 -4.1035
19397TIP3    H279607   4.964   4.285   0.489 -0.8039  0.3744  2.0979
19398TIP3   OH279608   6.027   1.482  13.884 -0.3042  0.1313  0.5341
19398TIP3    H179609   6.053   1.560  13.933 -0.4558  0.0520  0.7425
19398TIP3    H279610   6.063   1.409  13.934  2.8904  0.1572 -1.4502
19399TIP3   OH279611   1.634   0.916   6.257  0.1611  0.1135  0.3640
19399TIP3    H179612   1.688   0.839   6.244 -1.7121 -1.0442 -1.2166
19399TIP3    H279613   1.645   0.967   6.176  0.8398  1.1807  1.1053
19400TIP3   OH279614   0.254   5.919   1.079  0.1694 -0.1279  0.0397
19400TIP3    H179615   0.321   5.900   1.013  0.3769 -0.7954  0.4347
19400TIP3    H279616   0.198   5.841   1.078 -0.4135  0.2834 -0.0498
19401TIP3   OH279617   1.610   3.917   2.288 -0.0279 -0.3546  0.1863
19401TIP3    H179618   1.568   3.958   2.363  1.1250  1.7021 -0.2180
19401TIP3    H279619   1.690   3.878   2.323 -0.2212 -0.6778  0.2688
19402TIP3   OH279620   4.504   5.296   1.020  0.1670 -0.1373  0.1335
19402TIP3    H179621   4.453   5.286   1.101  0.5028  0.2043  0.3906
19402TIP3    H279622   4.589   5.328   1.049  0.3848 -0.2858 -0.3347
19403TIP3   OH279623   6.465   2.339   4.301  0.1968  0.4780 -0.4555
19403TIP3    H179624   6.535   2.366   4.361  0.7336  1.3891 -1.4712
19403TIP3    H279625   6.488   2.250   4.276  0.6349  0.5395 -0.2747
19404TIP3   OH279626   0.120   5.817  13.058  0.3212 -0.1789 -0.3966
19404TIP3    H179627   0.072   5.899  13.046 -1.1235 -0.6300  1.7943
19404TIP3    H279628   0.118   5.777  12.971 -3.4766 -0.2133 -0.4919
19405TIP3   OH279629   1.099   1.102  15.193 -0.2684  0.3772 -0.4599
19405TIP3    H179630   1.102   1.016  15.236 -0.2451  1.0310  0.8673
19405TIP3    H279631   1.034   1.152  15.243  0.2826  1.3946 -0.7431
19406TIP3   OH279632   2.895   3.316  17.105  0.7214  0.2620 -0.0536
19406TIP3    H179633   2.896   3.249  17.037  0.1197 -0.3912  0.5682
19406TIP3    H279634   2.855   3.274  17.181  0.5346  1.2575  0.4247
19407TIP3   OH279635   4.216   4.162  14.715  0.0403 -0.6297 -0.4481
19407TIP3    H179636   4.202   4.113  14.634 -0.0268 -2.0453  0.3861
19407TIP3    H279637   4.245   4.096  14.778 -0.4109  0.3454  0.8178
19408TIP3   OH279638   3.841   5.266  16.933  0.0189 -0.6644  0.3220
19408TIP3    H179639   3.779   5.259  16.861  1.9003 -1.6908 -1.3104
19408TIP3    H279640   3.845   5.178  16.970  0.3695 -0.5815  0.4880
19409TIP3   OH279641   0.417   0.712   5.238 -0.1084  0.3054  0.2382
19409TIP3    H179642   0.405   0.639   5.299 -0.2795  0.0261 -0.1285
19409TIP3    H279643   0.339   0.711   5.183  0.9200 -0.7058 -1.3037
19410TIP3   OH279644   2.032   0.418  13.823  0.1762  0.2169 -0.1129
19410TIP3    H179645   1.962   0.480  13.841 -1.3226 -1.5868  0.6219
19410TIP3    H279646   2.096   0.431  13.893 -0.4690  0.4390  0.4354
19411TIP3   OH279647   1.385   2.868  12.917 -0.3819 -0.2400  0.0336
19411TIP3    H179648   1.357   2.800  12.856 -1.9031  0.3995 -0.0314
19411TIP3    H279649   1.452   2.917  12.868 -1.8199  0.4858 -1.3210
19412TIP3   OH279650   5.075   1.569   2.498  0.3917 -0.0427  0.1359
19412TIP3    H179651   4.995   1.530   2.533  1.4523 -2.9355 -0.4079
19412TIP3    H279652   5.122   1.496   2.458  2.8479  1.7431 -0.4715
19413TIP3   OH279653   5.475   1.866  16.129  0.1553  0.3465  0.3882
19413TIP3    H179654   5.397   1.906  16.090 -0.4691  0.3110  1.5486
19413TIP3    H279655   5.484   1.910  16.213  0.8621 -0.2926  0.6536
19414TIP3   OH279656   5.573   1.340  16.002 -0.2281  0.0870  0.1238
19414TIP3    H179657   5.610   1.408  16.058 -1.0650 -0.9413  1.9951
19414TIP3    H279658   5.630   1.265  16.014 -0.4042 -0.1401 -0.4234
19415TIP3   OH279659   3.139   5.148   1.518  0.2377  0.3187 -0.2990
19415TIP3    H179660   3.076   5.120   1.584  0.7367 -0.3044 -0.0761
19415TIP3    H279661   3.218   5.097   1.537 -0.2742 -1.5473 -2.7273
19416TIP3   OH279662   6.698   2.418  11.777 -0.2074  0.6409 -0.0234
19416TIP3    H179663   6.730   2.491  11.724 -0.1202 -0.2371 -1.2277
19416TIP3    H279664   6.716   2.340  11.725 -1.7352 -0.1293  0.5091
19417TIP3   OH279665   5.617   5.558  11.406  0.0456  0.0588 -0.6233
19417TIP3    H179666   5.564   5.629  11.369 -1.2209 -0.3644  0.3005
19417TIP3    H279667   5.592   5.554  11.498  1.6132 -0.2642 -0.1905
19418TIP3   OH279668   5.225   3.178  15.230  0.3668  0.0360  0.1896
19418TIP3    H179669   5.281   3.237  15.280  1.7880 -1.4664  0.4404
19418TIP3    H279670   5.280   3.149  15.157 -0.4796 -0.5475 -0.2322
19419TIP3   OH279671   2.324   0.249  15.671  0.3803  0.2904 -0.0262
19419TIP3    H179672   2.290   0.228  15.584  0.4934  0.4044 -0.0991
19419TIP3    H279673   2.249   0.236  15.730  0.4241 -0.2252 -0.0781
19420TIP3   OH279674   1.131   2.487  11.462  0.8214 -0.0926  0.7961
19420TIP3    H179675   1.106   2.554  11.399  0.1123 -0.4089  0.7377
19420TIP3    H279676   1.201   2.529  11.514  0.4204  0.6727  0.7365
19421TIP3   OH279677   0.296   1.012   2.254  0.7294  0.1955 -0.2367
19421TIP3    H179678   0.332   1.100   2.251  0.4947  0.2997 -0.0126
19421TIP3    H279679   0.314   0.975   2.168  1.4534  0.2139 -0.0947
19422TIP3   OH279680   4.082   4.774  16.661  0.7535 -0.4079 -0.2251
19422TIP3    H179681   4.128   4.710  16.714  0.8295 -0.2411 -0.0902
19422TIP3    H279682   4.105   4.858  16.699  2.2465 -0.1522 -1.6124
19423TIP3   OH279683   2.190   0.918  16.630  0.2597 -0.4118  0.0276
19423TIP3    H179684   2.284   0.934  16.625  0.1247  0.1314 -1.2768
19423TIP3    H279685   2.161   0.969  16.705  1.2710 -2.0863  1.6258
19424TIP3   OH279686   3.344   3.098   5.901  0.2876  0.4414  0.0716
19424TIP3    H179687   3.342   3.020   5.956 -1.3407  0.4459  0.0865
19424TIP3    H279688   3.252   3.126   5.897  0.5549  1.1715 -1.6092
19425TIP3   OH279689   1.429   5.180   4.616  0.5622 -0.1030 -0.5155
19425TIP3    H179690   1.406   5.265   4.655 -1.5656 -0.5110 -0.7516
19425TIP3    H279691   1.371   5.172   4.540  1.2456 -1.4514 -0.9262
19426TIP3   OH279692   4.543   6.520   4.903 -0.3624  0.1472  0.2800
19426TIP3    H179693   4.500   6.470   4.972  0.2568 -0.1384  0.4621
19426TIP3    H279694   4.507   6.485   4.821  1.1339 -1.6439  0.3292
19427TIP3   OH279695   1.715   3.190   3.121  0.5200 -0.3370  0.3213
19427TIP3    H179696   1.689   3.249   3.050 -0.3372  0.2223  1.0697
19427TIP3    H279697   1.632   3.154   3.153  1.0235 -1.9363 -0.0996
19428TIP3   OH279698   2.395   3.887   1.792  0.0487  0.8591  0.5543
19428TIP3    H179699   2.330   3.872   1.861  0.2266  0.2963  0.6005
19428TIP3    H279700   2.479   3.882   1.837  0.1510  0.9268  0.3711
19429TIP3   OH279701   6.737   3.207   2.893  0.7818  0.1466  0.4281
19429TIP3    H179702   6.671   3.222   2.960 -0.4813 -0.2557 -0.6998
19429TIP3    H279703   6.769   3.295   2.871  0.7790  0.3233  1.1283
19430TIP3   OH279704   4.119   3.145  12.718  0.1514  1.0834  0.2316
19430TIP3    H179705   4.046   3.127  12.777  0.1571  0.2502  0.0009
19430TIP3    H279706   4.109   3.237  12.695 -1.4303  0.7292 -0.6263
19431TIP3   OH279707   4.026   4.478   3.185 -0.1461 -0.0351 -0.0161
19431TIP3    H179708   4.044   4.386   3.166 -0.8423 -1.0174  3.3895
19431TIP3    H279709   4.100   4.507   3.237  0.0306  1.3746 -0.9875
19432TIP3   OH279710   6.044   2.861  11.646  0.3248 -0.0587 -0.6058
19432TIP3    H179711   5.976   2.812  11.600 -2.1423  0.7513  1.8713
19432TIP3    H279712   6.040   2.949  11.607 -2.2742  0.8393  1.4219
19433TIP3   OH279713   4.954   0.967  16.428  0.5123 -0.5201 -0.1418
19433TIP3    H179714   4.896   0.893  16.447  2.2356 -3.0812 -3.5835
19433TIP3    H279715   5.037   0.945  16.470  0.0643  1.4909  1.9977
19434TIP3   OH279716   3.028   0.097   3.995 -0.6783 -0.2742 -0.2031
19434TIP3    H179717   3.081   0.024   4.027 -0.3555 -0.6044 -1.4589
19434TIP3    H279718   2.956   0.056   3.948 -1.2434  0.2052  0.2250
19435TIP3   OH279719   0.773   1.978  13.712  0.1325 -0.2303 -0.3277
19435TIP3    H179720   0.731   1.981  13.798 -0.5803 -1.1618 -0.6346
19435TIP3    H279721   0.816   1.893  13.709  1.5528  0.4431 -0.2748
19436TIP3   OH279722   0.323   2.443  12.663  0.5270  0.0571 -0.2908
19436TIP3    H179723   0.251   2.449  12.600  1.3917 -1.3003 -1.4674
19436TIP3    H279724   0.289   2.389  12.734  0.1264  0.0942 -0.4533
19437TIP3   OH279725   2.040   1.839  12.137 -0.0523  0.0572 -0.1579
19437TIP3    H179726   2.011   1.782  12.065  1.0292 -0.1941 -0.4188
19437TIP3    H279727   2.068   1.778  12.206 -1.8929  0.2961  0.8433
19438TIP3   OH279728   3.554   1.315  12.611  0.5415  0.2051 -0.5290
19438TIP3    H179729   3.568   1.409  12.602 -0.6791  0.4230 -0.2414
19438TIP3    H279730   3.484   1.295  12.550 -2.0601  0.2449  2.2339
19439TIP3   OH279731   4.243   1.213   5.121  0.7683 -0.4474 -0.0093
19439TIP3    H179732   4.294   1.164   5.056  1.1243  1.1306 -0.9773
19439TIP3    H279733   4.296   1.212   5.200  1.6730 -0.0254 -0.5899
19440TIP3   OH279734   4.804   1.189  13.471  0.1366 -0.3348 -0.6103
19440TIP3    H179735   4.778   1.204  13.562 -1.5563 -1.5023 -0.8401
19440TIP3    H279736   4.856   1.109  13.475 -0.7613 -0.9461 -0.7478
19441TIP3   OH279737   4.186   3.747   4.201 -0.2012 -0.4828 -0.2515
19441TIP3    H179738   4.256   3.683   4.219 -0.6475 -0.7979  0.3872
19441TIP3    H279739   4.107   3.694   4.197 -0.4224 -0.1112 -0.8919
19442TIP3   OH279740   5.069   5.840   1.138  0.2942 -0.2083 -0.3701
19442TIP3    H179741   5.063   5.764   1.080  0.3928  0.5752 -1.4503
19442TIP3    H279742   4.982   5.880   1.134  0.7102  0.6639 -1.1637
19443TIP3   OH279743   3.254   6.294  11.835  0.3801 -0.0940 -0.0036
19443TIP3    H179744   3.237   6.200  11.837  0.0780 -0.0723 -1.0637
19443TIP3    H279745   3.345   6.303  11.865  0.6317 -0.7826 -0.5361
19444TIP3   OH279746   4.853   6.336   1.484  0.6265  0.4453 -0.2787
19444TIP3    H179747   4.846   6.341   1.580  1.7462 -1.9746  0.0170
19444TIP3    H279748   4.822   6.248   1.463  1.2278  0.6276 -2.0674
19445TIP3   OH279749   2.815   5.847   0.069  0.1990 -1.1835 -0.3971
19445TIP3    H179750   2.845   5.825   0.157  0.8105  0.4124 -0.1716
19445TIP3    H279751   2.723   5.871   0.080  0.6188  0.3100  0.0705
19446TIP3   OH279752   4.149   0.588  13.136  0.0367 -0.7852 -0.3261
19446TIP3    H179753   4.177   0.671  13.174 -3.0577  0.8468 -1.2279
19446TIP3    H279754   4.189   0.586  13.049 -1.7650  1.0712 -1.2748
19447TIP3   OH279755   0.378   5.137   5.493  0.0731  0.4154  0.1190
19447TIP3    H179756   0.409   5.049   5.515  1.2515  0.4810 -1.1841
19447TIP3    H279757   0.286   5.124   5.470 -0.1748 -0.2257  1.3903
19448TIP3   OH279758   4.589   5.663  11.601  0.7231  0.1966 -0.1036
19448TIP3    H179759   4.583   5.746  11.554  0.3194 -0.3695 -1.0810
19448TIP3    H279760   4.514   5.612  11.569 -0.8514  0.5404  2.6907
19449TIP3   OH279761   0.431   5.486   2.690 -0.2264  0.7341  0.1860
19449TIP3    H179762   0.475   5.427   2.628 -0.8414  0.7631 -0.3000
19449TIP3    H279763   0.379   5.544   2.634  1.5123  2.7428  0.5684
19450TIP3   OH279764   3.480   5.963  12.878 -1.0845 -0.4460  0.3977
19450TIP3    H179765   3.392   5.957  12.913 -0.4510 -0.8407  2.0200
19450TIP3    H279766   3.537   5.965  12.955  0.3498 -0.6781 -0.6024
19451TIP3   OH279767   5.524   0.686   3.007 -0.3354 -0.2734  0.4901
19451TIP3    H179768   5.520   0.764   2.952 -0.3922 -0.5887  0.0298
19451TIP3    H279769   5.617   0.661   3.005 -0.2313  0.0645  1.0468
19452TIP3   OH279770   4.839   5.305   5.628  0.2246  1.1373  0.1631
19452TIP3    H179771   4.836   5.212   5.608  0.7307  1.3023 -0.7798
19452TIP3    H279772   4.804   5.313   5.717 -0.9262  0.1829 -0.1800
19453TIP3   OH279773   0.034   2.541   4.053 -0.2289 -0.3740 -0.4465
19453TIP3    H179774   0.045   2.589   4.135  1.2045  0.3670 -1.0323
19453TIP3    H279775  -0.044   2.579   4.013  0.9578  1.6642 -0.9651
19454TIP3   OH279776   4.171   5.954   0.450  0.1166 -0.8022 -0.5960
19454TIP3    H179777   4.201   6.002   0.373 -0.1343 -0.3915 -0.4432
19454TIP3    H279778   4.251   5.918   0.489  0.2803 -0.7159 -0.8506
19455TIP3   OH279779   3.719   0.499  10.261  0.1938  0.1476  0.4208
19455TIP3    H179780   3.791   0.461  10.211  1.4986  0.6944  1.7898
19455TIP3    H279781   3.672   0.424  10.297 -0.3075 -0.2261 -0.9762
19456TIP3   OH279782   5.333   5.341   0.218 -0.5857 -0.4461 -0.1673
19456TIP3    H179783   5.299   5.253   0.235  1.4701 -1.1228  0.8230
19456TIP3    H279784   5.427   5.328   0.203 -0.2824  1.5631 -0.3270
19457TIP3   OH279785   5.105   5.170   5.177 -0.0110 -0.7996 -0.0753
19457TIP3    H179786   5.020   5.213   5.178 -0.2232 -1.1632 -1.1728
19457TIP3    H279787   5.122   5.147   5.269  0.2444  1.8388  0.6015
19458TIP3   OH279788   3.740   2.052   0.912  0.0319  0.2495  0.0301
19458TIP3    H179789   3.788   2.003   0.979  0.4404  1.4107  0.6214
19458TIP3    H279790   3.807   2.086   0.853 -0.0889  1.3669  0.5090
19459TIP3   OH279791   3.981   4.195   4.056  0.2994  0.6287 -0.2809
19459TIP3    H179792   3.891   4.212   4.081  0.1051 -1.2032  0.4124
19459TIP3    H279793   4.013   4.132   4.121  1.4640 -0.1984 -1.5923
19460TIP3   OH279794   6.738   5.529   3.451  0.0246  0.4596  0.2190
19460TIP3    H179795   6.772   5.618   3.463  0.9272  0.1237  0.2428
19460TIP3    H279796   6.665   5.539   3.391  1.1932  1.0091 -1.1693
19461TIP3   OH279797   2.974   4.097  16.992 -0.1359  0.3728  0.9128
19461TIP3    H179798   2.902   4.040  17.019 -1.1264  1.3760  0.4646
19461TIP3    H279799   2.941   4.185  17.005  0.5174  0.8671 -0.5799
19462TIP3   OH279800   4.351   4.177  12.728 -0.1285 -0.2876  0.0774
19462TIP3    H179801   4.317   4.094  12.759  0.6852 -0.4732  0.5069
19462TIP3    H279802   4.397   4.214  12.804  0.0643  0.2500 -0.2953
19463TIP3   OH279803   1.472   1.643   0.476 -0.0145 -0.6392  0.8136
19463TIP3    H179804   1.517   1.574   0.427  0.1614  0.5745 -0.8359
19463TIP3    H279805   1.383   1.610   0.488 -1.3976  0.5100 -4.0299
19464TIP3   OH279806   4.901   4.478  14.198  0.3563 -0.2053 -0.4195
19464TIP3    H179807   4.863   4.391  14.192  1.6121 -0.7647 -0.5966
19464TIP3    H279808   4.930   4.486  14.289 -1.0024  0.5914 -0.0313
19465TIP3   OH279809   0.857   4.362  11.154 -0.5284  0.5467  0.0388
19465TIP3    H179810   0.841   4.360  11.060 -1.3359 -0.1878  0.1804
19465TIP3    H279811   0.823   4.279  11.186  0.6640  0.3415  0.8402
19466TIP3   OH279812   1.694   3.609  17.155 -0.4308 -0.8016 -0.6581
19466TIP3    H179813   1.728   3.557  17.228 -1.5347 -1.0886 -0.3266
19466TIP3    H279814   1.755   3.682  17.147 -0.7482 -0.3026  1.1077
19467TIP3   OH279815   6.739   2.855  14.067  0.6088  0.0391 -0.4083
19467TIP3    H179816   6.718   2.938  14.024  1.8940  0.2977 -0.5824
19467TIP3    H279817   6.720   2.788  14.000  2.5676  0.4388 -1.4380
19468TIP3   OH279818   4.063   3.790   5.868 -0.0691 -0.1807  0.4736
19468TIP3    H179819   4.144   3.841   5.864  1.1347 -1.6586  3.2140
19468TIP3    H279820   4.017   3.825   5.944  0.3215 -2.3779  1.8137
19469TIP3   OH279821   1.485   6.074   2.389  0.4462 -0.5781 -0.3027
19469TIP3    H179822   1.511   5.982   2.394 -0.3223 -0.7584  0.7811
19469TIP3    H279823   1.450   6.094   2.476 -1.6234  0.0507 -1.2109
19470TIP3   OH279824   3.553   4.124  14.841  0.1609  0.1372  0.7082
19470TIP3    H179825   3.539   4.030  14.836 -2.8513  0.5130  0.5438
19470TIP3    H279826   3.561   4.152  14.749  1.3387  0.0621  0.7655
19471TIP3   OH279827   3.844   5.503  11.858  0.2072 -0.6596 -0.3168
19471TIP3    H179828   3.926   5.549  11.876  0.8127 -1.7465 -0.1501
19471TIP3    H279829   3.866   5.410  11.872 -0.3437 -1.2308 -2.7593
19472TIP3   OH279830   0.034   0.910  15.479  0.5815  0.0505  0.6301
19472TIP3    H179831   0.116   0.883  15.520  0.8079 -0.6015 -0.2266
19472TIP3    H279832   0.029   0.858  15.399 -2.2015 -2.2980  2.1313
19473TIP3   OH279833   3.710   5.703   0.032  0.3029  0.1034  0.0819
19473TIP3    H179834   3.796   5.727   0.066  0.3821 -0.1194  0.0392
19473TIP3    H279835   3.652   5.772   0.064  0.0264 -1.0413  2.2451
19474TIP3   OH279836   6.542   3.173  13.174 -0.0065  0.4674 -0.1356
19474TIP3    H179837   6.506   3.116  13.106 -2.4028 -0.5760  1.8405
19474TIP3    H279838   6.636   3.165  13.165 -0.2539 -0.5100 -2.5685
19475TIP3   OH279839   0.666   3.672  15.799  0.5661 -0.4629  0.4499
19475TIP3    H179840   0.597   3.630  15.851 -1.2162 -2.0476 -2.8499
19475TIP3    H279841   0.636   3.762  15.788 -1.2088 -1.1629 -1.0646
19476TIP3   OH279842   5.266   2.154   4.208 -0.3785 -0.3422 -0.1105
19476TIP3    H179843   5.174   2.170   4.189 -0.6894 -0.3868  1.2634
19476TIP3    H279844   5.268   2.129   4.301  1.2179  1.6101  0.4625
19477TIP3   OH279845   0.406   1.019   5.764 -0.6841  0.0036 -0.6604
19477TIP3    H179846   0.411   0.976   5.679 -0.3961  0.7688 -1.0414
19477TIP3    H279847   0.498   1.032   5.790 -0.7449 -1.3836  0.3860
19478TIP3   OH279848   2.293   0.143  14.036 -0.6237 -0.5097 -0.2211
19478TIP3    H179849   2.237   0.088  13.981 -2.4863  2.8402 -2.0093
19478TIP3    H279850   2.328   0.209  13.977 -0.3726  1.5915  2.0728
19479TIP3   OH279851   1.793   1.465   1.581  0.3901  0.2751  0.1255
19479TIP3    H179852   1.782   1.536   1.645 -0.6219 -0.2087  0.5132
19479TIP3    H279853   1.845   1.399   1.627  0.8729  0.5258 -0.0511
19480TIP3   OH279854   4.199   2.300  10.727 -0.0042  0.3529 -0.2491
19480TIP3    H179855   4.111   2.328  10.703  0.4732  2.4032  0.1340
19480TIP3    H279856   4.248   2.304  10.644  0.5939  3.0923  0.1314
19481TIP3   OH279857   4.655   2.245  15.090  0.3743  0.0896 -0.2603
19481TIP3    H179858   4.705   2.188  15.149 -0.7409 -0.5607  0.0854
19481TIP3    H279859   4.685   2.334  15.111  3.2678 -0.3767 -1.8439
19482TIP3   OH279860   5.055   5.387  13.630 -0.0719  0.2544 -0.6743
19482TIP3    H179861   5.027   5.477  13.616  0.5167  0.0761 -3.9310
19482TIP3    H279862   4.991   5.335  13.581  1.6444 -0.7276 -1.9938
19483TIP3   OH279863   3.829   4.817   3.807  0.2542 -0.0177 -0.1012
19483TIP3    H179864   3.874   4.833   3.724 -0.1831 -1.5947 -0.6762
19483TIP3    H279865   3.817   4.904   3.845  1.2835  0.6556 -1.2471
19484TIP3   OH279866   6.174   3.890   4.274 -0.4362 -0.1270 -0.5607
19484TIP3    H179867   6.239   3.822   4.290  0.1771  0.4850 -0.4532
19484TIP3    H279868   6.151   3.879   4.181  0.2246  0.0089 -0.7447
19485TIP3   OH279869   4.624   3.330   4.357  0.1353  0.1754 -0.2012
19485TIP3    H179870   4.707   3.293   4.326  0.6131  0.5105  0.6535
19485TIP3    H279871   4.577   3.353   4.276 -0.7431 -3.3893 -0.8521
19486TIP3   OH279872   5.852   4.158  17.146 -0.3191 -0.3966 -0.0590
19486TIP3    H179873   5.939   4.140  17.111  0.0325  1.6756 -0.4040
19486TIP3    H279874   5.852   4.115  17.232  0.3888 -1.8837 -0.7712
19487TIP3   OH279875   2.872   3.793   2.933 -0.6854  0.6028  0.5491
19487TIP3    H179876   2.896   3.871   2.982 -1.3950  1.2034 -0.0373
19487TIP3    H279877   2.938   3.728   2.957  1.2787  2.0238 -0.6491
19488TIP3   OH279878   5.562   2.554  13.337 -0.0201  0.3877  0.1736
19488TIP3    H179879   5.486   2.607  13.312 -1.2523 -1.5782 -0.5616
19488TIP3    H279880   5.547   2.532  13.429 -1.6939 -1.9057 -0.5405
19489TIP3   OH279881   4.200   1.897   4.778 -0.4801 -0.3674  0.2015
19489TIP3    H179882   4.276   1.893   4.719 -0.7641  2.4953 -0.5040
19489TIP3    H279883   4.140   1.830   4.744  0.7643 -1.0995 -0.6486
19490TIP3   OH279884   6.514   2.397  13.377 -0.4705 -0.3890  0.4507
19490TIP3    H179885   6.434   2.345  13.373 -2.0221  1.9408 -2.6364
19490TIP3    H279886   6.583   2.337  13.349 -1.4276 -1.8658  1.1111
19491TIP3   OH279887   3.329   5.510   3.203  0.4002 -0.2094 -0.0441
19491TIP3    H179888   3.287   5.424   3.191  0.0493 -0.0986  0.3829
19491TIP3    H279889   3.331   5.548   3.115  1.4597 -1.0640 -0.4158
19492TIP3   OH279890   4.978   0.643  16.492 -0.1367  0.0219  0.1758
19492TIP3    H179891   5.044   0.574  16.481 -1.4655 -1.4731  1.1674
19492TIP3    H279892   5.008   0.694  16.566  0.3531 -0.1047  0.0660
19493TIP3   OH279893   5.051   1.526  12.102 -0.6787 -0.2699 -0.8599
19493TIP3    H179894   5.065   1.471  12.179 -0.7598 -0.9342 -1.3163
19493TIP3    H279895   5.139   1.546  12.069 -0.6157  0.5709 -0.2176
19494TIP3   OH279896   5.358   0.251   2.479  0.0061 -0.7827 -0.1031
19494TIP3    H179897   5.329   0.326   2.530 -1.5809 -1.2467 -0.2810
19494TIP3    H279898   5.371   0.285   2.391 -0.0592 -0.5901 -0.0385
19495TIP3   OH279899   3.353   4.797  15.205 -0.0858 -0.2965 -0.1564
19495TIP3    H179900   3.345   4.707  15.174 -0.9199  0.7460 -3.3179
19495TIP3    H279901   3.266   4.834  15.195  0.3869  1.0433  0.4634
19496TIP3   OH279902   0.393   2.818  11.422  0.3729  0.5146  0.4545
19496TIP3    H179903   0.432   2.902  11.401  0.5720  0.8805  2.1260
19496TIP3    H279904   0.408   2.807  11.516 -1.9425 -0.1581  0.8145
19497TIP3   OH279905   1.196   4.208   2.114 -0.1965  0.1580  0.1653
19497TIP3    H179906   1.161   4.237   2.030  0.4093 -0.8788 -0.4611
19497TIP3    H279907   1.246   4.129   2.094 -0.4654 -0.4075  1.5774
19498TIP3   OH279908   5.945   4.076   4.635  0.5415 -0.0135  0.0579
19498TIP3    H179909   5.958   3.987   4.602 -2.7694 -1.0108  0.9754
19498TIP3    H279910   5.916   4.126   4.558 -0.3999 -0.5307  0.0544
19499TIP3   OH279911   6.334   5.094   0.598  0.2131  0.7863 -0.7198
19499TIP3    H179912   6.259   5.034   0.601 -0.6498  1.7873 -1.5601
19499TIP3    H279913   6.311   5.158   0.531  0.9059  2.3562  0.4828
19500TIP3   OH279914   0.667   6.412   4.761 -0.3661 -0.0233 -0.5755
19500TIP3    H179915   0.688   6.321   4.779  1.3393  0.5441  0.6094
19500TIP3    H279916   0.581   6.410   4.720 -0.8891 -2.0573  0.5136
19501TIP3   OH279917   2.287   3.474  11.301 -0.1535  0.1489  0.3368
19501TIP3    H179918   2.269   3.470  11.395  0.1446  0.6445  0.4143
19501TIP3    H279919   2.278   3.383  11.272 -0.4435  0.0220  0.8054
19502TIP3   OH279920   4.457   3.803   4.545  0.1124 -0.3209  0.1258
19502TIP3    H179921   4.524   3.866   4.518  1.2647 -1.0759  1.0619
19502TIP3    H279922   4.498   3.718   4.530 -1.8744 -0.9600 -2.3125
19503TIP3   OH279923   6.434   3.074  16.751 -0.1849  0.2946  0.2517
19503TIP3    H179924   6.458   3.122  16.671 -1.4415  0.9063  0.2200
19503TIP3    H279925   6.503   3.095  16.813  0.3544  0.4981 -0.3989
19504TIP3   OH279926   4.502   1.551  15.590 -0.7297  0.1412 -0.2807
19504TIP3    H179927   4.586   1.589  15.563  0.5749 -0.8998  1.9389
19504TIP3    H279928   4.460   1.621  15.640  0.9644 -0.6127  2.4607
19505TIP3   OH279929   0.459   2.633   1.643 -0.4257  1.2603  0.0945
19505TIP3    H179930   0.553   2.653   1.639  0.1603 -1.4354 -1.7616
19505TIP3    H279931   0.441   2.626   1.737  0.8754  3.0513  0.5485
19506TIP3   OH279932   1.771   5.809  16.947 -0.3826  0.0623  0.5548
19506TIP3    H179933   1.727   5.736  16.991 -1.8857 -0.0623 -1.0213
19506TIP3    H279934   1.710   5.835  16.877  1.1152  1.3599 -0.3402
19507TIP3   OH279935   1.631   2.685   4.331 -0.3702  0.1211 -0.4758
19507TIP3    H179936   1.538   2.668   4.314 -1.0297  2.3155  0.5819
19507TIP3    H279937   1.663   2.605   4.373 -2.3432  0.1021  1.1097
19508TIP3   OH279938   1.024   4.050   5.819 -0.8100 -0.4139  0.6156
19508TIP3    H179939   1.093   4.010   5.765 -1.3303  0.3235 -0.6485
19508TIP3    H279940   0.992   3.978   5.873  0.8941 -0.7905  1.1954
19509TIP3   OH279941   6.634   0.318   5.655 -0.0702 -0.6611  0.1668
19509TIP3    H179942   6.698   0.381   5.686 -2.8736  2.2646  0.6081
19509TIP3    H279943   6.569   0.313   5.726 -2.7950  0.3902 -2.0658
19510TIP3   OH279944   0.689   0.754  15.416  0.0991  0.2120  0.0913
19510TIP3    H179945   0.597   0.766  15.438  0.3222  2.2925  0.0604
19510TIP3    H279946   0.718   0.682  15.472 -1.3399  0.0491  0.6670
19511TIP3   OH279947   5.097   6.602   2.699  0.6005 -0.5535 -0.3404
19511TIP3    H179948   5.076   6.533   2.761 -0.1717 -0.5321 -0.5701
19511TIP3    H279949   5.022   6.660   2.701 -0.5384 -1.7611 -2.9468
19512TIP3   OH279950   2.901   6.585  15.708 -0.0879 -0.2699  0.0010
19512TIP3    H179951   2.917   6.621  15.621 -0.5498 -2.1005 -0.8755
19512TIP3    H279952   2.899   6.490  15.695 -0.6013 -0.5623  1.9394
19513TIP3   OH279953   4.101   5.365  17.095 -0.2122  0.7119  0.0007
19513TIP3    H179954   4.147   5.449  17.098 -0.4994  0.8437  1.2409
19513TIP3    H279955   4.089   5.348  17.002  2.1229  0.7805 -0.3790
19514TIP3   OH279956   1.663   3.336   1.216  0.2309 -0.5685  0.4192
19514TIP3    H179957   1.655   3.410   1.276  2.6094 -0.2845  0.4529
19514TIP3    H279958   1.622   3.263   1.262 -2.2444  0.6735  0.3548
19515TIP3   OH279959   3.142   5.258  14.881  0.0600 -0.0218  0.1155
19515TIP3    H179960   3.178   5.292  14.963 -1.0589 -0.5884  0.8539
19515TIP3    H279961   3.061   5.308  14.868 -2.2866 -3.0611  1.8496
19516TIP3   OH279962   1.217   4.728  15.654  0.0134  0.2082 -0.3958
19516TIP3    H179963   1.302   4.722  15.697 -1.0032 -0.9359  1.5969
19516TIP3    H279964   1.210   4.648  15.603  0.0440  0.1988 -0.3852
19517TIP3   OH279965   2.162   1.602  16.307  0.4568  0.3214  0.0149
19517TIP3    H179966   2.254   1.623  16.326  1.1410 -2.1123 -0.2790
19517TIP3    H279967   2.155   1.609  16.212  0.5041 -0.0742 -0.0189
19518TIP3   OH279968   3.552   4.416   2.611 -0.0257 -0.0737 -0.3449
19518TIP3    H179969   3.605   4.340   2.590 -0.2217  0.3535 -2.6045
19518TIP3    H279970   3.463   4.392   2.586 -0.1612  0.7465 -0.6949
19519TIP3   OH279971   2.403   0.419  15.915  0.2239  0.1129  0.7645
19519TIP3    H179972   2.417   0.513  15.912 -0.6924  0.3112  2.0595
19519TIP3    H279973   2.367   0.397  15.829  0.0176  1.0127  0.6161
19520TIP3   OH279974   6.768   0.085   5.591  0.1213 -0.0706 -0.3447
19520TIP3    H179975   6.772   0.024   5.665  2.6017  0.6661  0.2461
19520TIP3    H279976   6.708   0.154   5.619  0.9605  0.1490  1.0169
19521TIP3   OH279977   4.038   0.618   0.095  0.1410  0.5110  0.3349
19521TIP3    H179978   4.123   0.640   0.134 -0.4348  1.0916  1.2949
19521TIP3    H279979   4.060   0.579   0.011  1.3635  0.6807  0.5564
19522TIP3   OH279980   1.974   2.577  15.882  0.3730 -0.4318  0.5552
19522TIP3    H179981   1.984   2.661  15.837  0.2282  0.0998  1.5014
19522TIP3    H279982   1.899   2.590  15.940  1.0174 -0.8597  1.5042
19523TIP3   OH279983   5.373   1.310   1.725  0.0038  0.7791  0.2563
19523TIP3    H179984   5.416   1.227   1.746  1.0565  1.4392  0.7768
19523TIP3    H279985   5.281   1.295   1.748  0.4939  0.3441  2.0928
19524TIP3   OH279986   4.640   1.524   5.549  0.4929  0.5283  0.2016
19524TIP3    H179987   4.701   1.504   5.478  1.8008  1.9693  0.8549
19524TIP3    H279988   4.576   1.583   5.509  0.2473  0.0221 -0.1712
19525TIP3   OH279989   1.861   0.085  14.264  0.3150 -0.6082  0.1702
19525TIP3    H179990   1.819   0.123  14.187  0.4722 -1.1114 -0.1629
19525TIP3    H279991   1.954   0.094  14.248  0.4303 -2.8327 -0.8085
19526TIP3   OH279992   5.011   4.196   0.731  0.0292 -0.3185 -0.1089
19526TIP3    H179993   5.066   4.120   0.708  1.2734  0.6277 -0.3596
19526TIP3    H279994   4.923   4.169   0.707  0.6294 -1.1760 -1.5210
19527TIP3   OH279995   2.042   5.021  12.542 -0.6417 -0.8430  0.1112
19527TIP3    H179996   1.963   4.987  12.501 -0.0068 -0.7984 -1.1743
19527TIP3    H279997   2.062   5.101  12.493 -0.8465  0.1973  1.6413
19528TIP3   OH279998   1.114   4.999   0.531  0.2903 -0.0073 -0.1492
19528TIP3    H179999   1.208   4.985   0.540  0.4919  0.4539 -1.3191
19528TIP3    H280000   1.106   5.087   0.495 -0.4699 -0.7453 -1.9234
19529TIP3   OH280001   3.736   1.975   3.309 -0.3041  0.1916 -0.0158
19529TIP3    H180002   3.735   2.071   3.312  0.1389  0.2247 -0.6645
19529TIP3    H280003   3.792   1.954   3.234 -0.4981 -0.5763  0.0450
19530TIP3   OH280004   3.585   3.337  13.882 -0.0776 -0.5107 -0.1395
19530TIP3    H180005   3.516   3.304  13.824 -1.0941  0.6435  0.3550
19530TIP3    H280006   3.588   3.275  13.954 -0.3852 -0.7438 -0.3255
19531TIP3   OH280007   6.551   2.650  13.942  0.1392 -0.2681  0.3004
19531TIP3    H180008   6.484   2.712  13.914 -0.0874 -0.5468  0.2224
19531TIP3    H280009   6.508   2.598  14.011  0.8297  0.7226  1.5193
19532TIP3   OH280010   2.292   0.741   0.228  0.0057 -0.0841 -0.0154
19532TIP3    H180011   2.365   0.743   0.289 -1.3777 -1.2186  1.7736
19532TIP3    H280012   2.244   0.661   0.250 -2.1802  0.9730 -0.6013
19533TIP3   OH280013   2.789   4.407  15.386 -0.0786  0.1269 -0.4402
19533TIP3    H180014   2.784   4.420  15.292 -0.5076  0.5440 -0.3575
19533TIP3    H280015   2.818   4.491  15.421  0.8020 -0.2282 -0.2580
19534TIP3   OH280016   2.253   2.069  13.598 -0.2392  0.2647  0.1668
19534TIP3    H180017   2.252   2.152  13.646 -0.8642  1.2092 -1.4058
19534TIP3    H280018   2.160   2.050  13.582 -0.0232  1.0993 -2.4629
19535TIP3   OH280019   6.726   3.093  14.527 -0.0777  0.0248  0.0844
19535TIP3    H180020   6.765   3.090  14.614 -0.7540 -1.0026  0.3752
19535TIP3    H280021   6.649   3.149  14.537 -1.3014 -1.6815  0.6733
19536TIP3   OH280022   3.585   4.235  11.535 -0.0857  0.0255 -0.4388
19536TIP3    H180023   3.550   4.193  11.457 -0.1515  0.4527 -0.6374
19536TIP3    H280024   3.547   4.186  11.608  1.1076 -1.3231 -0.6713
19537TIP3   OH280025   4.196   2.190  11.838  0.3287  0.0123  0.2013
19537TIP3    H180026   4.272   2.223  11.789 -0.3758  0.9238 -0.3214
19537TIP3    H280027   4.234   2.140  11.910  1.4863  1.6847  0.8342
19538TIP3   OH280028   3.235   1.601   1.496 -0.2747 -0.4172 -0.2290
19538TIP3    H180029   3.171   1.608   1.567 -0.4064 -0.4495 -0.3432
19538TIP3    H280030   3.287   1.681   1.503 -0.0182 -0.6149  0.1595
19539TIP3   OH280031   1.917   5.671  11.858 -0.1563  0.0233  0.3287
19539TIP3    H180032   2.002   5.675  11.814 -1.1412  2.4451 -1.5655
19539TIP3    H280033   1.925   5.732  11.931 -0.0888 -0.2426  0.5467
19540TIP3   OH280034   5.568   0.619  11.287  0.4669 -0.5213 -0.0114
19540TIP3    H180035   5.651   0.575  11.268  0.9917  0.0821  0.7871
19540TIP3    H280036   5.592   0.711  11.299 -0.4190 -0.2303 -0.3839
19541TIP3   OH280037   4.385   6.012   6.417  0.2004  0.1793 -0.2449
19541TIP3    H180038   4.430   6.082   6.464  2.1283  0.0463 -1.7388
19541TIP3    H280039   4.367   6.050   6.331  0.0743 -0.7364 -0.6319
19542TIP3   OH280040   2.451   0.530  11.292  0.0237 -0.0116 -0.1900
19542TIP3    H180041   2.467   0.623  11.307  1.1259  0.1184 -1.9160
19542TIP3    H280042   2.523   0.486  11.338  1.0148  0.1660 -1.5068
19543TIP3   OH280043   5.584   1.831   5.569  0.5749 -0.1772  0.1968
19543TIP3    H180044   5.523   1.780   5.515 -1.4154  1.5863  0.6072
19543TIP3    H280045   5.598   1.912   5.519  2.2456 -0.3523  0.3399
19544TIP3   OH280046   0.142   1.687  17.230 -0.0202 -0.1803 -0.2893
19544TIP3    H180047   0.126   1.777  17.202  1.0598  0.1793  0.2112
19544TIP3    H280048   0.221   1.691  17.283 -1.1116 -1.0747  1.5258
19545TIP3   OH280049   2.914   5.854   1.154  0.6606 -0.0998  0.0247
19545TIP3    H180050   2.967   5.775   1.154 -1.6017 -1.7261  0.2193
19545TIP3    H280051   2.919   5.888   1.065  0.2419 -1.5011 -0.5457
19546TIP3   OH280052   4.024   5.772  16.114  0.1897  0.2117 -0.0990
19546TIP3    H180053   4.033   5.790  16.208 -0.0857  0.8582 -0.1892
19546TIP3    H280054   4.015   5.677  16.108 -3.2056  0.3115  0.8655
19547TIP3   OH280055   1.980   3.459  14.515 -0.2278  0.0284 -0.4595
19547TIP3    H180056   2.021   3.543  14.539 -0.2746  0.4741 -1.8438
19547TIP3    H280057   1.986   3.406  14.594 -2.5047  2.2052  1.3240
19548TIP3   OH280058   5.269   0.264   0.941  0.1704 -0.2227 -0.5897
19548TIP3    H180059   5.325   0.242   0.866  1.6772  2.5013 -0.3921
19548TIP3    H280060   5.211   0.332   0.909 -0.5972 -0.4999  0.1782
19549TIP3   OH280061   6.627   4.672   1.308  0.1436 -0.1604 -0.8038
19549TIP3    H180062   6.548   4.654   1.258 -1.0654 -1.7576  1.4778
19549TIP3    H280063   6.597   4.733   1.377  0.4810 -1.8474  0.9142
19550TIP3   OH280064   5.540   3.099  11.207  0.1743 -0.2824 -0.6436
19550TIP3    H180065   5.558   3.009  11.233 -2.0076 -0.5433  0.1770
19550TIP3    H280066   5.603   3.151  11.257 -0.4213 -1.1805  1.1638
19551TIP3   OH280067   0.885   2.180  12.031 -0.1763  0.1463 -0.1824
19551TIP3    H180068   0.960   2.143  11.984 -0.2316 -0.8597  0.4908
19551TIP3    H280069   0.828   2.105  12.047 -1.0776  0.8095 -0.2027
19552TIP3   OH280070   5.170   4.842   3.878  0.5768 -0.3105  0.6697
19552TIP3    H180071   5.226   4.920   3.885 -0.3625  0.3646  0.9640
19552TIP3    H280072   5.166   4.808   3.968  0.7718 -0.5520  0.5888
19553TIP3   OH280073   4.054   3.244  13.568  0.0997  0.1783  0.3009
19553TIP3    H180074   4.133   3.221  13.519  0.9141 -0.9310  2.0340
19553TIP3    H280075   4.082   3.317  13.624 -0.8319  1.4698 -0.8322
19554TIP3   OH280076   5.394   4.926  13.584  0.0173 -0.1444 -0.2333
19554TIP3    H180077   5.310   4.972  13.591  0.4493  0.6651 -0.2411
19554TIP3    H280078   5.380   4.861  13.516 -0.8998 -0.6894  0.4472
19555TIP3   OH280079   6.567   6.204   4.669  0.1162  0.3900 -0.1452
19555TIP3    H180080   6.503   6.205   4.740 -0.8281 -0.2673 -0.9560
19555TIP3    H280081   6.585   6.111   4.655  0.9221  0.5521 -0.2260
19556TIP3   OH280082   0.551   0.382  12.670  0.5899  0.1195  0.8145
19556TIP3    H180083   0.629   0.427  12.703  0.6231 -0.2053  1.1841
19556TIP3    H280084   0.532   0.316  12.737  0.5975 -0.4777  0.2339
19557TIP3   OH280085   4.124   1.554  14.319  0.1404 -0.0990  0.2960
19557TIP3    H180086   4.053   1.610  14.350  0.0160  0.7301 -1.3436
19557TIP3    H280087   4.188   1.555  14.389  0.0093  1.9092  0.4392
19558TIP3   OH280088   2.018   1.966   5.379  0.2139  0.0631  0.6622
19558TIP3    H180089   2.027   1.903   5.451  0.4639 -0.1352  0.4580
19558TIP3    H280090   2.009   2.051   5.423  1.4715  0.0814  0.9086
19559TIP3   OH280091   5.329   3.586  11.644  0.1407 -0.9482 -0.0533
19559TIP3    H180092   5.390   3.573  11.716  2.7536  1.7948 -1.5639
19559TIP3    H280093   5.370   3.542  11.569  0.5998  1.2041 -1.1673
19560TIP3   OH280094   3.883   0.958  16.460  0.7725  0.2827 -0.3160
19560TIP3    H180095   3.907   1.049  16.440  0.0660  0.0603 -2.4604
19560TIP3    H280096   3.901   0.911  16.378 -1.7421 -0.9228 -0.2486
19561TIP3   OH280097   1.374   1.337   2.841  0.2002  0.2095  0.4750
19561TIP3    H180098   1.455   1.365   2.799 -0.1186 -0.0778 -0.3738
19561TIP3    H280099   1.383   1.362   2.932  0.6502  1.4612  0.0971
19562TIP3   OH280100   3.817   1.608   3.747 -0.0315 -0.2704 -0.0543
19562TIP3    H180101   3.909   1.623   3.766  0.0883 -2.8088  1.8634
19562TIP3    H280102   3.796   1.672   3.679  3.2092  0.1396 -0.8280
19563TIP3   OH280103   6.449   1.712   4.446  0.1254 -0.2007  0.1296
19563TIP3    H180104   6.489   1.661   4.516 -0.4469  0.1979  0.7645
19563TIP3    H280105   6.393   1.775   4.491  1.9293  2.0015 -0.5447
19564TIP3   OH280106   4.933   0.187   0.734 -0.1341 -0.3426 -0.1703
19564TIP3    H180107   4.848   0.150   0.711  0.0849 -1.4651  0.7559
19564TIP3    H280108   4.953   0.151   0.820  1.7368 -0.9009 -0.7741
19565TIP3   OH280109   3.233   3.548  12.024  0.3477  0.1432  0.0375
19565TIP3    H180110   3.147   3.543  12.066 -1.0892 -0.0026 -2.6829
19565TIP3    H280111   3.269   3.460  12.034 -0.3974 -0.1676  0.0877
19566TIP3   OH280112   3.797   6.113  12.953 -0.2704  0.2183  0.5542
19566TIP3    H180113   3.838   6.200  12.951  0.8094 -0.2802 -0.1682
19566TIP3    H280114   3.748   6.108  12.871  0.1934 -0.0820  0.2902
19567TIP3   OH280115   6.343   0.633   1.766  0.0842  0.3504 -0.2364
19567TIP3    H180116   6.439   0.632   1.759  0.1694 -1.2905  0.6190
19567TIP3    H280117   6.312   0.595   1.684  0.2592 -0.6611  0.1495
19568TIP3   OH280118   3.976   1.821  11.795  0.0450 -0.3260 -0.1174
19568TIP3    H180119   4.034   1.796  11.723  0.7296  3.0152 -0.9163
19568TIP3    H280120   3.930   1.898  11.761 -1.5630 -0.2126  2.1375
19569TIP3   OH280121   0.740   3.890  12.280  0.2045 -0.3418  0.6008
19569TIP3    H180122   0.816   3.863  12.332  0.7418  0.5957  0.3371
19569TIP3    H280123   0.727   3.819  12.218  2.5943  0.5935 -1.1581
19570TIP3   OH280124   4.957   5.016  11.331 -0.2956 -0.0205 -0.3799
19570TIP3    H180125   4.971   5.052  11.419 -0.5430 -1.2097  0.1716
19570TIP3    H280126   5.017   5.065  11.275 -0.7195  1.3213  0.3010
19571TIP3   OH280127   2.277   3.056   5.164  0.1130  0.0359 -0.2188
19571TIP3    H180128   2.224   3.103   5.228  0.4278  1.8428 -1.2258
19571TIP3    H280129   2.267   3.106   5.083  2.6321 -0.0613 -0.6745
19572TIP3   OH280130   0.935   6.386   2.650 -0.4699 -0.0382  0.2176
19572TIP3    H180131   1.013   6.331   2.650 -1.6433 -1.7900  0.8886
19572TIP3    H280132   0.872   6.337   2.597 -1.6226  0.5901  0.9757
19573TIP3   OH280133   0.546   2.069  14.964 -0.2390 -0.4385 -0.4878
19573TIP3    H180134   0.535   2.043  14.873  1.0775  0.2076 -0.8523
19573TIP3    H280135   0.599   2.000  15.003  0.7576  0.2014 -0.6946
19574TIP3   OH280136   5.628   5.467  14.227 -0.4505  0.1736  0.0357
19574TIP3    H180137   5.623   5.455  14.321 -0.2460 -0.9284 -0.0843
19574TIP3    H280138   5.542   5.439  14.195 -0.3239  0.0078 -0.1593
19575TIP3   OH280139   3.536   6.035  15.789  0.1245 -0.1753  0.1224
19575TIP3    H180140   3.629   6.050  15.769  0.3034 -1.0551  0.2489
19575TIP3    H280141   3.532   6.033  15.885  0.0898 -0.7978  0.1109
19576TIP3   OH280142   3.841   5.694  11.361 -0.2011 -0.6717 -0.0296
19576TIP3    H180143   3.844   5.602  11.388 -0.9856 -0.8252 -0.4196
19576TIP3    H280144   3.817   5.741  11.441 -0.5766 -0.9033  0.0008
19577TIP3   OH280145   4.531   2.364   1.294  0.2172  0.2524  0.3064
19577TIP3    H180146   4.472   2.419   1.346 -0.4871 -1.3844  1.3240
19577TIP3    H280147   4.534   2.280   1.341 -0.6448 -1.4193 -2.3527
19578TIP3   OH280148   5.162   1.054   0.019  0.0137 -0.2900 -0.1518
19578TIP3    H180149   5.205   1.134   0.049  0.9578 -1.4615  1.8184
19578TIP3    H280150   5.214   1.027  -0.057  2.1409 -1.0347  1.4711
19579TIP3   OH280151   0.862   2.972  17.296 -0.5300 -0.3584  0.3107
19579TIP3    H180152   0.843   2.898  17.354 -0.2118 -1.9252 -1.4705
19579TIP3    H280153   0.941   2.945  17.248 -0.3224  1.2086 -0.2886
19580TIP3   OH280154   5.193   2.350   3.321  0.5323 -0.2252 -0.1070
19580TIP3    H180155   5.186   2.288   3.248  2.2320 -2.3166  1.3746
19580TIP3    H280156   5.255   2.415   3.290  0.5541 -0.5820 -0.8508
19581TIP3   OH280157   4.015   0.645   5.712  0.3337 -0.3822  0.4639
19581TIP3    H180158   3.936   0.690   5.681  0.4192 -1.3128 -1.2242
19581TIP3    H280159   4.024   0.570   5.654  2.0273 -0.7528  1.1537
19582TIP3   OH280160   3.517   3.557   1.980 -0.5250 -0.1651  0.1262
19582TIP3    H180161   3.549   3.574   2.069 -1.4280  0.6386  0.3155
19582TIP3    H280162   3.444   3.495   1.992 -0.6577 -0.0440 -0.0533
19583TIP3   OH280163   5.379   0.430  16.316  0.2730 -0.4442  0.0196
19583TIP3    H180164   5.287   0.423  16.341 -0.3895 -1.5875 -2.3822
19583TIP3    H280165   5.382   0.506  16.257  1.6305  1.7396  2.6412
19584TIP3   OH280166   6.712   5.462  14.897  0.0901  0.1933  0.7917
19584TIP3    H180167   6.678   5.539  14.943  0.8983  0.2842  1.2484
19584TIP3    H280168   6.685   5.475  14.806 -2.0388 -0.2718  1.3010
19585TIP3   OH280169   3.401   3.450  15.437  0.0246  0.1231  0.1305
19585TIP3    H180170   3.349   3.503  15.377 -2.4129  0.5918  2.4442
19585TIP3    H280171   3.446   3.514  15.493 -0.7741 -0.2105  1.1956
19586TIP3   OH280172   2.143   6.318   0.475  0.0254 -0.2483 -0.5414
19586TIP3    H180173   2.155   6.332   0.569 -0.7421 -1.1236 -0.2976
19586TIP3    H280174   2.051   6.339   0.459 -0.5711 -2.5752 -0.5779
19587TIP3   OH280175   1.997   1.338  15.279  0.2431 -0.2127 -0.0961
19587TIP3    H180176   2.008   1.419  15.230 -1.8059  0.2716  0.1499
19587TIP3    H280177   2.070   1.282  15.250  1.0814  1.3112 -1.0492
19588TIP3   OH280178   5.415   4.136   0.455 -0.2805  0.0221 -0.1601
19588TIP3    H180179   5.359   4.059   0.463 -0.8583  0.2622 -1.4918
19588TIP3    H280180   5.364   4.196   0.400  0.6538  0.8709 -0.1231
19589TIP3   OH280181   4.247   4.017   5.855 -0.0068  0.3556 -0.3256
19589TIP3    H180182   4.216   4.104   5.828 -0.3956  0.1980 -0.3909
19589TIP3    H280183   4.320   4.036   5.914  0.2988  0.7140 -0.8065
19590TIP3   OH280184   2.379   6.571  14.143  0.2947 -0.0507 -0.1112
19590TIP3    H180185   2.443   6.563  14.072 -0.5517 -1.7119 -0.7280
19590TIP3    H280186   2.311   6.629  14.109  0.3885 -0.0351 -0.2685
19591TIP3   OH280187   6.211   5.563  16.502 -0.5629  0.2548 -0.0100
19591TIP3    H180188   6.135   5.616  16.478  0.0064  1.0185 -0.1659
19591TIP3    H280189   6.269   5.623  16.547 -0.2134 -0.4177  0.4566
19592TIP3   OH280190   1.510   3.091   3.836 -0.1130  0.0486 -0.9641
19592TIP3    H180191   1.451   3.077   3.911  1.7365 -1.5657  0.2907
19592TIP3    H280192   1.569   3.160   3.865 -0.8573  1.1268 -1.9239
19593TIP3   OH280193   3.890   1.694   3.276 -0.4910 -0.7836  0.4551
19593TIP3    H180194   3.817   1.637   3.249 -0.1480 -1.1776  0.3546
19593TIP3    H280195   3.947   1.697   3.199  0.3460 -1.6707  1.0202
19594TIP3   OH280196   1.989   2.529   5.846 -0.3411  0.4099  0.9190
19594TIP3    H180197   2.014   2.450   5.799  0.3372  0.2806  1.4804
19594TIP3    H280198   1.898   2.544   5.821 -0.3166 -0.2507  0.4059
19595TIP3   OH280199   4.019   4.187   4.903  0.0266  0.0363 -0.4808
19595TIP3    H180200   4.018   4.192   4.998  0.4921  0.8783 -0.5089
19595TIP3    H280201   4.094   4.240   4.877  1.2152 -1.9211 -1.2299
19596TIP3   OH280202   3.123   6.134   3.766  0.0945  0.6134 -0.4167
19596TIP3    H180203   3.082   6.198   3.707  0.6361  0.6603 -0.7428
19596TIP3    H280204   3.096   6.162   3.853 -1.2379  0.1824 -0.6564
19597TIP3   OH280205   2.208   4.515   5.089 -0.0499 -0.2890 -0.2428
19597TIP3    H180206   2.254   4.583   5.040 -0.9740  0.0173 -0.7002
19597TIP3    H280207   2.124   4.554   5.113  0.4720 -0.3162  1.8779
19598TIP3   OH280208   1.450   6.526   6.214  0.2407  0.7142 -0.4088
19598TIP3    H180209   1.480   6.456   6.272  0.8982  1.7305  0.5204
19598TIP3    H280210   1.513   6.526   6.142  2.4524  2.5950  1.3487
19599TIP3   OH280211   0.254   0.827   0.416 -0.0545 -0.7092 -0.0789
19599TIP3    H180212   0.210   0.790   0.493  0.1174  1.2016  0.9884
19599TIP3    H280213   0.187   0.881   0.374  0.6216  0.4612  0.3136
19600TIP3   OH280214   0.769   5.478   1.565  0.4811  0.1904 -0.4545
19600TIP3    H180215   0.711   5.493   1.640  0.6024 -0.2194 -0.2768
19600TIP3    H280216   0.713   5.437   1.499 -0.0749  2.1238 -1.2740
19601TIP3   OH280217   6.524   3.329  14.194 -0.1452 -0.4992  0.3011
19601TIP3    H180218   6.517   3.243  14.234 -1.0165 -2.0929 -2.9720
19601TIP3    H280219   6.617   3.338  14.173 -0.0829 -0.6830  0.4886
19602TIP3   OH280220   3.208   0.030  11.274 -0.0667 -0.7715  0.3899
19602TIP3    H180221   3.226   0.049  11.367 -1.1338  0.5912  0.3538
19602TIP3    H280222   3.293   0.005  11.238  1.0581  1.8730  1.0118
19603TIP3   OH280223   4.717   5.328  15.117  0.1371 -0.2462  0.9656
19603TIP3    H180224   4.705   5.390  15.189 -1.2702  0.7951 -0.1061
19603TIP3    H280225   4.811   5.311  15.116  0.6022  1.9667  1.2489
19604TIP3   OH280226   5.136   4.689  16.713 -0.3162  0.1587 -0.4126
19604TIP3    H180227   5.150   4.610  16.662  0.1800 -0.3085  0.4318
19604TIP3    H280228   5.187   4.676  16.793 -0.8009  1.0197  0.0551
19605TIP3   OH280229   4.299   1.995  12.012  0.0060  0.7887  0.3884
19605TIP3    H180230   4.375   1.950  11.974 -2.2757 -1.9703 -1.2705
19605TIP3    H280231   4.315   1.990  12.107  1.2318 -1.0306  0.1487
19606TIP3   OH280232   4.930   4.868   3.713  0.0251 -0.1804 -0.2642
19606TIP3    H180233   4.940   4.871   3.618 -1.6999 -0.7120 -0.5005
19606TIP3    H280234   5.018   4.884   3.747  0.5099  0.8970 -1.9203
19607TIP3   OH280235   0.759   1.043  16.666 -0.4864 -0.1485  0.4346
19607TIP3    H180236   0.769   1.100  16.742 -0.2710  1.7283 -0.9074
19607TIP3    H280237   0.727   1.101  16.597 -0.8991 -1.8262 -0.8500
19608TIP3   OH280238   1.410   4.454  16.497 -0.3514  0.1264 -0.3847
19608TIP3    H180239   1.426   4.503  16.416 -0.3667 -0.6377 -0.8641
19608TIP3    H280240   1.318   4.469  16.516 -0.4019  0.1393 -0.6320
19609TIP3   OH280241   4.314   2.102  12.858  0.6357 -0.9819 -0.4605
19609TIP3    H180242   4.284   2.012  12.867  0.9341 -0.9822  0.6070
19609TIP3    H280243   4.352   2.105  12.770 -1.0870 -1.3644 -1.2521
19610TIP3   OH280244   5.618   1.708  12.731  0.3823  0.5365  0.2728
19610TIP3    H180245   5.610   1.668  12.818  0.0502  0.5359  0.2440
19610TIP3    H280246   5.586   1.797  12.742 -1.7137 -0.0784 -0.2982
19611TIP3   OH280247   5.038   6.116   4.565  0.4707  0.0442 -0.1474
19611TIP3    H180248   5.109   6.179   4.552 -1.2291  1.9830 -0.6251
19611TIP3    H280249   5.030   6.072   4.480 -0.0467  1.1651 -0.7186
19612TIP3   OH280250   4.574   3.564  10.959 -0.2192  0.7241  0.0382
19612TIP3    H180251   4.585   3.522  11.045  1.1358 -0.6156 -0.7226
19612TIP3    H280252   4.651   3.621  10.951 -1.3531  2.3838  0.4888
19613TIP3   OH280253   6.342   6.689  14.475 -0.0689 -0.3846  0.0379
19613TIP3    H180254   6.405   6.617  14.473 -2.3532 -2.5082 -0.4942
19613TIP3    H280255   6.332   6.711  14.568  0.8994 -0.5149  0.1734
19614TIP3   OH280256   1.399   0.702  10.838 -0.2831  0.4021  0.1361
19614TIP3    H180257   1.331   0.637  10.823 -0.8041  0.4777  1.9405
19614TIP3    H280258   1.358   0.785  10.813 -0.6064  0.3557  0.4997
19615TIP3   OH280259   2.971   4.325   0.347 -0.4026  0.0572 -0.7196
19615TIP3    H180260   2.900   4.351   0.287 -0.6228  1.5406  0.1334
19615TIP3    H280261   3.035   4.396   0.340 -0.7152  0.5982  1.2236
19616TIP3   OH280262   6.390   2.018   3.403  0.0929  0.6285 -0.1427
19616TIP3    H180263   6.454   2.059   3.346  0.5150 -0.0126 -0.1398
19616TIP3    H280264   6.426   2.025   3.491  0.3263 -0.0275 -0.1794
19617TIP3   OH280265   5.141   2.018  15.865 -0.1420 -0.1326  0.3669
19617TIP3    H180266   5.156   2.106  15.829 -1.2746 -0.2741 -0.5316
19617TIP3    H280267   5.199   1.962  15.814 -2.8335 -0.5723 -2.5677
19618TIP3   OH280268   4.213   4.346  16.282  0.2679  0.5966 -0.2148
19618TIP3    H180269   4.241   4.280  16.218  2.0376  0.0815  1.0239
19618TIP3    H280270   4.122   4.364  16.258  0.2354 -1.0729 -1.6103
19619TIP3   OH280271   1.092   1.260  13.327 -0.2825 -0.1464 -0.8835
19619TIP3    H180272   1.032   1.212  13.270 -0.9581 -1.2824  0.6995
19619TIP3    H280273   1.165   1.200  13.342 -0.7956 -0.4717  0.5381
19620TIP3   OH280274   5.297   2.796  13.040  0.0684  0.0848 -0.0153
19620TIP3    H180275   5.204   2.807  13.060  0.4742  1.7067  1.0544
19620TIP3    H280276   5.318   2.869  12.982  1.0518  0.6846  1.0704
19621TIP3   OH280277   5.502   2.252   0.276  0.0960 -0.4841 -0.1927
19621TIP3    H180278   5.416   2.218   0.251  0.1339 -0.6667 -0.0763
19621TIP3    H280279   5.562   2.213   0.212 -0.0528  0.5344 -0.9723
19622TIP3   OH280280   6.344   0.398   0.203 -0.0800 -0.4991  0.3962
19622TIP3    H180281   6.317   0.478   0.248 -0.2804 -0.9469  1.0826
19622TIP3    H280282   6.433   0.381   0.235  0.1596 -0.2750 -0.1383
19623TIP3   OH280283   1.340   3.534  13.332  0.4107 -0.1053  0.4735
19623TIP3    H180284   1.350   3.491  13.417 -0.5316 -0.7828  0.2629
19623TIP3    H280285   1.342   3.628  13.352 -2.2436 -0.2016  1.6124
19624TIP3   OH280286   3.412   0.079   2.326 -0.3273 -0.1077  0.0295
19624TIP3    H180287   3.406  -0.008   2.367  1.5660 -0.5227 -0.4917
19624TIP3    H280288   3.321   0.101   2.304 -1.1175 -0.9451  2.1791
19625TIP3   OH280289   6.750   6.076  11.455  0.0844  0.9296 -0.2600
19625TIP3    H180290   6.828   6.028  11.483 -0.2299 -1.3608 -2.8225
19625TIP3    H280291   6.768   6.100  11.364 -2.0905  0.5349 -0.8499
19626TIP3   OH280292   0.336   2.887  12.279  0.1132  0.1425 -0.1053
19626TIP3    H180293   0.341   2.866  12.186  2.2054  0.1224 -0.0188
19626TIP3    H280294   0.340   2.803  12.324  2.2794  0.2828  0.0549
19627TIP3   OH280295   1.889   4.641   4.846  0.3249 -0.4918 -0.2889
19627TIP3    H180296   1.891   4.646   4.750 -1.6953  3.1976 -0.3416
19627TIP3    H280297   1.917   4.728   4.874 -0.5452 -1.0061  2.4188
19628TIP3   OH280298   5.654   5.237   5.955  0.1907  0.1405 -0.2323
19628TIP3    H180299   5.699   5.279   6.028  2.9386 -3.3936  0.3911
19628TIP3    H280300   5.581   5.191   5.995  0.3161  0.0569 -0.1029
19629TIP3   OH280301   6.675   3.719   2.547  0.6929  0.5104  0.5048
19629TIP3    H180302   6.669   3.637   2.499  1.0453  0.0800  1.1661
19629TIP3    H280303   6.769   3.734   2.556  0.6320  1.4706 -0.4092
19630TIP3   OH280304   1.892   0.982   0.157 -0.4129 -0.7916 -0.1732
19630TIP3    H180305   1.911   0.932   0.078 -1.1440 -0.7463 -0.3859
19630TIP3    H280306   1.867   0.917   0.222 -0.6178 -0.7621 -0.2229
19631TIP3   OH280307   6.399   5.351  16.530  0.8724  0.1812  0.3957
19631TIP3    H180308   6.338   5.424  16.523 -0.1827 -0.8471 -2.4380
19631TIP3    H280309   6.391   5.323  16.621 -1.2463  1.4710  0.6820
19632TIP3   OH280310   5.811   1.947  16.882  0.0308  0.3339 -0.3320
19632TIP3    H180311   5.777   1.943  16.971 -0.1288 -1.0451 -0.4304
19632TIP3    H280312   5.892   1.997  16.889  0.9730 -1.2652  0.9379
19633TIP3   OH280313   1.573   6.642  16.859 -0.1503 -0.1931 -0.2840
19633TIP3    H180314   1.619   6.560  16.878  0.5395  0.2059 -0.1833
19633TIP3    H280315   1.491   6.615  16.819 -0.4029 -0.9758  0.7175
19634TIP3   OH280316   3.718   0.728   5.875 -0.3781  0.2203  0.5896
19634TIP3    H180317   3.640   0.691   5.915 -1.0677  0.6330 -0.3306
19634TIP3    H280318   3.786   0.662   5.887 -1.5517 -1.3405 -0.9383
19635TIP3   OH280319   5.697   5.902   4.949 -0.6178 -0.0068 -0.2697
19635TIP3    H180320   5.659   5.934   4.867  0.1707  2.6325  0.2897
19635TIP3    H280321   5.626   5.854   4.991 -1.7286  0.4900 -1.4934
19636TIP3   OH280322   0.215   2.846   3.162  0.0547 -0.4842  0.6206
19636TIP3    H180323   0.157   2.780   3.200 -0.5311 -0.1569  0.3007
19636TIP3    H280324   0.161   2.891   3.097  0.3790  0.4798  1.0070
19637TIP3   OH280325   3.042   2.914  16.499 -0.1322  0.0991  0.7156
19637TIP3    H180326   2.981   2.901  16.427  1.6064  1.8014 -1.2274
19637TIP3    H280327   2.993   2.966  16.563 -1.2873 -0.2475  0.1456
19638TIP3   OH280328   2.446   6.693   1.253 -0.2764  0.2243  0.0247
19638TIP3    H180329   2.392   6.706   1.331  0.6028  1.3942  0.4482
19638TIP3    H280330   2.385   6.706   1.180 -0.8329  0.3613  0.5079
19639TIP3   OH280331   2.204   5.280  15.009  0.8424  0.1745  0.3413
19639TIP3    H180332   2.113   5.310  15.011  0.2642 -1.3690 -0.6592
19639TIP3    H280333   2.211   5.232  14.927  1.9743 -1.4736  1.3448
19640TIP3   OH280334   1.518   1.124   4.038  0.2697 -0.2437  0.2941
19640TIP3    H180335   1.544   1.171   4.117  1.1170 -4.7064  2.9896
19640TIP3    H280336   1.596   1.076   4.011 -1.2478 -2.5202 -0.3287
19641TIP3   OH280337   2.283   3.758  16.408  0.3673 -0.1475 -0.6578
19641TIP3    H180338   2.320   3.672  16.385  1.3309  0.9784 -3.9752
19641TIP3    H280339   2.352   3.820  16.386 -1.3226  1.6588 -1.1107
19642TIP3   OH280340   3.286   3.691  14.996 -0.5786  0.1501 -0.5394
19642TIP3    H180341   3.235   3.772  15.001 -0.5154  0.2999 -1.9422
19642TIP3    H280342   3.367   3.717  14.953 -0.8519 -0.7800 -1.6662
19643TIP3   OH280343   2.241   6.076  12.319 -0.4707  0.0209 -0.1651
19643TIP3    H180344   2.175   6.093  12.387 -1.4608  0.9370 -1.3230
19643TIP3    H280345   2.195   6.025  12.253  0.4500 -0.7290 -0.2550
19644TIP3   OH280346   2.433   2.854   2.232 -0.3376  0.1960 -0.0904
19644TIP3    H180347   2.481   2.916   2.286 -2.2564  0.3861  1.5137
19644TIP3    H280348   2.375   2.908   2.178 -0.1562 -0.1028 -0.5914
19645TIP3   OH280349   3.323   3.405   3.971  0.2015 -0.5757 -0.2349
19645TIP3    H180350   3.413   3.376   3.953  1.4521  2.3468  0.7889
19645TIP3    H280351   3.295   3.451   3.892  0.1991 -0.1632  0.0032
19646TIP3   OH280352   3.542   6.752  15.839  0.2334 -0.0669 -0.2489
19646TIP3    H180353   3.473   6.799  15.887  1.4609  2.7567 -1.0201
19646TIP3    H280354   3.515   6.758  15.747  1.0887  0.4227 -0.4831
19647TIP3   OH280355   2.207   1.278  12.215  0.3649  0.2566 -0.3167
19647TIP3    H180356   2.117   1.298  12.240  0.4551  2.8894 -1.6911
19647TIP3    H280357   2.220   1.326  12.133  2.9915 -0.1209 -0.2174
19648TIP3   OH280358   2.515   1.432   5.068  0.4308  0.0232  0.4068
19648TIP3    H180359   2.556   1.454   5.152  2.3343  1.9640 -0.9217
19648TIP3    H280360   2.422   1.449   5.081  0.7567  0.7584  1.9881
19649TIP3   OH280361   3.409   3.798   0.125 -0.1723  0.3595 -0.4479
19649TIP3    H180362   3.461   3.860   0.174 -0.5492  1.3366 -1.2454
19649TIP3    H280363   3.417   3.826   0.034 -1.8532  0.3736 -0.6269
19650TIP3   OH280364   3.956   3.443   6.422  0.0250  0.3635 -0.3668
19650TIP3    H180365   3.922   3.370   6.475 -0.0767  1.7490  1.5833
19650TIP3    H280366   4.050   3.426   6.416 -0.1436 -0.4699 -0.8629
19651TIP3   OH280367   5.717   6.151   4.174  0.1253  0.1427  0.1673
19651TIP3    H180368   5.747   6.231   4.218  1.4106 -0.3453  0.2231
19651TIP3    H280369   5.628   6.171   4.146 -1.0021  0.2603  3.4811
19652TIP3   OH280370   3.622   5.395  10.834 -0.1856  0.3745  0.1692
19652TIP3    H180371   3.701   5.446  10.818  0.9168 -1.0970  0.7142
19652TIP3    H280372   3.633   5.361  10.923  0.4607 -2.9741 -1.0434
19653TIP3   OH280373   6.745   5.771   1.376 -0.3411 -0.1405 -0.2072
19653TIP3    H180374   6.658   5.812   1.369  0.2024  1.7697  2.5276
19653TIP3    H280375   6.804   5.844   1.396  1.1930 -1.8626  1.9737
19654TIP3   OH280376   5.049   2.324   1.457 -0.0308 -0.6472 -0.2668
19654TIP3    H180377   5.051   2.259   1.528  0.1098  0.6948  0.9925
19654TIP3    H280378   4.955   2.340   1.444 -0.0483  1.0156  1.4749
19655TIP3   OH280379   6.051   3.538   4.212 -0.1862  0.3058  1.0293
19655TIP3    H180380   6.132   3.575   4.246  1.3349 -1.5937 -0.3599
19655TIP3    H280381   6.044   3.452   4.254 -0.7424 -0.1083  0.1160
19656TIP3   OH280382   2.101   4.668   5.488  0.0715 -0.0431 -0.2866
19656TIP3    H180383   2.026   4.692   5.542 -0.2129 -2.4903  0.5264
19656TIP3    H280384   2.156   4.747   5.486 -1.8873  1.3963  0.1302
19657TIP3   OH280385   2.828   0.725  11.149 -0.0951  0.0697  0.8691
19657TIP3    H180386   2.894   0.717  11.218  1.6584 -1.4877 -0.8760
19657TIP3    H280387   2.870   0.777  11.081 -0.7346 -0.7400 -0.1740
19658TIP3   OH280388   4.625   4.166   6.252  0.0787 -0.3340 -0.1239
19658TIP3    H180389   4.552   4.225   6.272  0.1389 -0.3363  0.1011
19658TIP3    H280390   4.690   4.222   6.209  0.5136 -0.0435  0.9000
19659TIP3   OH280391   1.675   1.331  14.127 -0.1276 -0.2566 -0.1885
19659TIP3    H180392   1.600   1.310  14.182  0.2484  1.2370  0.9466
19659TIP3    H280393   1.658   1.419  14.093  0.0138 -0.8337 -1.8969
19660TIP3   OH280394   0.054   3.236  16.639  0.5979  0.1365 -0.0776
19660TIP3    H180395   0.100   3.274  16.564 -2.0834  0.6986 -1.5518
19660TIP3    H280396   0.020   3.311  16.686 -0.0962 -0.2978  0.1177
19661TIP3   OH280397   3.242   0.274   5.907 -0.4223  0.2061  0.4292
19661TIP3    H180398   3.320   0.328   5.922 -1.0017  1.1374  0.1438
19661TIP3    H280399   3.172   0.319   5.954 -1.1486  0.3148 -0.7264
19662TIP3   OH280400   4.363   2.922  13.720  0.4030 -0.5481  0.2747
19662TIP3    H180401   4.367   2.858  13.791  0.6374 -1.6989 -0.7394
19662TIP3    H280402   4.408   2.999  13.755  0.4021 -1.0470  1.4166
19663TIP3   OH280403   6.335   3.807  16.803  0.1555  0.1682  0.0800
19663TIP3    H180404   6.404   3.778  16.744 -0.4460  0.0449 -0.5631
19663TIP3    H280405   6.379   3.870  16.861  0.7846  0.1704 -0.3893
19664TIP3   OH280406   0.423   3.121  13.376  0.0474 -0.0547  0.1301
19664TIP3    H180407   0.385   3.044  13.417  3.0553 -1.6776  0.1184
19664TIP3    H280408   0.503   3.090  13.334  2.1701  3.2489  1.2745
19665TIP3   OH280409   2.949   6.183  12.930 -0.5781  0.1064  0.2863
19665TIP3    H180410   2.861   6.171  12.968 -1.1086  0.1039 -0.9047
19665TIP3    H280411   2.987   6.255  12.981 -0.5673 -1.0561  2.0030
19666TIP3   OH280412   4.554   2.328  12.555  0.4455 -0.7163 -0.2182
19666TIP3    H180413   4.573   2.414  12.517 -0.1306 -0.0324  0.9842
19666TIP3    H280414   4.639   2.283  12.555  0.9395  0.1896 -0.0469
19667TIP3   OH280415   0.508   0.776  12.245 -0.2504  0.2136  0.3665
19667TIP3    H180416   0.596   0.742  12.233  0.1237  1.0809  0.5995
19667TIP3    H280417   0.456   0.699  12.271  0.3754 -0.3476 -0.0086
19668TIP3   OH280418   2.049   2.365   5.593 -0.0162 -0.0002 -0.2095
19668TIP3    H180419   2.092   2.312   5.526  3.1654 -1.0574  2.3809
19668TIP3    H280420   1.996   2.302   5.642 -0.5590  0.3312 -0.3629
19669TIP3   OH280421   3.918   2.657  12.857 -0.1956 -0.6627 -0.1576
19669TIP3    H180422   3.827   2.679  12.840 -0.3389 -1.3864 -0.3768
19669TIP3    H280423   3.968   2.729  12.818 -0.6697 -0.2596 -0.0231
19670TIP3   OH280424   2.388   0.032  13.435  0.7905  0.1236  0.2461
19670TIP3    H180425   2.391   0.127  13.434 -0.6433  0.1813 -0.7336
19670TIP3    H280426   2.473   0.005  13.401  0.8688  1.0631 -0.3340
19671TIP3   OH280427   6.731   3.357  12.675  0.7035 -0.0844 -0.0452
19671TIP3    H180428   6.807   3.399  12.716  1.0173  0.9995 -1.6316
19671TIP3    H280429   6.762   3.334  12.587 -0.4496 -0.7310 -0.2970
19672TIP3   OH280430   1.855   5.063  14.462 -0.2209  0.2583  0.4422
19672TIP3    H180431   1.764   5.042  14.481 -0.2985 -1.7227 -1.6921
19672TIP3    H280432   1.905   4.993  14.504  0.1695  0.2644 -0.0081
19673TIP3   OH280433   2.125   5.976  13.493 -0.6107  0.5365  0.4520
19673TIP3    H180434   2.151   5.902  13.437 -1.3663 -0.4768  1.4094
19673TIP3    H280435   2.137   5.944  13.582 -1.8876  1.2293  0.8914
19674TIP3   OH280436   5.577   0.790   0.252 -0.3484  0.0198  0.0384
19674TIP3    H180437   5.618   0.720   0.302 -1.2012  0.0638  0.8388
19674TIP3    H280438   5.538   0.847   0.319 -2.3496 -0.4237 -0.6697
19675TIP3   OH280439   2.778   2.555   3.107 -0.3831  0.0018  0.2517
19675TIP3    H180440   2.842   2.625   3.122  0.1534  0.0536 -2.0157
19675TIP3    H280441   2.819   2.477   3.143  0.6866  0.1641 -0.5715
19676TIP3   OH280442   6.396   3.837   4.889  0.2640  0.3352 -0.2518
19676TIP3    H180443   6.455   3.826   4.815 -0.1404 -0.0034 -0.5346
19676TIP3    H280444   6.396   3.931   4.906  1.5932  0.2356  0.3598
19677TIP3   OH280445   4.452   2.018   3.289  0.5226  0.6005  0.1930
19677TIP3    H180446   4.435   2.073   3.366  0.9988 -0.5821  1.1646
19677TIP3    H280447   4.384   1.951   3.292  1.1041  0.0013  0.1226
19678TIP3   OH280448   1.224   6.392  16.451 -0.3765  0.5045  0.1344
19678TIP3    H180449   1.183   6.351  16.375  0.9042 -0.6536  0.0222
19678TIP3    H280450   1.173   6.361  16.526 -0.8466  0.6028 -0.1426
19679TIP3   OH280451   1.022   0.164   2.991 -0.5169  0.1096  0.1756
19679TIP3    H180452   1.118   0.163   2.984 -0.3600  1.0918  1.6627
19679TIP3    H280453   1.004   0.218   3.069 -2.2910  0.1600 -0.2215
19680TIP3   OH280454   2.568   6.071  13.238 -0.2061  0.0118  0.5579
19680TIP3    H180455   2.494   6.014  13.217  0.9667 -1.0951 -0.8115
19680TIP3    H280456   2.584   6.057  13.332 -1.2893 -0.2666  0.7071
19681TIP3   OH280457   2.135   5.056   2.709  0.5407  0.4623  0.1244
19681TIP3    H180458   2.188   5.132   2.684  0.5009  0.2180 -0.7406
19681TIP3    H280459   2.183   4.981   2.676  0.1582  0.1702  0.2253
19682TIP3   OH280460   2.294   3.352   2.165 -0.3893 -0.2216  0.3881
19682TIP3    H180461   2.280   3.289   2.094  1.1178 -0.7399  0.5200
19682TIP3    H280462   2.287   3.438   2.123 -0.5710 -0.5107 -0.1746
19683TIP3   OH280463   4.487   3.374  14.790 -0.2173  0.2327 -0.4844
19683TIP3    H180464   4.476   3.427  14.711  2.4113  2.2173  0.3630
19683TIP3    H280465   4.521   3.290  14.758  0.4802  0.8777 -1.4708
19684TIP3   OH280466   1.382   3.344  11.677 -0.1680  0.1395  0.0798
19684TIP3    H180467   1.361   3.336  11.584  1.0870  0.3140 -0.2385
19684TIP3    H280468   1.416   3.433  11.687 -0.8301  0.3197  0.8265
19685TIP3   OH280469   1.387   5.772   2.014  0.2828  0.2735 -0.1925
19685TIP3    H180470   1.474   5.811   2.025 -0.2912  1.2917  1.0548
19685TIP3    H280471   1.330   5.846   1.991 -0.5164 -0.1314  0.4269
19686TIP3   OH280472   1.508   0.406  15.798 -0.6490 -0.7289  0.2341
19686TIP3    H180473   1.428   0.394  15.849 -0.9165  0.6451  0.1750
19686TIP3    H280474   1.547   0.486  15.832  0.6258 -1.2673  0.1305
19687TIP3   OH280475   4.962   5.638   0.496  0.1543 -0.2631 -0.6810
19687TIP3    H180476   4.987   5.559   0.449  0.2538  0.4935 -1.9369
19687TIP3    H280477   4.917   5.606   0.574  2.1613 -1.5831  0.0046
19688TIP3   OH280478   0.975   0.048  12.477 -0.7915 -0.8649 -0.4655
19688TIP3    H180479   0.952  -0.039  12.446 -2.0394 -1.6579  2.3683
19688TIP3    H280480   0.892   0.089  12.500 -0.1428  0.6730 -0.7264
19689TIP3   OH280481   3.091   2.834   1.672 -0.4269  0.0594 -0.0175
19689TIP3    H180482   3.052   2.823   1.759 -0.6357  1.2599  0.0722
19689TIP3    H280483   3.080   2.750   1.629 -0.7857 -0.3964  0.9439
19690TIP3   OH280484   2.742   6.409   5.931 -0.4864  0.2005  0.4678
19690TIP3    H180485   2.722   6.337   5.990 -1.7892 -1.2909 -1.6557
19690TIP3    H280486   2.823   6.382   5.887  0.2708  1.1273  1.2476
19691TIP3   OH280487   3.312   4.370  14.701  0.1309 -0.0246 -0.2566
19691TIP3    H180488   3.322   4.329  14.616  1.0553 -0.0628 -0.1415
19691TIP3    H280489   3.219   4.360  14.722  0.3747 -2.4589 -0.0373
19692TIP3   OH280490   3.860   3.237  10.762  0.0087 -0.0457  0.3163
19692TIP3    H180491   3.850   3.155  10.713 -0.3470  0.6241 -0.7747
19692TIP3    H280492   3.953   3.238  10.787  0.2900 -0.2562 -0.6580
19693TIP3   OH280493   3.411   3.526   5.543  0.0097  0.1979  0.3839
19693TIP3    H180494   3.367   3.554   5.463  0.3773  2.0887  0.8021
19693TIP3    H280495   3.413   3.604   5.598 -0.2960 -1.0628  2.2918
19694TIP3   OH280496   6.076   2.639  16.419  0.1945  0.2785  0.4366
19694TIP3    H180497   6.088   2.563  16.362  0.3256 -0.1319  1.0070
19694TIP3    H280498   5.989   2.673  16.396  0.2798  0.1720 -0.0656
19695TIP3   OH280499   2.860   1.668   3.911 -0.0296  0.4406  0.1795
19695TIP3    H180500   2.823   1.629   3.989 -1.6049 -1.8013 -1.5694
19695TIP3    H280501   2.798   1.737   3.887 -0.4540  0.0070  0.0070
19696TIP3   OH280502   1.000   1.504   4.853  0.0462  0.9026  0.4082
19696TIP3    H180503   1.069   1.564   4.826 -1.0018  2.7616  1.6282
19696TIP3    H280504   0.949   1.488   4.774  1.6443 -0.2932 -0.4467
19697TIP3   OH280505   0.614   0.149   1.687  0.3033  0.4852  0.3250
19697TIP3    H180506   0.659   0.071   1.656  1.0071  0.3648  1.6025
19697TIP3    H280507   0.684   0.213   1.703 -0.2885  1.5726 -1.1342
19698TIP3   OH280508   1.905   1.325  12.546 -0.4199  0.2329  0.4957
19698TIP3    H180509   1.878   1.284  12.629  0.5553  1.2822  1.3751
19698TIP3    H280510   2.000   1.338  12.556 -0.4776  1.4394 -0.3066
19699TIP3   OH280511   1.635   6.658   6.488 -0.3874  0.1855  0.0893
19699TIP3    H180512   1.542   6.660   6.511 -0.8868 -1.1597 -1.6157
19699TIP3    H280513   1.656   6.565   6.481  1.1762  0.4667  0.6944
19700TIP3   OH280514   1.037   1.562   1.463 -0.2088  0.4893  0.2433
19700TIP3    H180515   1.102   1.493   1.478  0.9614  1.2628 -0.9497
19700TIP3    H280516   0.960   1.534   1.511 -0.3092 -2.4398 -1.4028
19701TIP3   OH280517   0.230   2.561   5.752  0.0896 -0.0154  0.7401
19701TIP3    H180518   0.212   2.556   5.659  1.0507  0.9267  0.4773
19701TIP3    H280519   0.263   2.474   5.775 -0.9050 -0.5004  0.3933
19702TIP3   OH280520   0.997   1.486  12.772  0.0380 -0.4239 -0.4074
19702TIP3    H180521   1.022   1.560  12.827  0.3163  0.5983 -1.8512
19702TIP3    H280522   0.938   1.435  12.827  1.2558 -0.1276  1.2618
19703TIP3   OH280523   1.798   5.525  14.759 -0.6207 -0.0821  0.5862
19703TIP3    H180524   1.823   5.617  14.773  0.9937 -0.2770 -0.6780
19703TIP3    H280525   1.709   5.530  14.726 -0.7164  1.0015  0.9454
19704TIP3   OH280526   2.574   6.147  16.599 -0.0126 -0.2731 -1.0834
19704TIP3    H180527   2.657   6.105  16.623 -0.3558 -0.7357 -0.6883
19704TIP3    H280528   2.577   6.153  16.504  1.1481  1.1192 -0.9887
19705TIP3   OH280529   5.526   4.721   0.489  0.0590 -0.0476  0.5484
19705TIP3    H180530   5.569   4.735   0.405  0.1455  2.0029  0.8749
19705TIP3    H280531   5.515   4.809   0.525 -1.1587 -0.7825  2.1007
19706TIP3   OH280532   2.468   1.059  13.823  0.6492 -0.1110  0.3359
19706TIP3    H180533   2.414   0.997  13.872  0.8182 -0.6701 -0.1673
19706TIP3    H280534   2.441   1.145  13.855 -1.8047 -0.2411 -1.0646
19707TIP3   OH280535   0.357   4.087  13.406  0.7597 -0.0238 -0.4882
19707TIP3    H180536   0.386   4.059  13.319  1.5705 -4.4533  0.9541
19707TIP3    H280537   0.436   4.080  13.460 -0.1550  0.6788  0.9824
19708TIP3   OH280538   0.963   1.420   1.876 -0.2572 -0.4310 -0.2311
19708TIP3    H180539   0.995   1.485   1.814 -0.6352 -0.7844 -0.8117
19708TIP3    H280540   0.885   1.384   1.834 -1.7771  0.8122  1.3903
19709TIP3   OH280541   4.631   2.380   1.641 -0.2331 -0.3889 -0.3317
19709TIP3    H180542   4.537   2.366   1.656 -0.1514 -1.3664 -0.6785
19709TIP3    H280543   4.669   2.292   1.643  0.7416  0.0348  0.2183
19710TIP3   OH280544   5.381   3.463  10.485  0.1728  0.0166 -0.1595
19710TIP3    H180545   5.362   3.482  10.393  0.2992  1.8056  0.1389
19710TIP3    H280546   5.325   3.388  10.506  0.5786 -0.7943 -1.8280
19711TIP3   OH280547   4.623   3.158   1.022 -0.3067 -0.0770  0.8355
19711TIP3    H180548   4.613   3.147   0.927 -1.2515 -0.6311  0.9830
19711TIP3    H280549   4.697   3.218   1.032  1.6339 -2.1638 -0.1780
19712TIP3   OH280550   3.610   5.999   1.956  0.0146  0.3203 -0.7400
19712TIP3    H180551   3.555   5.943   1.901  0.3346  0.1699 -0.9150
19712TIP3    H280552   3.699   5.981   1.926  0.1208  0.9541 -0.8250
19713TIP3   OH280553   5.828   4.130   3.506  0.1214 -0.2730 -0.0680
19713TIP3    H180554   5.816   4.209   3.559 -2.6826 -1.6443  1.5977
19713TIP3    H280555   5.899   4.082   3.549  0.6920  0.5410 -0.0877
19714TIP3   OH280556   5.209   0.111   5.706 -0.4902  0.4161  0.6896
19714TIP3    H180557   5.212   0.138   5.798  1.1456 -0.1066  0.8203
19714TIP3    H280558   5.191   0.017   5.708  1.1423  0.0635  0.5903
19715TIP3   OH280559   3.308   4.824  14.780 -0.7389  0.0412 -0.1038
19715TIP3    H180560   3.381   4.767  14.754 -1.0837 -0.0555 -0.9055
19715TIP3    H280561   3.271   4.853  14.696 -0.2003  1.9180  0.2729
19716TIP3   OH280562   4.467   1.020   0.240 -0.7615  0.0429  0.0170
19716TIP3    H180563   4.401   1.086   0.262 -0.5296  0.1646  0.3524
19716TIP3    H280564   4.476   1.027   0.145  1.2929  2.4973  0.2737
19717TIP3   OH280565   4.996   2.974   6.329 -0.1507  0.0114  0.5101
19717TIP3    H180566   5.028   3.064   6.337 -0.0723 -0.0936  1.4794
19717TIP3    H280567   4.904   2.978   6.352 -0.1234 -0.1756  0.6578
19718TIP3   OH280568   6.002   6.361  11.852  0.0071 -0.1709 -0.8418
19718TIP3    H180569   5.912   6.369  11.821  0.2315  1.1047 -1.2161
19718TIP3    H280570   6.008   6.272  11.886 -0.8555 -0.9149 -2.5436
19719TIP3   OH280571   3.860   0.830  10.833  0.3349  0.2404  0.9072
19719TIP3    H180572   3.804   0.848  10.757  0.8049  1.4052  0.8239
19719TIP3    H280573   3.938   0.789  10.796  0.5175  0.7089  0.7707
19720TIP3   OH280574   4.285   0.207   3.897  0.4296  0.2560  0.4376
19720TIP3    H180575   4.376   0.186   3.879  0.2078 -1.4588  1.1273
19720TIP3    H280576   4.274   0.191   3.991 -1.0890 -1.8195 -0.0248
19721TIP3   OH280577   4.575   6.226  12.097 -0.6663  0.4003  0.0373
19721TIP3    H180578   4.514   6.189  12.033 -1.5622  0.5387  0.8039
19721TIP3    H280579   4.566   6.321  12.086 -0.3195  0.4202 -0.0929
19722TIP3   OH280580   5.195   5.913  13.476 -0.0495 -0.6726 -0.1211
19722TIP3    H180581   5.221   5.973  13.406 -0.8513 -0.0183  0.1235
19722TIP3    H280582   5.278   5.877  13.508  0.3627 -0.5964 -1.0611
19723TIP3   OH280583   3.280   2.012  13.174 -0.2764  0.0978 -0.2491
19723TIP3    H180584   3.234   2.073  13.116  0.6738  0.6758 -0.4045
19723TIP3    H280585   3.315   1.945  13.115 -3.0617 -1.8528  0.0805
19724TIP3   OH280586   6.147   5.963  15.924  0.1142  0.3045 -0.2428
19724TIP3    H180587   6.236   5.939  15.950 -0.2571  0.7406  1.5327
19724TIP3    H280588   6.090   5.914  15.984 -0.8206  0.8497 -0.6587
19725TIP3   OH280589   2.906   1.997   2.263 -0.0927 -0.3429 -0.3837
19725TIP3    H180590   2.815   1.985   2.291  0.1499 -0.2434  0.4947
19725TIP3    H280591   2.909   1.960   2.175 -0.8721 -0.7868 -0.2379
19726TIP3   OH280592   3.802   3.175   0.952  0.3129  0.1262  0.3197
19726TIP3    H180593   3.789   3.265   0.982 -0.7058  0.0936  0.0245
19726TIP3    H280594   3.838   3.129   1.027  2.2278  1.0878  0.0554
19727TIP3   OH280595   0.075   1.371   6.094 -0.0146 -0.0090  0.4784
19727TIP3    H180596   0.042   1.310   6.160 -0.0157 -2.6332 -1.7569
19727TIP3    H280597   0.170   1.358   6.093 -0.1355 -1.0418 -0.8976
19728TIP3   OH280598   1.002   6.193  14.615  0.6185  0.2622 -0.2577
19728TIP3    H180599   0.971   6.140  14.689  1.6382  0.0967  0.0601
19728TIP3    H280600   1.067   6.138  14.572  1.3389  1.0640 -0.2094
19729TIP3   OH280601   6.274   2.154  10.893 -0.2208 -0.0842  0.2136
19729TIP3    H180602   6.182   2.181  10.885 -0.2002  0.1884  0.8525
19729TIP3    H280603   6.323   2.236  10.889 -0.0720 -0.1382  0.9105
19730TIP3   OH280604   6.031   4.954   1.167  0.4053 -0.2630  0.0121
19730TIP3    H180605   5.980   4.944   1.247  0.6580 -1.9362 -0.0103
19730TIP3    H280606   5.982   5.020   1.116 -1.4655 -1.3991  0.2202
19731TIP3   OH280607   1.727   1.455  16.965 -0.3222 -0.3297 -0.3608
19731TIP3    H180608   1.700   1.370  17.000 -1.6087  1.2488  2.9341
19731TIP3    H280609   1.808   1.476  17.012 -0.5607  0.6563 -0.3673
19732TIP3   OH280610   3.924   3.911  14.595 -0.6625 -0.1843  0.5364
19732TIP3    H180611   4.011   3.873  14.584 -0.8936 -1.1081  1.6644
19732TIP3    H280612   3.929   3.997  14.554  0.0074 -1.2537 -1.8237
19733TIP3   OH280613   0.336   6.267  10.724 -0.4773  0.1984  0.1754
19733TIP3    H180614   0.416   6.281  10.673  1.8609 -1.6047  2.9947
19733TIP3    H280615   0.306   6.180  10.696  0.2923 -0.3961  1.1124
19734TIP3   OH280616   1.290   4.888  11.584  0.0222  0.1201 -0.4268
19734TIP3    H180617   1.203   4.913  11.614 -0.1599  0.8188 -1.5108
19734TIP3    H280618   1.279   4.801  11.545  0.1657 -0.5726  0.9774
19735TIP3   OH280619   3.409   6.225   3.773 -0.0447 -0.2807  0.1454
19735TIP3    H180620   3.318   6.209   3.748 -0.4925 -1.5611  2.3608
19735TIP3    H280621   3.409   6.314   3.810  0.0757  0.5265 -1.6798
19736TIP3   OH280622   0.479   3.465   1.274  0.1278  0.0767 -0.0464
19736TIP3    H180623   0.464   3.438   1.183 -0.9475 -1.0259  0.4343
19736TIP3    H280624   0.401   3.435   1.321  0.1434  1.6381  1.0449
19737TIP3   OH280625   2.117   1.052   3.770 -0.2353 -0.0566 -0.3093
19737TIP3    H180626   2.146   0.971   3.728  0.0119 -0.2526  0.2219
19737TIP3    H280627   2.137   1.039   3.863 -0.5971  0.4402 -0.1564
19738TIP3   OH280628   3.115   0.744  16.073  0.0146  0.0248  0.6851
19738TIP3    H180629   3.206   0.759  16.048  0.8128  1.1077  3.7393
19738TIP3    H280630   3.064   0.798  16.012  1.4698  0.1039 -0.5132
19739TIP3   OH280631   5.320   6.141   4.600  0.9339  0.1910  0.2701
19739TIP3    H180632   5.300   6.124   4.508 -1.5365  0.4761  0.6813
19739TIP3    H280633   5.368   6.064   4.629 -0.7757 -1.2573 -0.5760
19740TIP3   OH280634   5.539   1.994   5.920  0.0415 -0.4828  0.7908
19740TIP3    H180635   5.521   1.934   5.993  1.2642 -1.5130  0.2843
19740TIP3    H280636   5.490   2.073   5.942  0.0986 -0.8914  2.5521
19741TIP3   OH280637   4.104   2.730   2.303 -0.7366  0.2431  0.0664
19741TIP3    H180638   4.014   2.715   2.273 -0.3634 -1.6018 -0.2284
19741TIP3    H280639   4.094   2.777   2.386 -2.0909 -2.0661  1.3058
19742TIP3   OH280640   2.782   4.985  16.841 -0.2551 -1.1014  0.1266
19742TIP3    H180641   2.817   5.055  16.785 -1.0821  0.0026  0.9341
19742TIP3    H280642   2.689   4.983  16.821 -0.6911 -0.2609  1.8379
19743TIP3   OH280643   5.460   4.231  12.332 -0.1008  0.1034 -0.1674
19743TIP3    H180644   5.414   4.166  12.279  0.2146 -0.4179  0.1993
19743TIP3    H280645   5.424   4.315  12.301 -0.6696 -0.2450 -0.4878
19744TIP3   OH280646   1.321   2.547  12.968 -0.2207  0.2898  0.0421
19744TIP3    H180647   1.357   2.563  13.055 -0.4517  0.9181  0.0246
19744TIP3    H280648   1.347   2.457  12.948 -0.4716  0.0145  0.9090
19745TIP3   OH280649   6.250   3.668   5.254  0.2641 -0.3426 -1.0067
19745TIP3    H180650   6.225   3.676   5.346 -0.6362 -0.4101 -1.2421
19745TIP3    H280651   6.244   3.757   5.220  0.8672 -0.2690 -0.9474
19746TIP3   OH280652   2.067   3.249  16.479  0.6311  0.0975  0.0054
19746TIP3    H180653   2.144   3.291  16.515 -0.0652 -0.0901  1.7968
19746TIP3    H280654   2.042   3.184  16.544 -1.5397  0.7410 -0.1060
19747TIP3   OH280655   6.605   0.436  14.209  0.6559  0.5849  0.5118
19747TIP3    H180656   6.700   0.446  14.208  0.8206 -0.8096 -0.4606
19747TIP3    H280657   6.576   0.472  14.125  0.6753 -1.5693 -0.4906
19748TIP3   OH280658   4.975   1.714   1.420  0.7030 -0.4622 -0.3577
19748TIP3    H180659   4.924   1.680   1.347  0.3776  0.8904 -0.7842
19748TIP3    H280660   5.028   1.640   1.449  0.9276 -0.9950 -2.0427
19749TIP3   OH280661   2.923   0.569  14.979 -0.1132 -0.9379  1.0176
19749TIP3    H180662   2.944   0.476  14.971 -0.0463 -0.8111 -1.0111
19749TIP3    H280663   2.874   0.588  14.899  0.6909  0.9866  0.9384
19750TIP3   OH280664   5.471   4.689   1.773  0.8089 -0.1891 -0.3485
19750TIP3    H180665   5.417   4.728   1.841  1.6805 -0.9746  0.8378
19750TIP3    H280666   5.547   4.654   1.819  2.7113  1.4574 -2.0241
19751TIP3   OH280667   4.794   6.069  10.516 -0.5573 -0.3877  0.2645
19751TIP3    H180668   4.802   6.161  10.541  0.9358  0.1822 -2.0032
19751TIP3    H280669   4.700   6.052  10.515 -0.8477  0.9907  1.0319
19752TIP3   OH280670   2.312   0.609   6.356 -0.2348  0.2627  0.5321
19752TIP3    H180671   2.284   0.607   6.265  3.3372  1.6256 -0.7652
19752TIP3    H280672   2.292   0.698   6.386  1.5435  0.9155 -0.0829
19753TIP3   OH280673   5.836   3.775  12.677 -0.4667 -0.4982  0.0696
19753TIP3    H180674   5.798   3.701  12.630  0.4867  0.5731 -2.6396
19753TIP3    H280675   5.801   3.769  12.765 -0.0900 -4.4048  0.1420
19754TIP3   OH280676   1.343   3.694   1.420 -0.0204 -0.0924  0.4499
19754TIP3    H180677   1.368   3.742   1.499  0.3650  0.9918 -0.3097
19754TIP3    H280678   1.416   3.708   1.359 -0.6504 -0.2809 -0.3688
19755TIP3   OH280679   1.041   4.554  14.075 -0.9407  0.4245 -0.3859
19755TIP3    H180680   1.049   4.480  14.135 -2.3628  0.7671  0.2678
19755TIP3    H280681   1.046   4.516  13.988 -1.3352 -0.4021 -0.0535
19756TIP3   OH280682   2.658   6.085   2.997 -0.0487  0.3829  0.3254
19756TIP3    H180683   2.737   6.046   2.961  0.5986  2.2721 -0.4302
19756TIP3    H280684   2.612   6.120   2.921 -0.0149  2.0752  1.0346
19757TIP3   OH280685   1.929   5.453   3.243 -0.1741  0.0711 -0.1794
19757TIP3    H180686   2.004   5.475   3.188  0.2484 -2.1907 -0.6053
19757TIP3    H280687   1.964   5.454   3.332  0.1703 -0.2494 -0.3105
19758TIP3   OH280688   3.642   3.744  11.112 -0.5181  0.2346 -0.6495
19758TIP3    H180689   3.665   3.799  11.037 -2.4399 -0.7438 -2.0501
19758TIP3    H280690   3.562   3.783  11.146 -0.8534 -0.5847 -0.4787
19759TIP3   OH280691   3.923   4.473  17.035  0.9455 -0.6983  0.2943
19759TIP3    H180692   3.845   4.474  17.091 -0.0934 -3.1330 -0.9569
19759TIP3    H280693   3.897   4.519  16.956  1.5669  0.4219  0.7035
19760TIP3   OH280694   0.815   0.378   2.657 -0.2307 -0.9171 -0.0988
19760TIP3    H180695   0.878   0.440   2.695 -0.1855 -1.2389  0.3699
19760TIP3    H280696   0.861   0.294   2.656 -0.9514 -1.3571  1.1235
19761TIP3   OH280697   3.112   1.563  16.507  0.1464 -0.0899 -0.4503
19761TIP3    H180698   3.032   1.614  16.519  0.5632  0.4443  0.1280
19761TIP3    H280699   3.181   1.628  16.497  1.1325 -0.4015  3.0674
19762TIP3   OH280700   3.315   0.722   2.832  0.4217  0.0986  0.1724
19762TIP3    H180701   3.324   0.791   2.766  0.4342  0.2318  0.3143
19762TIP3    H280702   3.233   0.679   2.809 -0.3187  1.0571  0.9205
19763TIP3   OH280703   4.457   2.573   0.901  0.1649  0.0828 -0.1653
19763TIP3    H180704   4.512   2.497   0.883  0.8415  0.9367 -2.0312
19763TIP3    H280705   4.428   2.602   0.814 -0.7325  1.4715  0.5575
19764TIP3   OH280706   3.877   1.136   5.095 -0.0337  0.0831 -0.6297
19764TIP3    H180707   3.825   1.216   5.104 -0.0180 -0.1467  2.7063
19764TIP3    H280708   3.822   1.067   5.132  1.2758 -0.8296 -0.3186
19765TIP3   OH280709   2.525   2.374  15.912  0.5217 -0.0076 -0.6834
19765TIP3    H180710   2.453   2.354  15.852  0.6364 -1.1372 -0.4704
19765TIP3    H280711   2.525   2.470  15.918 -0.9261  0.0245 -0.7224
19766TIP3   OH280712   4.706   5.281  11.633  0.1760  0.1560 -0.0866
19766TIP3    H180713   4.617   5.283  11.669 -0.2825  3.4036 -1.0852
19766TIP3    H280714   4.700   5.221  11.559 -0.1294 -2.6184  2.0252
19767TIP3   OH280715   1.532   2.703  16.811  0.3168  0.0230  1.1633
19767TIP3    H180716   1.610   2.650  16.827  1.0803  0.3585 -1.0214
19767TIP3    H280717   1.528   2.763  16.885  0.3805 -1.9190  2.8295
19768TIP3   OH280718   5.701   6.548  12.787 -0.3253  0.5501  0.1726
19768TIP3    H180719   5.714   6.608  12.860 -1.1839 -0.6196  1.3356
19768TIP3    H280720   5.771   6.483  12.796 -2.0593 -1.2301  1.7325
19769TIP3   OH280721   4.386   2.503   3.336 -0.2618 -0.0670 -0.3875
19769TIP3    H180722   4.379   2.484   3.242 -2.8900 -2.5725  0.1745
19769TIP3    H280723   4.425   2.424   3.373  0.2207  0.6719  0.7192
19770TIP3   OH280724   4.588   4.659  15.634  0.1625  0.2473  0.3030
19770TIP3    H180725   4.562   4.642  15.544  0.3920  1.1383  0.0582
19770TIP3    H280726   4.614   4.573  15.668 -1.9520 -0.5012  0.2112
19771TIP3   OH280727   6.765   1.721  16.122  0.6502 -0.2068 -0.4107
19771TIP3    H180728   6.720   1.792  16.168  1.3122 -0.1861  0.2414
19771TIP3    H280729   6.733   1.641  16.163  1.2591 -0.1874  0.1325
19772TIP3   OH280730   1.677   6.131   4.031 -0.2454  0.1698  0.1133
19772TIP3    H180731   1.653   6.086   3.950  0.1498  1.7752 -0.9664
19772TIP3    H280732   1.742   6.074   4.072 -3.1120 -2.5170  1.3095
19773TIP3   OH280733   5.111   1.503   1.508  0.2467  0.1401  0.2770
19773TIP3    H180734   5.185   1.541   1.555 -1.0543 -0.1155  2.6765
19773TIP3    H280735   5.130   1.409   1.504 -0.0141  0.0509  1.0476
19774TIP3   OH280736   2.331   3.720  14.957 -0.2023  0.4157 -0.2848
19774TIP3    H180737   2.333   3.794  15.018  0.0781  0.2535 -0.0989
19774TIP3    H280738   2.376   3.752  14.878  0.5839  0.1957  0.0719
19775TIP3   OH280739   0.658   3.859   3.892  0.2611 -0.0019  0.7243
19775TIP3    H180740   0.608   3.842   3.972  1.5930 -0.3388  1.5137
19775TIP3    H280741   0.723   3.790   3.889  2.0623  1.6081  0.8732
19776TIP3   OH280742   0.439   3.870   0.226  0.6237 -0.0267 -0.2003
19776TIP3    H180743   0.532   3.851   0.217  0.6834 -0.8743  1.6903
19776TIP3    H280744   0.395   3.793   0.190  0.6615  0.0949 -0.5094
19777TIP3   OH280745   2.842   6.680  14.054  0.6039  0.1070 -0.7508
19777TIP3    H180746   2.934   6.705  14.059  0.7157 -0.4477  0.0975
19777TIP3    H280747   2.797   6.760  14.029  1.2660  0.4849 -0.7614
19778TIP3   OH280748   3.962   5.442  12.413  0.0833 -0.1797 -0.2475
19778TIP3    H180749   4.035   5.459  12.471  0.0092  0.5052 -0.3547
19778TIP3    H280750   3.927   5.528  12.391 -0.0029 -0.4386 -1.1615
19779TIP3   OH280751   3.331   0.072   2.779 -0.4715 -0.9379  0.4633
19779TIP3    H180752   3.257   0.127   2.806 -0.5254 -0.3383 -0.8225
19779TIP3    H280753   3.291   0.002   2.727 -0.1468 -0.5582 -0.3157
19780TIP3   OH280754   1.757   5.092  11.182  0.8023 -0.0846  0.2543
19780TIP3    H180755   1.710   5.123  11.105  0.0172  0.4665  0.9243
19780TIP3    H280756   1.783   5.003  11.160  0.9518  0.2057 -0.7948
19781TIP3   OH280757   3.703   0.553   2.316  0.3751 -0.4179  0.1155
19781TIP3    H180758   3.679   0.549   2.224 -1.9115  2.9068  0.3644
19781TIP3    H280759   3.620   0.539   2.363  1.1953 -0.4980  1.5907
19782TIP3   OH280760   6.663   6.708  12.678  0.4148  0.8137 -0.2670
19782TIP3    H180761   6.747   6.715  12.725  1.3119  0.4417 -1.7394
19782TIP3    H280762   6.640   6.798  12.657 -0.3855  1.0481  1.4999
19783TIP3   OH280763   3.225   0.498  14.757 -0.2438  0.0648  0.0203
19783TIP3    H180764   3.316   0.524  14.744 -0.2472 -0.3234 -0.7774
19783TIP3    H280765   3.177   0.544  14.688 -0.8452  1.2449  1.1577
19784TIP3   OH280766   1.770   5.272  16.916 -0.6181  0.3750  0.4238
19784TIP3    H180767   1.736   5.347  16.966 -0.8810 -0.2551  1.2100
19784TIP3    H280768   1.775   5.201  16.980 -1.4651 -0.6007 -0.5632
19785TIP3   OH280769   3.948   5.430  13.725  0.1450  0.1770 -0.1114
19785TIP3    H180770   3.896   5.437  13.805  1.0326 -1.0173  0.5987
19785TIP3    H280771   3.905   5.361  13.675  0.2820  0.1004 -0.1227
19786TIP3   OH280772   2.184   2.711   3.293  0.1087 -0.5338 -0.5153
19786TIP3    H180773   2.091   2.695   3.275 -0.4672  1.1882  0.6330
19786TIP3    H280774   2.227   2.628   3.271 -1.8642 -1.8122  0.0813
19787TIP3   OH280775   3.590   6.433  13.315 -0.1287  0.2147 -0.5220
19787TIP3    H180776   3.583   6.363  13.250 -3.3851  0.1420 -0.2708
19787TIP3    H280777   3.621   6.390  13.394  1.6460 -0.1350 -1.3587
19788TIP3   OH280778   2.035   3.516  14.886  0.5708  0.0786 -0.6652
19788TIP3    H180779   2.047   3.606  14.917  2.6279 -0.5742  0.6492
19788TIP3    H280780   1.953   3.518  14.837 -0.2025  2.3299  0.5802
19789TIP3   OH280781   6.265   1.741   1.304 -0.2835 -0.8823  0.1325
19789TIP3    H180782   6.335   1.677   1.318 -0.5651 -1.8132 -2.3641
19789TIP3    H280783   6.266   1.759   1.210 -1.0495  1.8754  0.5433
19790TIP3   OH280784   1.905   3.128  11.952 -0.1388 -0.0843 -0.0523
19790TIP3    H180785   1.922   3.035  11.941 -0.4336  0.0123 -1.4826
19790TIP3    H280786   1.809   3.135  11.955 -0.1409  0.2214 -0.6046
19791TIP3   OH280787   6.732   5.346   0.593  0.0885 -0.0688  0.3599
19791TIP3    H180788   6.688   5.264   0.572  0.4997  0.3002 -2.2939
19791TIP3    H280789   6.823   5.333   0.565  0.0496  1.4152 -0.5827
19792TIP3   OH280790   5.931   1.496  12.711  0.6962  0.3384  0.4192
19792TIP3    H180791   5.851   1.444  12.702  0.4614  0.9735 -1.6778
19792TIP3    H280792   5.931   1.524  12.803 -0.8101 -0.7172  0.7826
19793TIP3   OH280793   4.053   3.176   5.704  0.1893 -0.0849  0.2968
19793TIP3    H180794   4.111   3.159   5.630 -0.3519 -0.8574  0.0367
19793TIP3    H280795   4.111   3.209   5.773  1.3684 -3.0130  0.8440
19794TIP3   OH280796   2.485   0.143  11.748  0.0323  0.3222  0.4764
19794TIP3    H180797   2.403   0.188  11.771 -0.8325 -1.1710  0.4235
19794TIP3    H280798   2.548   0.214  11.736 -1.4360  1.5864 -0.2234
19795TIP3   OH280799   4.769   6.689   2.386 -0.3280 -0.3940 -0.1689
19795TIP3    H180800   4.788   6.613   2.441  1.5827  0.1331 -0.0075
19795TIP3    H280801   4.819   6.761   2.427 -0.6901  0.5296 -1.2922
19796TIP3   OH280802   3.144   6.697   2.388  1.1233 -0.1713 -0.4630
19796TIP3    H180803   3.185   6.640   2.453 -0.2563 -0.8971 -0.2051
19796TIP3    H280804   3.174   6.662   2.304  0.5689 -1.0814 -0.2953
19797TIP3   OH280805   4.572   2.047   5.182 -0.3786  0.2724 -0.1712
19797TIP3    H180806   4.495   2.090   5.147 -1.5196 -0.5238  1.2556
19797TIP3    H280807   4.622   2.020   5.105  0.2693  3.7458 -1.1464
19798TIP3   OH280808   1.827   1.629   2.759  0.1487 -0.4432  0.2218
19798TIP3    H180809   1.849   1.606   2.849 -2.1945 -0.1455  0.9215
19798TIP3    H280810   1.805   1.722   2.762 -1.7702 -0.8354 -0.2273
19799TIP3   OH280811   2.830   6.248  16.286 -0.1591  0.7278  0.3202
19799TIP3    H180812   2.787   6.333  16.286  0.8758  1.2666  0.2199
19799TIP3    H280813   2.784   6.198  16.218 -0.8321  1.1608  0.4474
19800TIP3   OH280814   3.854   0.271   5.713  0.0780  0.7886  0.4597
19800TIP3    H180815   3.794   0.208   5.753 -0.7738  0.3634 -1.3566
19800TIP3    H280816   3.898   0.312   5.787 -0.1698 -1.1158  1.7629
19801TIP3   OH280817   2.574   4.030   2.198 -0.0412 -0.1059 -0.0486
19801TIP3    H180818   2.561   4.123   2.214  1.1114  0.1600 -0.5379
19801TIP3    H280819   2.668   4.016   2.214 -0.4510 -1.4652  1.3565
19802TIP3   OH280820   2.062   6.396  13.583  0.5626  0.0247 -0.1156
19802TIP3    H180821   2.089   6.488  13.590  2.0172 -0.3511 -0.4996
19802TIP3    H280822   2.056   6.367  13.674 -1.2559  0.8323  0.0738
19803TIP3   OH280823   5.270   2.320  13.035  0.1956  0.2068  0.3466
19803TIP3    H180824   5.316   2.306  13.118 -1.0978 -0.6517  0.9492
19803TIP3    H280825   5.288   2.242  12.983 -1.6457 -0.7908  1.1274
19804TIP3   OH280826   1.699   0.807  11.223  0.2566 -0.2617  0.2327
19804TIP3    H180827   1.617   0.759  11.214  0.0482  0.2085 -0.4200
19804TIP3    H280828   1.711   0.851  11.139  1.5215 -0.8676  0.0764
19805TIP3   OH280829   1.014   4.782  11.299 -0.1550  0.0571  0.1228
19805TIP3    H180830   0.920   4.769  11.312 -0.4117  1.0029 -0.6345
19805TIP3    H280831   1.027   4.770  11.205  0.1718  1.5929 -0.0626
19806TIP3   OH280832   6.123   3.836   2.166  0.4965 -0.2266 -0.2340
19806TIP3    H180833   6.098   3.746   2.143 -3.0145  0.9023 -1.4315
19806TIP3    H280834   6.203   3.852   2.116  1.2001 -2.6103 -0.0153
19807TIP3   OH280835   0.607   0.541   4.679 -0.1320  0.2203  0.6458
19807TIP3    H180836   0.647   0.626   4.664  3.5518 -1.4363 -0.0569
19807TIP3    H280837   0.673   0.491   4.728 -1.7370 -2.5194  0.2674
19808TIP3   OH280838   0.687   1.143  17.283 -0.6604 -0.0159  0.0487
19808TIP3    H180839   0.738   1.105  17.354  1.7523  1.0062 -1.0366
19808TIP3    H280840   0.664   1.231  17.313  0.4644  0.4610 -0.4414
19809TIP3   OH280841   5.256   3.918  12.595 -0.1230  0.2824 -0.4658
19809TIP3    H180842   5.263   3.856  12.668 -0.9784 -1.1400 -1.5338
19809TIP3    H280843   5.319   3.885  12.531 -0.2223  0.8268 -0.8444
19810TIP3   OH280844   2.341   2.882  14.249 -0.1555  0.1602  0.1897
19810TIP3    H180845   2.398   2.863  14.175 -0.2171 -0.2716  0.2475
19810TIP3    H280846   2.329   2.797  14.293 -0.9734  0.2028  0.0777
19811TIP3   OH280847   2.810   0.192  12.360  0.0114  0.5582 -0.3263
19811TIP3    H180848   2.801   0.184  12.454  1.6236 -1.0277 -0.2536
19811TIP3    H280849   2.725   0.163  12.325 -0.3292  0.4149  0.5967
19812TIP3   OH280850   1.044   3.329  13.566  0.5405  0.1608 -0.3424
19812TIP3    H180851   1.051   3.239  13.597 -3.0409  0.3749  1.6762
19812TIP3    H280852   0.977   3.325  13.498 -0.9207  1.4452  0.9478
19813TIP3   OH280853   1.491   4.782  15.177 -0.3331  0.0793  0.3225
19813TIP3    H180854   1.525   4.709  15.229 -0.8862  0.9402  1.9681
19813TIP3    H280855   1.403   4.797  15.212 -0.2424  1.5034 -0.0126
19814TIP3   OH280856   2.187   0.670  16.263  0.7613  0.2849  0.2827
19814TIP3    H180857   2.265   0.713  16.299  1.8420 -1.1752 -0.2095
19814TIP3    H280858   2.119   0.685  16.328  1.6485  0.9777  1.0789
19815TIP3   OH280859   1.198   6.280   4.448  0.4101 -0.6562 -0.0617
19815TIP3    H180860   1.284   6.321   4.462 -1.2448  2.8911  0.9557
19815TIP3    H280861   1.171   6.250   4.535 -1.2626  2.6801  0.7276
19816TIP3   OH280862   3.628   3.570  11.330  0.0501 -0.4705 -0.5883
19816TIP3    H180863   3.554   3.512  11.309 -1.4187  1.0587  0.1490
19816TIP3    H280864   3.641   3.621  11.250 -0.0163 -0.3836 -0.5424
19817TIP3   OH280865   4.325   0.000   4.413  0.3506  0.1075 -0.2830
19817TIP3    H180866   4.378   0.008   4.492  0.0912  1.2726 -0.2062
19817TIP3    H280867   4.384   0.026   4.342  0.3206 -0.0503 -0.3644
19818TIP3   OH280868   1.644   2.606   5.104 -0.2640  0.2212  0.7555
19818TIP3    H180869   1.639   2.615   5.009 -0.6190 -0.1176  0.7383
19818TIP3    H280870   1.681   2.519   5.118  1.7702  1.0514  0.9253
19819TIP3   OH280871   4.377   3.487  16.717  0.7934 -0.6157 -0.5996
19819TIP3    H180872   4.380   3.582  16.710 -1.5870 -0.3621  0.7146
19819TIP3    H280873   4.468   3.459  16.709  1.4584  1.6789 -1.7901
19820TIP3   OH280874   3.668   1.627   5.463 -0.7946  0.4447  0.6099
19820TIP3    H180875   3.637   1.710   5.500 -1.4473 -0.0002  1.0836
19820TIP3    H280876   3.658   1.564   5.534 -1.1110 -0.2195 -0.0128
19821TIP3   OH280877   1.719   2.364  17.194  0.2492 -0.6502  0.0235
19821TIP3    H180878   1.657   2.380  17.265 -1.1839 -2.2738 -0.7888
19821TIP3    H280879   1.798   2.332  17.238  0.6618  1.6994  1.0936
19822TIP3   OH280880   0.118   3.538   0.461  0.2591 -0.4275 -0.5404
19822TIP3    H180881   0.026   3.561   0.473  0.5884  1.1621 -0.8672
19822TIP3    H280882   0.134   3.545   0.367  0.2322 -2.8072 -0.8050
19823TIP3   OH280883   6.365   4.644   0.221  0.3335 -0.0523 -0.2040
19823TIP3    H180884   6.361   4.609   0.310  1.7842 -0.2041 -0.1816
19823TIP3    H280885   6.330   4.574   0.166 -1.7037  0.4731  0.3068
19824TIP3   OH280886   4.811   1.630  16.360 -0.2176 -0.2156 -0.2611
19824TIP3    H180887   4.884   1.607  16.303 -0.9495 -1.4908 -0.7131
19824TIP3    H280888   4.815   1.567  16.432 -1.8667 -1.4461 -1.1814
19825TIP3   OH280889   4.512   5.527  17.273  0.3375 -0.1273  0.4082
19825TIP3    H180890   4.515   5.520  17.178  0.8260  1.9299  0.2213
19825TIP3    H280891   4.569   5.602  17.293  0.8029 -0.9547  2.3805
19826TIP3   OH280892   0.907   3.720   1.469  0.1091  0.2415  0.4723
19826TIP3    H180893   0.820   3.748   1.440  0.6292  0.8199 -0.5576
19826TIP3    H280894   0.944   3.797   1.512  0.5750  0.3768 -0.1620
19827TIP3   OH280895   3.540   2.310   3.793 -0.3550  0.5414  0.4347
19827TIP3    H180896   3.533   2.223   3.833 -2.2472  1.0110  1.2635
19827TIP3    H280897   3.449   2.338   3.782  0.2021  2.0549 -0.6678
19828TIP3   OH280898   5.976   0.125  12.668  0.0648 -0.2799  0.9840
19828TIP3    H180899   5.914   0.065  12.626  0.0154 -0.3130  1.1037
19828TIP3    H280900   5.930   0.209  12.670  0.3161 -0.1204  0.3838
19829TIP3   OH280901   5.370   3.658   5.162  0.3480  0.1364  0.6514
19829TIP3    H180902   5.285   3.700   5.151  0.2099  0.1641  1.7378
19829TIP3    H280903   5.372   3.629   5.253  1.7927  0.7850  0.8607
19830TIP3   OH280904   6.737   5.835  14.317 -0.5335 -0.1973  0.2163
19830TIP3    H180905   6.716   5.882  14.398  1.5832  0.2638  0.5467
19830TIP3    H280906   6.742   5.743  14.344 -0.0789 -0.0725  0.5706
19831TIP3   OH280907   4.040   1.655  15.170 -0.2480  0.2990  0.2578
19831TIP3    H180908   4.113   1.652  15.231  0.7620 -0.6110 -0.9664
19831TIP3    H280909   3.994   1.736  15.193 -0.6373 -0.5636  2.9995
19832TIP3   OH280910   1.976   3.942   1.670 -0.3703  0.3304 -0.3021
19832TIP3    H180911   2.017   4.016   1.715  0.7135 -0.2006 -0.3945
19832TIP3    H280912   2.047   3.901   1.621 -0.8028 -1.2218  0.3256
19833TIP3   OH280913   6.359   5.748   4.027 -0.1436 -0.0178 -0.0105
19833TIP3    H180914   6.371   5.779   4.117  0.6583 -0.3360 -0.0018
19833TIP3    H280915   6.375   5.654   4.031 -0.2951 -0.0651 -0.4529
19834TIP3   OH280916   2.946   4.524  11.494  0.2001  0.4160 -0.1874
19834TIP3    H180917   2.854   4.541  11.477  0.2440  1.9549  0.8457
19834TIP3    H280918   2.992   4.565  11.420  0.0345 -2.0887 -1.7712
19835TIP3   OH280919   1.897   6.402  13.292 -0.4685  0.1661 -0.2366
19835TIP3    H180920   1.922   6.362  13.375  1.7309 -1.9485 -1.7850
19835TIP3    H280921   1.805   6.379  13.280 -1.0161  1.0662  1.8482
19836TIP3   OH280922   2.966   4.625  14.100 -0.3535 -0.0872 -0.0305
19836TIP3    H180923   3.061   4.609  14.103 -0.3200  0.2193  0.6775
19836TIP3    H280924   2.958   4.718  14.077 -0.5171 -0.4914 -1.7422
19837TIP3   OH280925   1.954   1.750   1.620  0.0303  0.1213 -0.1342
19837TIP3    H180926   1.930   1.843   1.626  1.4279  0.4766  0.1691
19837TIP3    H280927   1.906   1.709   1.692 -0.5491  0.6018 -0.2280
19838TIP3   OH280928   2.631   4.184  13.038 -0.1711 -0.2555  0.3492
19838TIP3    H180929   2.652   4.184  12.945 -0.1503 -2.0597  0.3152
19838TIP3    H280930   2.692   4.245  13.078 -0.4847  0.8856 -0.8714
19839TIP3   OH280931   0.087   2.084  15.489  0.3715  0.5307 -0.3553
19839TIP3    H180932   0.038   2.077  15.571  0.2075  0.1435 -0.4834
19839TIP3    H280933   0.021   2.106  15.423 -0.0728 -2.1667 -0.9456
19840TIP3   OH280934   3.235   5.800  12.712  0.0061 -0.1761  0.1617
19840TIP3    H180935   3.272   5.788  12.625  1.0025  0.6147  0.4634
19840TIP3    H280936   3.148   5.839  12.696  1.1246  2.2548 -0.4420
19841TIP3   OH280937   1.207   4.166  17.239  0.5674 -1.0268 -0.0121
19841TIP3    H180938   1.192   4.245  17.290  0.2028 -1.0159 -0.1319
19841TIP3    H280939   1.241   4.102  17.302 -0.1210 -1.0910  0.2956
19842TIP3   OH280940   6.256   1.621  11.629 -0.6275  0.0714  0.2055
19842TIP3    H180941   6.187   1.598  11.566  1.4856 -2.0352 -1.5053
19842TIP3    H280942   6.316   1.677  11.579  0.5277 -0.7461  0.6444
19843TIP3   OH280943   5.885   3.669  14.951  0.2656 -0.1075 -0.4692
19843TIP3    H180944   5.896   3.574  14.947  0.1573 -0.1645  0.3966
19843TIP3    H280945   5.861   3.686  15.042 -2.4196  0.4804 -1.2050
19844TIP3   OH280946   1.745   1.961  14.254  0.4760 -0.4008 -0.1131
19844TIP3    H180947   1.747   2.002  14.341 -0.8179  0.3092 -0.3911
19844TIP3    H280948   1.801   1.884  14.263  0.9874  0.0825  1.1308
19845TIP3   OH280949   2.836   0.710   0.500  0.3529 -0.1119  0.1414
19845TIP3    H180950   2.926   0.679   0.510 -0.3334 -2.6178 -0.6332
19845TIP3    H280951   2.783   0.631   0.509 -1.5640  0.7669 -2.3470
19846TIP3   OH280952   1.574   6.417  17.246 -0.0761  0.7013  0.4476
19846TIP3    H180953   1.495   6.429  17.298  0.1738  1.9274  0.5761
19846TIP3    H280954   1.543   6.421  17.155 -0.3526 -0.2955  0.4889
19847TIP3   OH280955   5.967   0.680   1.471  0.1321  0.1026  0.0742
19847TIP3    H180956   6.040   0.711   1.525  1.2451 -1.7705 -0.2549
19847TIP3    H280957   5.956   0.747   1.404  2.0792  0.1078 -0.2994
19848TIP3   OH280958   4.191   5.834   4.539 -0.1260 -0.0422  0.0465
19848TIP3    H180959   4.153   5.880   4.614  1.5731 -1.3662  1.8414
19848TIP3    H280960   4.174   5.741   4.558  1.0610 -0.4426 -0.7617
19849TIP3   OH280961   2.011   1.958   2.454 -0.4598 -0.3997 -0.2886
19849TIP3    H180962   2.048   1.875   2.487 -2.2851 -1.1596 -0.0211
19849TIP3    H280963   2.045   2.024   2.514 -0.4980 -1.2338  0.6963
19850TIP3   OH280964   4.680   4.342  11.171  0.5269  0.1378  0.0441
19850TIP3    H180965   4.587   4.319  11.179  0.7113 -0.4234  0.6523
19850TIP3    H280966   4.725   4.258  11.168  0.9058  0.3627 -1.9064
19851TIP3   OH280967   3.718   3.364   0.253 -0.3887 -0.2559  0.1558
19851TIP3    H180968   3.721   3.302   0.326 -2.0088 -0.2692  0.2474
19851TIP3    H280969   3.648   3.424   0.276  0.0733  0.6398 -0.7124
19852TIP3   OH280970   3.306   1.950   2.158  0.7097  0.1795  0.3309
19852TIP3    H180971   3.384   1.958   2.103  0.5783 -0.0938  0.1000
19852TIP3    H280972   3.246   1.898   2.105  0.8655 -0.7333  1.0332
19853TIP3   OH280973   2.033   5.111   1.096 -0.3313 -0.2088 -0.3801
19853TIP3    H180974   1.989   5.027   1.089 -0.6133  0.0410 -2.1071
19853TIP3    H280975   2.095   5.112   1.023  0.8466  0.4338  0.5870
19854TIP3   OH280976   3.904   3.555  17.147  0.0509 -0.1288 -0.2007
19854TIP3    H180977   3.923   3.540  17.055 -1.6924 -0.8302 -0.4692
19854TIP3    H280978   3.909   3.469  17.187 -0.6985 -0.0453  0.0753
19855TIP3   OH280979   0.979   1.838  15.542 -0.0657 -0.1034  0.1300
19855TIP3    H180980   0.945   1.786  15.469  0.2809 -0.8768  0.5078
19855TIP3    H280981   0.976   1.928  15.510 -2.7765 -0.0691  0.2553
19856TIP3   OH280982   5.590   0.052   3.404 -0.0019 -0.6257 -0.2660
19856TIP3    H180983   5.635   0.049   3.320 -0.5249 -1.4118 -0.5333
19856TIP3    H280984   5.591   0.144   3.429 -0.5984 -0.2461 -1.5613
19857TIP3   OH280985   3.289   2.871   4.187 -0.0200  0.2924  0.5913
19857TIP3    H180986   3.343   2.852   4.264  0.6315  0.2697  0.1362
19857TIP3    H280987   3.320   2.957   4.157  0.5405 -0.2108 -0.3244
19858TIP3   OH280988   0.548   4.351  14.552  0.4699  0.1381 -0.1482
19858TIP3    H180989   0.521   4.438  14.522  0.1663  1.2557  2.9638
19858TIP3    H280990   0.625   4.330  14.499  1.5772  3.0859  0.1100
19859TIP3   OH280991   3.156   0.134   4.674 -0.3042  0.1458  0.2328
19859TIP3    H180992   3.068   0.160   4.646  0.6244  0.7890 -2.4556
19859TIP3    H280993   3.160   0.040   4.658 -0.6320  0.0481  0.7335
19860TIP3   OH280994   1.707   3.907   0.680  0.3896  0.1842 -0.5395
19860TIP3    H180995   1.759   3.861   0.614 -0.7662 -0.4135 -1.0682
19860TIP3    H280996   1.744   3.995   0.683  0.9638 -0.0145 -1.4125
19861TIP3   OH280997   0.803   4.157   3.645 -1.1009  0.2994  0.3029
19861TIP3    H180998   0.838   4.246   3.640 -1.4829  0.5413  1.4721
19861TIP3    H280999   0.836   4.124   3.729  0.1563 -1.1649 -0.7344
19862TIP3   OH281000   4.998   5.369   0.485  0.1526  0.1835  0.5817
19862TIP3    H181001   4.928   5.355   0.549  0.0058  0.3607  0.4621
19862TIP3    H281002   5.048   5.288   0.486  0.6894  0.5101  1.5731
19863TIP3   OH281003   2.258   6.178   2.714  0.3293 -0.1109  0.0680
19863TIP3    H181004   2.166   6.176   2.686  0.5388  0.5312 -0.6953
19863TIP3    H281005   2.261   6.246   2.782  0.0235 -0.9579  0.9611
19864TIP3   OH281006   0.135   4.126   5.006 -0.2696  0.1955  0.0819
19864TIP3    H181007   0.114   4.188   4.936  0.8562  2.5033  1.6509
19864TIP3    H281008   0.230   4.131   5.015 -0.0123 -2.4869 -0.2596
19865TIP3   OH281009   6.242   4.934   0.891 -0.1001 -0.1962  0.5866
19865TIP3    H181010   6.277   4.921   0.979 -0.3400  0.9650  0.8693
19865TIP3    H281011   6.237   5.029   0.881  0.5599 -0.2906 -0.9449
19866TIP3   OH281012   4.961   4.287  16.609 -0.1223  0.0276 -0.2616
19866TIP3    H181013   4.875   4.253  16.582 -0.1271 -0.8744  0.7884
19866TIP3    H281014   4.946   4.320  16.698  0.6127 -0.1138 -0.0845
19867TIP3   OH281015   1.040   1.498   0.275  0.2850  0.1830 -0.0506
19867TIP3    H181016   1.027   1.593   0.269  1.0256  0.4556  2.0273
19867TIP3    H281017   0.962   1.466   0.321 -0.3058 -0.3606 -1.3659
19868TIP3   OH281018   5.415   2.427   3.632  0.0517 -0.5852 -0.6422
19868TIP3    H181019   5.421   2.517   3.601  0.3743 -0.6157 -0.6713
19868TIP3    H281020   5.500   2.410   3.672  0.3171 -1.1569 -1.4096
19869TIP3   OH281021   3.413   6.490   0.516 -0.2969 -0.0296 -0.1293
19869TIP3    H181022   3.359   6.567   0.496  0.7950  0.5164 -1.1619
19869TIP3    H281023   3.496   6.507   0.471  0.3276 -1.3676  0.4528
19870TIP3   OH281024   0.457   5.408  17.224  0.2764  0.0394 -0.0826
19870TIP3    H181025   0.366   5.432  17.241  0.2860 -0.2087  0.3119
19870TIP3    H281026   0.486   5.365  17.304  0.3744 -0.9796 -0.6495
19871TIP3   OH281027   1.750   0.854   4.952  0.0675 -0.0362  0.3180
19871TIP3    H181028   1.781   0.812   5.032  0.2063 -0.2028  0.1778
19871TIP3    H281029   1.827   0.857   4.895 -0.5585 -2.1279 -0.7462
19872TIP3   OH281030   0.920   2.531  12.631 -0.2970  0.1481  0.0966
19872TIP3    H181031   0.940   2.544  12.724 -0.2619  0.3697  0.0590
19872TIP3    H281032   0.906   2.620  12.597  0.6077  0.1474 -0.3172
19873TIP3   OH281033   6.750   1.128  14.350 -0.0640 -0.3910 -0.2994
19873TIP3    H181034   6.768   1.090  14.263 -0.9169  0.3265 -0.8070
19873TIP3    H281035   6.770   1.058  14.411 -2.1728 -1.9040 -1.2413
19874TIP3   OH281036   2.332   4.965  13.399 -0.4777 -0.3574 -0.4153
19874TIP3    H181037   2.377   5.025  13.459  0.0360 -1.5127  0.3977
19874TIP3    H281038   2.284   4.905  13.456  0.3747 -1.7622 -1.1065
19875TIP3   OH281039   3.328   5.161  16.704 -0.1858 -0.7864 -0.1236
19875TIP3    H181040   3.372   5.167  16.620  0.0096  0.4075  0.0436
19875TIP3    H281041   3.398   5.171  16.769 -0.5439  0.1691  0.1473
19876TIP3   OH281042   4.729   2.673  11.997  0.2267 -0.0391 -0.5701
19876TIP3    H181043   4.745   2.689  12.091  2.5433 -1.2116 -0.6949
19876TIP3    H281044   4.639   2.701  11.983  0.0071  0.7247  1.8845
19877TIP3   OH281045   1.071   6.645   0.450  0.4963 -0.3655  0.0034
19877TIP3    H181046   1.155   6.641   0.406  1.1867 -0.5348  1.2794
19877TIP3    H281047   1.009   6.607   0.388  1.0842  1.0204 -1.5072
19878TIP3   OH281048   1.891   3.806  16.780  0.3013  0.4888  0.5592
19878TIP3    H181049   1.967   3.757  16.810  1.1383  1.5508  0.2593
19878TIP3    H281050   1.820   3.743  16.780  1.4345 -0.8418 -0.2617
19879TIP3   OH281051   5.599   6.269  16.131 -0.2924  0.3494  0.7851
19879TIP3    H181052   5.682   6.267  16.084 -0.6497 -0.2526  0.1611
19879TIP3    H281053   5.547   6.335  16.086 -1.1327 -1.1765 -0.5660
19880TIP3   OH281054   1.790   3.204   4.124  0.5850  0.2108 -0.1206
19880TIP3    H181055   1.717   3.144   4.139  1.5852 -0.6617  1.6778
19880TIP3    H281056   1.751   3.281   4.083 -1.6385  0.4614  2.2175
19881TIP3   OH281057   4.154   6.215  16.015  0.2591 -0.7895  0.6524
19881TIP3    H181058   4.151   6.131  15.969  1.3551 -0.2172 -0.5230
19881TIP3    H281059   4.074   6.260  15.989  1.5862  0.1761 -2.0843
19882TIP3   OH281060   6.153   5.663   3.834 -0.1748  0.0202 -0.2313
19882TIP3    H181061   6.229   5.691   3.885  0.0267  0.9808 -1.0133
19882TIP3    H281062   6.182   5.585   3.788  0.0179 -0.1806  0.2254
19883TIP3   OH281063   6.668   4.406   3.504 -0.0615 -0.4913  0.5895
19883TIP3    H181064   6.593   4.385   3.449  0.6595 -0.8022 -0.3036
19883TIP3    H281065   6.655   4.497   3.529 -0.7183 -0.5362  0.4248
19884TIP3   OH281066   4.145   6.209  11.871 -0.2589  0.7582 -0.4087
19884TIP3    H181067   4.071   6.241  11.820 -0.9652  0.6241  0.4947
19884TIP3    H281068   4.112   6.204  11.961  0.1637 -1.3406 -0.2981
19885TIP3   OH281069   2.242   4.983   4.866 -0.4388 -0.3116 -0.5250
19885TIP3    H181070   2.320   4.980   4.811 -0.0256 -2.1483  0.0942
19885TIP3    H281071   2.212   5.073   4.861  3.2557  1.2081  1.3687
19886TIP3   OH281072   5.251   3.578   5.703  0.0001 -0.2085  0.1960
19886TIP3    H181073   5.175   3.562   5.647  0.7074 -0.4122 -0.7331
19886TIP3    H281074   5.287   3.491   5.720  0.1179 -0.1017  0.5050
19887TIP3   OH281075   6.557   5.967  15.457 -0.0366 -0.2741 -0.3550
19887TIP3    H181076   6.464   5.960  15.477  0.1945 -1.7302  0.2701
19887TIP3    H281077   6.564   6.049  15.408 -1.7961 -0.6149 -1.2667
19888TIP3   OH281078   2.076   0.363  16.381 -0.4089 -0.0719  0.1193
19888TIP3    H181079   2.008   0.302  16.353  1.1251 -2.4895  1.3182
19888TIP3    H281080   2.141   0.360  16.310 -0.2341  0.0350  0.2734
19889TIP3   OH281081   6.755   5.101   5.060 -0.3296  0.0133  0.4984
19889TIP3    H181082   6.730   5.011   5.079 -0.3798 -0.2002 -0.5149
19889TIP3    H281083   6.687   5.155   5.101 -1.1567 -0.4747 -0.2084
19890TIP3   OH281084   5.884   2.442  16.921 -0.1698 -0.0223 -0.3715
19890TIP3    H181085   5.955   2.487  16.966 -0.7407 -1.6159  2.3088
19890TIP3    H281086   5.908   2.349  16.923 -1.7285 -0.4661 -0.4827
19891TIP3   OH281087   0.873   2.537   2.335 -0.4122 -0.8071 -0.5719
19891TIP3    H181088   0.788   2.551   2.376 -0.4227 -1.5389 -0.3287
19891TIP3    H281089   0.862   2.459   2.281 -0.8143  0.9501 -3.1988
19892TIP3   OH281090   6.408   3.209   3.462  0.6643  0.5670 -0.1130
19892TIP3    H181091   6.376   3.176   3.378  0.2075  1.2376 -0.2074
19892TIP3    H281092   6.330   3.244   3.505  1.0558  1.0686  0.1938
19893TIP3   OH281093   6.023   3.655  14.625 -0.2091  0.2919  0.0749
19893TIP3    H181094   6.039   3.657  14.531 -0.7355  1.8239 -0.0001
19893TIP3    H281095   6.040   3.564  14.650  2.2703  0.3713 -1.0707
19894TIP3   OH281096   6.643   3.778   3.061  0.0232  0.1709  0.6221
19894TIP3    H181097   6.710   3.712   3.075 -0.0927 -0.3426 -0.9477
19894TIP3    H281098   6.560   3.732   3.078 -0.1852 -0.7602 -2.2624
19895TIP3   OH281099   3.242   2.585  16.053 -0.3991  0.0748 -0.1608
19895TIP3    H181100   3.168   2.542  16.011 -0.3135 -0.3564  0.1202
19895TIP3    H281101   3.295   2.513  16.087  0.7596  0.3098 -1.3634
19896TIP3   OH281102   2.483   1.644  10.832 -0.2401  0.1844 -0.0973
19896TIP3    H181103   2.562   1.602  10.868 -0.1310  0.8216  0.4185
19896TIP3    H281104   2.503   1.737  10.831 -1.4017  0.4843  1.1247
19897TIP3   OH281105   1.117   5.789   2.849  0.0183  0.0943 -0.0294
19897TIP3    H181106   1.052   5.761   2.915 -0.7868 -1.1941 -1.3070
19897TIP3    H281107   1.068   5.793   2.767  1.0613  1.4189 -0.6226
19898TIP3   OH281108   2.215   0.944   2.438 -0.4648 -0.1023 -0.0973
19898TIP3    H181109   2.246   0.853   2.442 -1.3400 -0.4954 -1.4751
19898TIP3    H281110   2.270   0.991   2.500 -2.5337 -2.2688  3.8312
19899TIP3   OH281111   6.198   4.790   3.631  0.0569  0.2858  0.1505
19899TIP3    H181112   6.178   4.883   3.620 -2.6638 -0.2136  0.1129
19899TIP3    H281113   6.253   4.786   3.709  0.0222  1.9219  0.2871
19900TIP3   OH281114   2.621   5.850   5.348  0.3602 -0.1816 -0.5582
19900TIP3    H181115   2.648   5.868   5.258 -0.9721 -0.8519 -1.1273
19900TIP3    H281116   2.666   5.768   5.370 -0.9879 -1.2177 -1.4473
19901TIP3   OH281117   1.202   4.896  13.770  0.4790 -0.2062  0.6980
19901TIP3    H181118   1.226   4.836  13.841 -1.0983 -0.1879  1.2829
19901TIP3    H281119   1.167   4.973  13.815  0.3044  0.1715 -0.0791
19902TIP3   OH281120   5.849   1.526  16.204  0.4617 -0.0857  0.3411
19902TIP3    H181121   5.836   1.477  16.286  0.4871 -0.7703 -0.0600
19902TIP3    H281122   5.761   1.552  16.178  0.4306 -0.0568  0.4721
19903TIP3   OH281123   6.335   1.278   2.381  0.3858 -0.4034 -0.6441
19903TIP3    H181124   6.260   1.333   2.405 -0.4791 -1.6931 -0.3018
19903TIP3    H281125   6.331   1.204   2.443  2.9447  0.3282  0.5112
19904TIP3   OH281126   4.138   1.372  13.238 -0.2802  0.4554  0.1530
19904TIP3    H181127   4.144   1.337  13.149 -1.1202 -1.0568  0.6540
19904TIP3    H281128   4.044   1.386  13.252 -0.0823  1.5841  0.5009
19905TIP3   OH281129   0.087   5.302  13.750  0.5014 -0.8064  0.2892
19905TIP3    H181130   0.166   5.279  13.799 -0.6897 -1.6369  1.9226
19905TIP3    H281131   0.016   5.295  13.814 -0.6713  2.1157 -0.5217
19906TIP3   OH281132   1.371   3.971   4.687 -0.4249  0.1003  0.0050
19906TIP3    H181133   1.371   3.876   4.674  0.0187 -0.0300  0.8787
19906TIP3    H281134   1.446   4.002   4.636 -0.3188 -0.0680  0.0588
19907TIP3   OH281135   5.626   0.419  12.873 -0.0574  0.3492  0.7429
19907TIP3    H181136   5.536   0.439  12.896  0.0995  0.9849  0.8296
19907TIP3    H281137   5.641   0.466  12.791 -0.4467 -1.4590 -0.4278
19908TIP3   OH281138   6.740   2.510  14.650 -0.3538 -0.2049  0.7056
19908TIP3    H181139   6.646   2.492  14.639 -0.3329 -0.6950  1.2976
19908TIP3    H281140   6.772   2.438  14.704  0.6965 -0.8897 -0.7836
19909TIP3   OH281141   3.186   1.067   3.418 -0.3360  0.1963  0.0287
19909TIP3    H181142   3.119   1.061   3.349  0.1558  1.5681 -0.6014
19909TIP3    H281143   3.204   0.976   3.442 -0.5202 -0.3182 -1.6602
19910TIP3   OH281144   3.091   3.063   1.898  0.6274 -0.1204 -0.2020
19910TIP3    H181145   3.153   3.055   1.970  1.0715 -0.3118 -0.6003
19910TIP3    H281146   3.145   3.057   1.819  0.1280 -0.0821 -0.5505
19911TIP3   OH281147   1.079   0.586   2.251  0.4999  0.5259 -0.0435
19911TIP3    H181148   1.157   0.632   2.282  0.4669  0.4597  0.1408
19911TIP3    H281149   1.006   0.635   2.288  0.4821 -0.2939  1.0475
19912TIP3   OH281150   4.846   1.380  11.539 -0.4327  0.1497  0.0602
19912TIP3    H181151   4.826   1.420  11.624 -1.9353 -1.4418  0.5145
19912TIP3    H281152   4.763   1.343  11.510  0.5450 -1.2723 -1.0471
19913TIP3   OH281153   2.536   3.506  10.844 -0.3325  0.4101 -0.0857
19913TIP3    H181154   2.530   3.579  10.905 -2.7510 -1.0590  1.6117
19913TIP3    H281155   2.446   3.495  10.811  0.2591 -0.9064 -1.3741
19914TIP3   OH281156   6.067   6.542  12.418  0.5258 -0.0845  0.3794
19914TIP3    H181157   6.083   6.569  12.509 -0.0763  0.1061  0.4369
19914TIP3    H281158   5.978   6.507  12.419  0.5088 -0.0663 -0.1403
19915TIP3   OH281159   5.855   4.235   5.780  0.0510  0.2526  0.7390
19915TIP3    H181160   5.837   4.279   5.863  1.9121 -0.9490  1.8588
19915TIP3    H281161   5.895   4.152   5.806  0.2786 -0.3384 -1.3692
19916TIP3   OH281162   4.319   5.796  16.377 -0.0349  0.0425 -1.0114
19916TIP3    H181163   4.329   5.730  16.309 -1.4798  0.6747 -1.8577
19916TIP3    H281164   4.227   5.820  16.375 -0.4063 -0.7390  1.9567
19917TIP3   OH281165   6.158   1.949  11.092  0.3987  0.4284  0.0310
19917TIP3    H181166   6.204   1.975  11.012  0.6518  2.0324  0.6687
19917TIP3    H281167   6.183   2.015  11.157 -1.3892  0.3096  0.8980
19918TIP3   OH281168   4.805   1.037  14.194  0.4201 -0.3674 -0.4444
19918TIP3    H181169   4.832   0.980  14.123  0.2371 -0.1231 -0.7136
19918TIP3    H281170   4.845   1.122  14.173  1.2961 -0.5719  0.3310
19919TIP3   OH281171   6.577   0.040   2.339 -0.1159 -0.2222 -0.3792
19919TIP3    H181172   6.550   0.108   2.278  0.9099  0.2897 -0.2759
19919TIP3    H281173   6.655   0.075   2.382 -0.2990 -0.9403  0.5858
19920TIP3   OH281174   2.135   3.202  11.231 -0.2758 -0.1381  0.0065
19920TIP3    H181175   2.145   3.255  11.152 -0.8213  0.9680  0.6514
19920TIP3    H281176   2.107   3.116  11.200 -1.9720  0.7141 -0.9339
19921TIP3   OH281177   6.246   5.815  13.172 -0.2585  0.1196  0.3671
19921TIP3    H181178   6.168   5.772  13.207 -0.5180  0.8588  0.7093
19921TIP3    H281179   6.251   5.898  13.219  0.7481  0.0727  0.3578
19922TIP3   OH281180   4.776   6.620   1.398  0.1212 -0.1560  0.1357
19922TIP3    H181181   4.804   6.674   1.471  1.3600  0.4838 -0.7730
19922TIP3    H281182   4.801   6.531   1.423 -1.1043 -0.2035  1.2473
19923TIP3   OH281183   0.047   0.620  11.605  0.3515 -0.3614 -0.2905
19923TIP3    H181184  -0.003   0.701  11.602  0.3471 -0.3667 -0.3745
19923TIP3    H281185   0.012   0.572  11.680  1.0548  0.1723  0.4090
19924TIP3   OH281186   2.507   2.749   6.487  0.4335  0.2430 -0.0759
19924TIP3    H181187   2.440   2.796   6.438  0.6146  0.4002 -0.1722
19924TIP3    H281188   2.460   2.678   6.531 -0.0869  1.3468  1.2054
19925TIP3   OH281189   5.336   6.341   0.276  0.0389  0.0370 -0.0132
19925TIP3    H181190   5.391   6.411   0.240  0.7977 -1.1793 -1.3631
19925TIP3    H281191   5.299   6.377   0.356  0.2552  2.0388 -0.7642
19926TIP3   OH281192   6.047   1.042   0.500  0.5282  0.5122 -0.0164
19926TIP3    H181193   5.987   1.046   0.575 -1.8217  0.9542 -1.8131
19926TIP3    H281194   6.012   1.106   0.438  3.0574  0.9682 -1.0670
19927TIP3   OH281195   0.327   6.695   6.176  0.7638  0.2741  0.2245
19927TIP3    H181196   0.240   6.726   6.152  0.7923  0.6514  0.5991
19927TIP3    H281197   0.326   6.601   6.156  0.2112  0.2416  0.3975
19928TIP3   OH281198   1.730   6.560  11.494 -0.0277 -0.6427 -0.5730
19928TIP3    H181199   1.782   6.530  11.419  1.5026  0.4896 -0.0282
19928TIP3    H281200   1.769   6.515  11.569  0.0582  0.0695 -0.1806
19929TIP3   OH281201   1.775   4.392   5.700 -0.1120 -0.2646  0.1415
19929TIP3    H181202   1.688   4.426   5.718  0.6004 -0.0033  3.9161
19929TIP3    H281203   1.830   4.470   5.690 -0.2916 -0.3966 -3.1940
19930TIP3   OH281204   2.435   6.630   6.097 -0.8119 -0.6388 -0.4863
19930TIP3    H181205   2.529   6.629   6.114 -0.4393 -3.6207 -1.9837
19930TIP3    H281206   2.395   6.606   6.180  0.0348 -2.5352 -0.5773
19931TIP3   OH281207   1.766   1.037  15.159 -0.1674 -0.2467  0.8769
19931TIP3    H181208   1.677   1.003  15.148 -0.6014  0.9706  0.4014
19931TIP3    H281209   1.804   0.982  15.227 -0.9320 -1.4394  0.3805
19932TIP3   OH281210   6.744   3.159  13.995  0.2626  0.2065 -0.6107
19932TIP3    H181211   6.799   3.234  13.973  1.1279  0.1587  1.1919
19932TIP3    H281212   6.774   3.132  14.082 -1.3877 -0.9804 -0.3625
19933TIP3   OH281213   5.658   3.973   4.339  0.1081 -0.7757  0.4557
19933TIP3    H181214   5.728   3.911   4.319  1.5367  0.5207  1.2621
19933TIP3    H281215   5.609   3.931   4.410  1.5407 -0.6647  1.5409
19934TIP3   OH281216   5.674   2.622  15.746 -0.2644 -0.2330 -0.0851
19934TIP3    H181217   5.705   2.643  15.834  0.3108 -1.4811  0.0336
19934TIP3    H281218   5.677   2.706  15.699  0.2435  0.2811  0.8389
19935TIP3   OH281219   2.923   3.479  16.735  0.4447 -0.2119 -0.7039
19935TIP3    H181220   2.947   3.428  16.813  1.2642  0.6949 -0.3412
19935TIP3    H281221   2.963   3.432  16.662 -0.1358 -0.9456 -0.5676
19936TIP3   OH281222   4.543   4.855   2.689 -0.3184 -0.2525 -0.2538
19936TIP3    H181223   4.521   4.770   2.727 -2.6523  0.8361  1.0589
19936TIP3    H281224   4.636   4.849   2.669  0.2061 -2.2124  2.2436
19937TIP3   OH281225   3.636   3.559  11.618  0.1721  0.2442 -0.1069
19937TIP3    H181226   3.565   3.519  11.668  0.1033 -0.4740 -0.7491
19937TIP3    H281227   3.665   3.490  11.558  0.6377  0.8906 -0.6493
19938TIP3   OH281228   5.643   2.286  13.026  0.2048 -0.5948  0.2801
19938TIP3    H181229   5.701   2.248  12.960 -1.0549 -1.3957 -0.4061
19938TIP3    H281230   5.606   2.363  12.983 -0.3411 -0.9131  0.1707
19939TIP3   OH281231   6.187   0.001  12.289  0.0274  0.3554 -0.0866
19939TIP3    H181232   6.213   0.005  12.381  0.1882 -1.4560 -0.0256
19939TIP3    H281233   6.091   0.006  12.291 -0.0205 -0.4719  0.2619
19940TIP3   OH281234   5.005   6.355  15.698 -0.6121 -0.1412 -0.3302
19940TIP3    H181235   4.931   6.408  15.727  0.0876  1.2955 -1.0707
19940TIP3    H281236   5.082   6.402  15.730  0.0268 -0.7719 -0.9041
19941TIP3   OH281237   3.125   0.186  14.339 -0.2377 -0.6291  0.1951
19941TIP3    H181238   3.135   0.118  14.272 -1.6386  0.7309 -1.4796
19941TIP3    H281239   3.180   0.258  14.309 -0.2773 -0.2796  0.9406
19942TIP3   OH281240   6.371   3.491   4.661 -0.3276  0.4019 -0.2884
19942TIP3    H181241   6.449   3.544   4.646 -0.4185  0.5013 -0.4025
19942TIP3    H281242   6.396   3.434   4.734 -0.3814  0.8971  0.1211
19943TIP3   OH281243   1.831   5.394  10.928  0.2065 -0.0670 -0.0151
19943TIP3    H181244   1.894   5.452  10.971  0.6571 -1.2333  0.9603
19943TIP3    H281245   1.886   5.328  10.884 -0.3044 -0.0997 -0.6140
19944TIP3   OH281246   3.720   4.229   0.543  0.0064 -0.2030  0.6953
19944TIP3    H181247   3.812   4.226   0.568 -0.1130 -0.7790  1.0834
19944TIP3    H281248   3.721   4.261   0.453  0.5438  0.3570  0.8911
19945TIP3   OH281249   0.307   0.857  14.804  0.3991 -0.2938  0.1632
19945TIP3    H181250   0.225   0.808  14.804  1.9988 -3.1825 -0.0698
19945TIP3    H281251   0.374   0.793  14.829  2.8436  1.4407 -1.4276
19946TIP3   OH281252   3.820   5.579  16.064  0.1750 -0.1393 -0.0481
19946TIP3    H181253   3.846   5.599  16.154  0.4918  0.1491 -0.1994
19946TIP3    H281254   3.764   5.502  16.072 -1.0498  0.7863  0.5495
19947TIP3   OH281255   5.606   0.650   4.077  0.1021  0.1845 -0.0033
19947TIP3    H181256   5.514   0.636   4.099  0.1492 -0.2212 -0.0635
19947TIP3    H281257   5.603   0.682   3.986 -0.0535  1.3386  0.3874
19948TIP3   OH281258   4.130   2.547   3.922 -0.1059  0.1134  0.1897
19948TIP3    H181259   4.047   2.572   3.962  0.0634  1.6825 -0.3299
19948TIP3    H281260   4.144   2.614   3.855  2.0769  0.4993  0.9663
19949TIP3   OH281261   1.937   2.603   3.219 -0.5534  0.6037 -0.6470
19949TIP3    H181262   1.843   2.619   3.223 -0.8002 -0.4833 -1.7726
19949TIP3    H281263   1.959   2.614   3.126  0.2683 -0.0288 -0.5338
19950TIP3   OH281264   1.756   3.647  12.465  0.3228 -1.0004  0.0226
19950TIP3    H181265   1.704   3.727  12.470  2.3346  0.5071 -1.5958
19950TIP3    H281266   1.711   3.593  12.400 -1.8351 -1.9221  2.1264
19951TIP3   OH281267   0.845   6.401  16.091  0.7024 -0.3974 -0.1861
19951TIP3    H181268   0.919   6.404  16.031  0.2904 -2.1164 -0.8328
19951TIP3    H281269   0.876   6.347  16.164  0.8062  0.7171  0.6226
19952TIP3   OH281270   0.662   1.713   3.153  0.1262  0.0893 -0.0426
19952TIP3    H181271   0.756   1.696   3.155  0.2798  0.6383 -1.6059
19952TIP3    H281272   0.631   1.671   3.073 -0.8113  0.6294  0.0159
19953TIP3   OH281273   0.294   0.205  14.278 -0.4390  0.1060  0.2091
19953TIP3    H181274   0.375   0.255  14.291 -1.1114  1.5238 -0.8720
19953TIP3    H281275   0.310   0.155  14.199 -0.9848  1.2220 -0.6328
19954TIP3   OH281276   5.354   4.310   1.216 -0.6238  0.2130  0.4096
19954TIP3    H181277   5.385   4.334   1.304 -1.2524  0.6446  0.5179
19954TIP3    H281278   5.362   4.215   1.214  1.9544  0.3445 -0.0389
19955TIP3   OH281279   0.930   2.186  16.177  0.5908 -0.3818 -0.1342
19955TIP3    H181280   0.958   2.141  16.097 -2.1140 -0.2805 -1.2486
19955TIP3    H281281   0.892   2.117  16.231  0.4709 -0.1379  0.0986
19956TIP3   OH281282   1.268   3.212  13.286  0.8286 -0.4676 -0.0019
19956TIP3    H181283   1.198   3.276  13.273  0.6298 -1.2263 -4.1190
19956TIP3    H281284   1.228   3.144  13.341 -1.1352 -0.0532 -0.8356
19957TIP3   OH281285   3.687   1.348  15.941 -0.2929 -0.2209 -0.4622
19957TIP3    H181286   3.644   1.279  15.891 -3.7157 -0.6403  2.6371
19957TIP3    H281287   3.626   1.421  15.940  0.2235  0.3261  1.6318
19958TIP3   OH281288   6.118   5.864   4.259 -0.1409  0.5172  0.1810
19958TIP3    H181289   6.059   5.822   4.321 -0.7429  2.2214  0.8303
19958TIP3    H281290   6.186   5.904   4.314  0.1070  0.8556 -0.3602
19959LIG      O81291   5.236   5.444  16.446 -0.6959 -0.2852  0.2532
19959LIG      N81292   5.288   5.600  16.673  0.8166  1.0198  0.6007
19959LIG     C181293   5.354   5.242  16.412 -0.2634 -0.9351  0.3469
19959LIG     C281294   5.297   5.338  16.516  0.7733  0.2856 -0.5399
19959LIG     C381295   5.252   5.178  16.309  0.0121  0.2571  0.0650
19959LIG     C481296   5.470   5.313  16.336 -0.3376 -0.0386  0.8826
19959LIG     C581297   5.407   5.388  16.614  0.3588 -0.7234  0.0527
19959LIG     C681298   5.318   5.086  16.202 -0.2771  0.2322  0.0624
19959LIG     C781299   5.538   5.220  16.225 -0.2613 -0.7874 -0.7457
19959LIG     C881300   5.431   5.164  16.129  0.3408  0.0798  0.4715
19959LIG     C981301   5.350   5.480  16.724 -0.0646  0.0003 -0.2483
19959LIG    C1081302   5.180   5.262  16.605  0.3214  0.2455 -0.7046
19959LIG    C1181303   5.185   5.669  16.756  0.0294 -0.6892 -0.4870
19959LIG    C1281304   5.382   5.693  16.604  0.2776  0.4083  0.0807
19959LIG    C1381305   5.257   5.749  16.865 -0.1819  0.3922  0.2467
19959LIG    C1481306   5.460   5.772  16.702  0.2517  0.7882  0.2529
19959LIG    C1581307   5.360   5.844  16.804  1.1442 -0.1772  0.3031
19959LIG    C1681308   5.209   5.142  16.685  1.3480 -0.1073 -0.0446
19959LIG    C1781309   5.055   5.319  16.620  0.4308 -0.5723  0.0451
19959LIG    C1881310   5.103   5.081  16.751 -0.1777 -0.9125  0.1906
19959LIG    C1981311   4.952   5.264  16.704 -0.3214  0.1490  0.0846
19959LIG    C2081312   4.978   5.143  16.766 -0.1250 -0.3396  0.1449
19959LIG     H181313   5.402   5.163  16.473  0.7857  0.6294  1.6378
19959LIG     H281314   5.195   5.259  16.259 -1.3884 -2.4606 -3.1745
19959LIG     H381315   5.174   5.121  16.364 -0.0727  0.7669  0.4757
19959LIG     H481316   5.549   5.346  16.407  0.7939 -0.9286  0.0830
19959LIG     H581317   5.427   5.402  16.286  0.7148 -0.9734 -1.8952
19959LIG     H681318   5.484   5.448  16.562 -0.7979 -2.0938 -3.6175
19959LIG     H781319   5.454   5.295  16.653 -1.2860 -0.9831  1.5666
19959LIG     H881320   5.249   5.045  16.125 -0.0296 -0.1874  0.0582
19959LIG     H981321   5.366   4.999  16.252 -0.9902 -0.3416 -0.2229
19959LIG    H1081322   5.580   5.133  16.278 -1.1968 -0.3706  0.7289
19959LIG    H1181323   5.622   5.272  16.174 -1.0578 -0.4754 -1.7930
19959LIG    H1281324   5.384   5.247  16.073 -1.0007 -0.9918 -0.0288
19959LIG    H1381325   5.480   5.102  16.052 -0.4130 -0.5318  0.4787
19959LIG    H1481326   5.262   5.432  16.770  0.5596 -0.7294  0.2056
19959LIG    H1581327   5.432   5.509  16.794 -0.8642  0.3631  0.5500
19959LIG    H1681328   5.114   5.600  16.807 -1.3297  1.8442  1.2392
19959LIG    H1781329   5.140   5.741  16.684  1.2327 -2.1061 -2.7978
19959LIG    H1881330   5.329   5.769  16.543  0.4512  0.6316  0.2041
19959LIG    H1981331   5.449   5.642  16.531  0.6028  0.0720  0.6120
19959LIG    H2081332   5.234   5.518  16.508 -1.2799 -0.3244  0.2880
19959LIG    H2181333   5.318   5.670  16.915 -0.0370 -0.2776 -0.9326
19959LIG    H2281334   5.190   5.800  16.937 -0.2119 -0.5406  0.8986
19959LIG    H2381335   5.519   5.856  16.658 -0.4849  0.5247 -1.2912
19959LIG    H2481336   5.514   5.705  16.772  0.4782 -0.5086 -1.1418
19959LIG    H2581337   5.414   5.887  16.892 -0.0465 -0.4663  1.2037
19959LIG    H2681338   5.300   5.924  16.757  2.1298  0.5227  0.1875
19959LIG    H2781339   5.300   5.085  16.685  1.5359  0.1309 -1.9727
19959LIG    H2881340   5.026   5.415  16.580  0.6458 -0.0155  1.1911
19959LIG    H2981341   5.122   4.998  16.817  1.9050 -1.4876 -1.0277
19959LIG    H3081342   4.867   5.329  16.720 -1.5297 -0.9938 -1.4235
19959LIG    H3181343   4.913   5.094  16.836  1.2257 -0.2297  1.5533
   6.77241   6.77241  17.30002
